3258
 energy: -3427.545787061191 gnorm: 0.000839416085 xtb: 6.6.1 (8d0f1dd)
C          124.48549378054773      120.34705102366097      112.85015318044660
C          125.38803385397487      120.00167326141492      114.02803601196723
C          124.87840310753769      118.78891057065064      114.80408639658950
C          125.80637839619823      118.42087361186074      115.96001385578776
C          125.23275404110807      117.35163533402240      116.89081697216746
C          125.10286748425754      115.96980382241591      116.25208472144233
C          124.66366963403334      114.92277418839154      117.27380833128929
C          124.43748520158674      113.54605981978061      116.65221947879780
C          124.08767830593243      112.50476373698784      117.71306595614011
C          123.72015959345318      111.14671950166313      117.11873625166608
C          123.38263604398598      110.13841623742732      118.21590109113075
C          122.78715614254841      108.82477217318562      117.70628833162969
C          121.37312702103696      108.98292690283549      117.15086354112282
C          120.69934594089004      107.64195550462996      116.87315261959925
C          119.33138228464054      107.82330909923822      116.22019087511559
C          118.65312844738882      106.49202264385070      115.91249195494730
C          117.28721546471732      106.68024439463440      115.25607990697644
C          116.55550825251844      105.35426052151959      115.06627821981567
C          115.25692636167688      105.47793850214394      114.26961524660324
C          114.14779981258910      106.25248760566039      114.98141059221992
C          112.83880258362281      106.14404023823239      114.20308664299672
C          111.65364483318822      106.88318251623677      114.82834592527414
C          111.64070891058579      108.37018094815535      114.48783482714627
C          110.45631111130903      109.12789113282953      115.08852252404985
C          109.09926139967162      108.66787229043898      114.55634550676206
C          107.98394993368716      109.65032491971338      114.90813646054788
C          106.60037608366973      109.12706012775672      114.52993612094990
C          105.50816358697553      110.16372120832057      114.77907778723289
C          104.12455887475178      109.68184533268855      114.34952625921379
C          103.05486239943248      110.74452975127934      114.58660145903478
C          101.64564636700038      110.24215142663185      114.27833690979284
C          100.58430461574575      111.33014041656681      114.45577612950886
C          100.52939979389105      112.30172178212190      113.27962123467545
C           99.59814434155354      113.49072324188693      113.51340652594817
C          100.06804677713959      114.39246452293419      114.65348298724042
C           99.42607426825748      115.77729510317432      114.60852736215556
C           99.74528495004537      116.61499940817214      115.84692927156752
C          101.22139822090463      116.98732307474116      115.96485481196288
C          101.52944443914734      117.69622965322796      117.28083367427934
C          103.02983409835066      117.88940014595927      117.48901088350961
C          103.35533495412841      118.40850925265390      118.88943838639528
C          104.81528687888796      118.19452560189006      119.28850984282190
C          105.79721380317723      119.07176697428274      118.51791872308772
C          107.24428802058975      118.71856375095282      118.84946020099412
C          108.24555345566471      119.55856596918510      118.06338110072595
C          109.68695941934324      119.11819832495964      118.30100684552053
C          110.67792897511747      119.96597775008541      117.50980371959818
C          112.11254659523276      119.46179473937646      117.63055145896865
C          113.09713518890982      120.35049409928941      116.87574721342938
C          114.51510950797412      119.78930177591076      116.90127246667376
C          115.51831649344327      120.71199664986958      116.21569525806548
C          116.90416871806940      120.07982599305106      116.13852091049077
C          117.95170455588929      121.02132232398201      115.55229093158522
C          119.30348714433538      120.32966622486678      115.39963398777739
C          120.37482392536049      121.20301369060499      114.75052924705544
C          120.79857992741269      122.38831504814131      115.61633008912989
C          122.03254438481963      123.11149092323483      115.07470305519094
C          121.78752378552890      123.76130475791525      113.71570432386754
C          123.00789387491780      124.52609309515920      113.21005338588347
C          122.71687405986438      125.33556709196168      111.94578964004126
C          122.34704397367375      124.47309343513636      110.74225862906300
C          122.02007664500972      125.31668701497168      109.51347832878793
C          121.55843182947228      124.45321741546576      108.34377930737219
C          121.11682458593734      125.28390629252513      107.14374404964884
C          120.65684331454028      124.39956404020255      105.98844028619025
C          120.24347474192776      125.19117949997744      104.74968618213843
C          118.93785230246954      125.95975705850034      104.92905587783085
C          118.53398471077415      126.69065546040974      103.65204696645732
C          117.14102142927634      127.30202016695877      103.76161822470847
C          116.71462523170759      128.01478113559790      102.48103550072523
C          115.24863266983382      128.43434908178867      102.53056695549090
C          114.79467013446711      129.09137798579852      101.23045132382089
C          113.34966731460548      129.58709354172635      101.28167322867009
C          112.32198450629708      128.45985409615136      101.35474754201137
C          110.89495432906507      128.99800899517609      101.29441759541842
C          109.85155689746200      127.88438612574758      101.30633701894475
C          108.43655446393858      128.42927862737147      101.13142512117290
C          107.39860763428175      127.31503278162604      101.03079430842075
C          106.00269440091893      127.86266051438317      100.74195207503733
C          104.95477244053313      126.77401191507842      100.50645959665317
C          105.14134518225447      126.02434437766901       99.18790816498517
C          103.98938608979843      125.05621773457194       98.93230788089724
C          104.13785924313382      124.25403207295177       97.63814796438423
C          105.15717728122361      123.12109318868268       97.74439110302444
C          105.17413270147496      122.25390069125866       96.48579311451053
C          105.93072594097902      120.93591319144429       96.66379851377816
C          107.45117582866163      121.08749263883946       96.68224644197204
C          108.16113858055037      119.81972530547966       97.16003427157364
C          107.96978744114163      118.61447596384390       96.24092673106597
C          108.57462463530726      117.35092296686800       96.84617757367458
C          108.31508418960729      116.10301141840765       96.00484939731034
C          108.71526415178739      114.83523359562214       96.75518321555155
C          108.34172737337482      113.55238436422164       96.01630480583917
C          108.63994382749235      112.31870081891273       96.86565318938089
C          108.20374136973057      111.01415564346711       96.20302010222943
C          108.44756542316532      109.81661096946993       97.11838105244328
C          108.04045135840120      108.48648320226749       96.48899658602613
C          108.24543166427739      107.32422131276469       97.45797443521815
C          107.86630261743727      105.97024132097810       96.86284091819185
C          108.03296787284430      104.84480085080266       97.88155873945368
C          107.64595931271359      103.47480628776705       97.32988815794639
C          107.81017881512146      102.37891558774395       98.38051422170579
C          107.44719300112118      100.99159649666313       97.85735537311734
C          107.59179211236822       99.92496928717118       98.94126674282109
C          107.26905292002213       98.52440105141061       98.42553978936196
C          107.35934615046263       97.43950107147931       99.50232784439638
C          106.23111974765236       97.52126196402918      100.52880584693800
C          106.24109064797364       96.35664672895923      101.51904586664574
C          105.01072082185659       96.39576772120363      102.42252139669904
C          104.92371768092030       95.22714615745338      103.40293788073149
C          103.59062522153100       95.25315001602900      104.14977698383059
C          103.39071204910276       94.10618294475843      105.14170415166318
C          104.25720990118532       94.23100667781634      106.39269903682070
C          103.85991927189892       93.23391462501002      107.47792209260454
C          104.73317285279472       93.36626453077207      108.72393192105835
C          104.27279207720404       92.44005964200196      109.84663705049405
C          105.15484278635023       92.54644640765396      111.08831524021056
C          104.65801634226089       91.64990524660489      112.21959073487861
C          105.55620368443228       91.71972993205432      113.45165518516055
C          105.03922297859779       90.83779661920349      114.58119168653714
H          106.56596648515274       91.40503609261881      113.17850000009818
H          105.61445258272124       92.75297769342514      113.79857567615207
H          103.64395203450277       91.94845596413214      112.49754085753813
H          104.61003594935968       90.61619466436278      111.86708222474519
H          106.17914249874569       92.26759528196801      110.82893361912863
H          105.17110454559275       93.58244976258985      111.43278592003584
H          103.24226060131404       92.68738961027452      110.11562091902969
H          104.27698246739892       91.40731666780364      109.48833305060454
H          105.76972304752485       93.13647026568248      108.46487743405355
H          104.70164906357849       94.39941552335321      109.07661487378984
H          102.81465039778188       93.39999959456451      107.75305357349200
H          103.93692707356213       92.21639410987285      107.08617490404808
H          105.30522309350329       94.07377358623469      106.13224235676398
H          104.15690608329301       95.24171344745614      106.79458762557539
H          102.34064645475975       94.09733063023545      105.44798129115316
H          103.59394852948746       93.15319173165663      104.64699292576418
H          103.50203035439289       96.20080562359776      104.68424721802542
H          102.78405401311642       95.21747989471747      103.41191933738622
H          105.01497219211619       94.28481543158539      102.85671668085487
H          105.75254841503438       95.28352089850382      104.10993424216856
H          105.01523987857854       97.33232916380710      102.98541029090158
H          104.11563101721596       96.39485873506874      101.79401010945573
H          106.25448571985915       95.41200109900834      100.96915283577373
H          107.14806967857604       96.39756775881061      102.12690709557066
H          106.30203617449261       98.45763749315020      101.08481305944132
H          105.27442840730212       97.52426188611227       99.99942990996894
H          107.31601119560824       96.46135154338960       99.01531112305172
H          108.32300196892565       97.51050033256901      100.01039777881826
H          106.26310752334685       98.51805184750927       97.99695283851055
H          107.96614800939579       98.27860117757484       97.61938617047733
H          108.61454983805329       99.93763515139487       99.32261971730485
H          106.92454651743908      100.17435054082127       99.76767735196380
H          106.41631856636323      100.99935560175632       97.49322214020489
H          108.09106405311195      100.74337998959720       97.01035281518219
H          108.84471883564255      102.36952913380280       98.73108322089547
H          107.17474570526153      102.61143113133876       99.23819831086539
H          106.60662462793506      103.49981865177375       96.99367398098137
H          108.26503740575528      103.24332218865069       96.45907543439081
H          109.07150741654392      104.81721167711366       98.21999245214442
H          107.40990027395048      105.06101309427707       98.75261263200446
H          106.82783659292382      106.00095133606247       96.52467215236584
H          108.49131438101756      105.76787880290857       95.98902800141592
H          109.29169752253893      107.29668463974977       97.76992161395090
H          107.64196735091858      107.49845642042219       98.35198430730510
H          106.98973175609486      108.53136384667545       96.19295776955963
H          108.63080689577001      108.31764575359345       95.58516068880357
H          109.50733247863033      109.77647345912872       97.38114653148455
H          107.88842360196395      109.95904328726598       98.04624891437585
H          107.14074277268132      111.07152788256134       95.95783630148775
H          108.75142532308600      110.87881554555953       95.26790693174748
H          109.71210632038077      112.27514748741197       97.07535384777594
H          108.12527532103168      112.41780284365603       97.82462528457127
H          107.27595555358768      113.57386090375891       95.77777885843430
H          108.88967349512494      113.49484420528616       95.07312231706403
H          109.79226085698680      114.85010063397206       96.93960520285081
H          108.21616837280666      114.83386456452730       97.72774729464409
H          107.25218079871949      116.05403158536883       95.75955996450821
H          108.86344185573010      116.16550746946334       95.06177519059993
H          109.65016472608146      117.48433035463364       96.98334566055323
H          108.13701315466598      117.20124761419936       97.83643715803842
H          106.90430953449209      118.44177893396429       96.08048389386776
H          108.42524219332596      118.81677806470437       95.26868642996183
H          109.23068489805712      120.02448732542575       97.25460071891398
H          107.78830737295574      119.56737916163796       98.15602617582012
H          107.80387290086570      121.35343938356553       95.68245168815713
H          107.72103088054637      121.90263693795950       97.35638356829587
H          105.60974066875457      120.47107801209394       97.59833625243330
H          105.65021879443056      120.26690166115601       95.84745448900493
H          104.13960232897843      122.01997847203178       96.21710398968327
H          105.60514992347024      122.81670081688300       95.65403049145496
H          106.14995035262376      123.53338109063790       97.92583226140002
H          104.89481829065930      122.49546919078324       98.60021267368576
H          103.16603408057759      123.81999178837029       97.38535761593566
H          104.41563910721842      124.92576792705727       96.82201401331460
H          103.91113895052348      124.36414813217426       99.77292704900195
H          103.05831206853945      125.62840579804949       98.88911519886855
H          105.19492554146542      126.74528181613310       98.36797793323633
H          106.08057183976928      125.47085492371666       99.20465762565144
H          104.97863903474622      126.06117814548324      101.33426069864235
H          103.96472719867855      127.23822678514816      100.50504005596132
H          105.68757083262544      128.48241094116372      101.58571801063391
H          106.04427138705491      128.50932493402317       99.86113073088730
H          107.69666626564617      126.63267301757192      100.23305720315066
H          107.38200491158653      126.74646140556048      101.96257225876218
H          108.19055188093331      129.08607471713981      101.96956757149641
H          108.40025342864000      129.03328929317024      100.22070002422979
H          110.06730444877232      127.18656870619384      100.49376755395376
H          109.91705095388454      127.32987738667531      102.24532970397344
H          110.72355834792147      129.66692404770939      102.14154478494206
H          110.77411181657777      129.58836810846248      100.38203411488337
H          112.48423179544731      127.77104163753884      100.52226630483447
H          112.45154850392495      127.89497798297867      102.27928707049676
H          113.22632106512792      130.24592001785206      102.14445721899685
H          113.15144201250287      130.18017918823554      100.38467991262665
H          115.44998568104822      129.94012571839139      101.01733164981916
H          114.90314221745379      128.37929128042651      100.40840222153442
H          114.63961767526264      127.54973072923985      102.72336659546592
H          115.09756513925635      129.13091831633761      103.35819460099015
H          117.34602155312969      128.89208733826388      102.32032885682059
H          116.86277951275032      127.34772909947247      101.62819101711767
H          116.42514580888783      126.50620600038118      103.98032030135714
H          117.11295637640038      128.00691187110138      104.59620207775563
H          119.26431155417505      127.47206610124719      103.42771585033735
H          118.54315383204531      125.98209683242879      102.82108324970723
H          118.14667719153006      125.25889421497523      105.20405623786543
H          119.03648574052168      126.68363186027571      105.74008032383823
H          121.04097494552374      125.88786627889880      104.48357222469758
H          120.11966034242660      124.49614662844986      103.91455410381766
H          121.47536707991655      123.72593780634652      105.72060497034924
H          119.81667311107695      123.78482759272441      106.31948052770645
H          120.30429982539087      125.94491646163624      107.45138480426367
H          121.94701615302367      125.91233765730435      106.81024051271683
H          122.37166106934771      123.78916076002234      108.04240071480683
H          120.72569694062477      123.82641898029784      108.67027013007404
H          121.22990597704162      126.02697720595367      109.76878984491411
H          122.89867325346930      125.89685924319660      109.21869323411413
H          123.17202098177775      123.79450001946978      110.51177092056972
H          121.47364011714291      123.86502664112454      110.98161593611282
H          121.89673031344209      126.02728166727822      112.14988661103082
H          123.59761433126135      125.93439372751084      111.69672837660590
H          123.34734060835645      125.21077787512985      113.99244213893256
H          123.82141200838517      123.82258232075084      113.01540981550869
H          121.52723823399461      122.98887286385877      112.99260014720713
H          120.94145625377479      124.44838836242423      113.79397955956254
H          122.33116510617124      123.88376138201180      115.78925050002006
H          122.86138986356504      122.40351849579194      114.99287886467832
H          119.97617710877350      123.10316725110633      115.69281705524676
H          121.01829917997568      122.02774489995430      116.62520574418799
H          121.25435693684420      120.58346420218534      114.55215450280772
H          120.00062616382465      121.56203779190292      113.79022879042166
H          119.65584475524726      120.00332801542527      116.38183742768847
H          119.16875079520750      119.43601126974703      114.78624137823037
H          117.61544554001421      121.37178728167100      114.57358349757696
H          118.05199519797557      121.89301437132298      116.20305835344301
H          117.21421792129743      119.77605688574947      117.14154765548609
H          116.85115157539360      119.17758569537754      115.52543194653904
H          115.16869155658566      120.94166205161531      115.20610783939914
H          115.57694414751616      121.65549596329110      116.76492074037809
H          114.82507060303119      119.62931576707743      117.93757470314543
H          114.52456610702731      118.81622202181126      116.40467332066757
H          112.77015439949101      120.44813180095733      115.83861436156143
H          113.09251503736427      121.35155904166926      117.31486589520026
H          112.39854448782587      119.41858760693979      118.68516016315270
H          112.17085356041162      118.44405772593080      117.23709092471222
H          110.38889190654075      119.96233309867675      116.45690507356912
H          110.62589392468279      120.99890786053706      117.86181320624071
H          109.91928317080013      119.18544748343338      119.36752056655870
H          109.79543982505439      118.07028717057531      118.01090485388929
H          108.02262649104678      119.47566275852958      116.99792960098294
H          108.13684043363183      120.60911465734424      118.34059261511051
H          107.41396463410479      118.85597287044558      119.92050221619708
H          107.41120697627817      117.66189866734182      118.62557090578547
H          105.63644883604755      118.94361787934686      117.44787366512186
H          105.61270575483012      120.12302387349062      118.75222411821012
H          104.92408977015518      118.39345093392711      120.35743131751961
H          105.07286825952933      117.14415848115497      119.12826184409386
H          103.10376730184497      119.47008716965759      118.95688076398370
H          102.72465590613002      117.87682441600801      119.60829540241555
H          103.52629609268347      116.92554280178103      117.34632643250926
H          103.41616744882643      118.57423249533868      116.73213941455487
H          101.02390303449509      118.66347444431858      117.30961240978026
H          101.13140016998776      117.09467180477455      118.10380561021695
H          101.82888741887108      116.08190255360398      115.91475549126869
H          101.50547492311634      117.62733323966697      115.12593389326545
H           99.14792626672727      117.52960157951337      115.82181463700489
H           99.44862572487119      116.05379374319206      116.73729541653658
H           99.76342621851985      116.30726186685874      113.71351566687389
H           98.34187677883128      115.66233966884505      114.53200412140185
H           99.82977158185531      113.92868697590949      115.61333589256839
H          101.15326565678467      114.49178555921871      114.59083396571206
H           99.55591687806249      114.08187393556477      112.59481137146263
H           98.58473144879859      113.13340055936412      113.71581536736946
H          101.53017091061577      112.68367840045001      113.06909795263634
H          100.19338028930721      111.75815034168720      112.39270876822340
H           99.60082449237507      110.86692654283661      114.56859428707065
H          100.80020340944566      111.87630108756417      115.37452378887988
H          101.60689283986926      109.86215243790234      113.25588345583499
H          101.42186535725040      109.40676111637760      114.94844634703213
H          103.09571084011633      111.06755903160550      115.62986859133652
H          103.27956568745768      111.61675309597648      113.96856815154956
H          104.14340155415482      109.42129601982792      113.28776100038783
H          103.86411873298134      108.77633563284971      114.90319874013224
H          105.48296608165388      110.41294601823893      115.84166335877099
H          105.75430171727537      111.08005511386382      114.23580956424499
H          106.59992055775291      108.85149012429603      113.47504373517994
H          106.38356653778153      108.22249088095035      115.10595434783815
H          108.01190120983111      109.85847578855572      115.98141415002173
H          108.16086114917057      110.59591196035083      114.38870188903374
H          109.15632543132426      108.56760262740953      113.46916695620858
H          108.85436558658132      107.68539606615400      114.96528980026837
H          110.47225864169499      109.02415905322147      116.17692126300469
H          110.57660855250843      110.19092593955646      114.85884554708431
H          112.56459213186064      108.82209252788529      114.84860492963922
H          111.61981137370745      108.48637821974195      113.40107924010243
H          110.73074463636959      106.43060282884150      114.45885684674754
H          111.66901940710507      106.75774419807851      115.91371750506745
H          112.99601173301707      106.52445328003388      113.19217041377738
H          112.58868905377325      105.08534409070052      114.11765283377079
H          114.01134281926588      105.84388996223203      115.98621180128723
H          114.43221783764487      107.30006053008037      115.08258416740021
H          115.47052628589793      105.95491709672817      113.30939870257400
H          114.88970777236915      104.46996805769416      114.05559999219422
H          117.21743153282178      104.66137889071886      114.53959701930778
H          116.33767814402222      104.91550338616895      116.04408963769642
H          116.68687022415394      107.34564192429177      115.87769380628342
H          117.41790752668705      107.16190057928908      114.28388618642617
H          119.29721330682572      105.90364665973364      115.25365104651964
H          118.53432255092200      105.92964667995429      116.84232869090673
H          118.69146328548433      108.40962592357825      116.88408614363092
H          119.44876571660478      108.38916631892565      115.29209216178739
H          121.33753764980767      107.04205652924159      116.22071296707144
H          120.58316320407268      107.09207153243442      117.81065946828825
H          120.76380893993472      109.54238306121952      117.86547638575134
H          121.40497631741110      109.55954098853185      116.22508580193103
H          123.43639781331318      108.40089900969313      116.93610004561843
H          122.75795167883943      108.11547453157482      118.53825403233097
H          124.29269345160104      109.92009889215032      118.78183650938352
H          122.67330529376130      110.59664244341198      118.90750830950347
H          122.86099774307445      111.27786327492890      116.45991848997762
H          124.54854451093779      110.76921731354184      116.51398265408753
H          124.93475944590628      112.38582313911803      118.39420035374927
H          123.24335205307712      112.87171771115351      118.30187431364757
H          123.62551848025788      113.60890814890935      115.92364036483730
H          125.33903822586190      113.23497400248309      116.11806766152273
H          125.42370949371305      114.84374379485537      118.05607883923422
H          123.73707534314575      115.25344524534997      117.74991067543918
H          124.37312669043487      116.00253284118362      115.44225177630676
H          126.06417807539826      115.67616779186986      115.82274662264903
H          125.88332448374827      117.27024303618848      117.76608997540923
H          124.25052717059104      117.67825589100931      117.24125914848619
H          126.76491757465686      118.07918201172924      115.56108439335485
H          126.00026513435706      119.32115625616467      116.54982446476173
H          123.88302340781280      119.00853848913047      115.19821253359960
H          124.79050730018719      117.94322758651033      114.11929422436785
H          126.39777678174271      119.79718354487865      113.66279808498466
H          125.45123922575861      120.86029707991555      114.70188321538078
H          124.86444838511856      121.21882343411848      112.32110949782506
H          124.43863647713169      119.51623470349965      112.14992191471647
H          123.47553316258632      120.56531118238259      113.19045320646742
H          104.04421626140260       91.15427852097980      114.88724505300088
H          104.98299362330053       89.79913274400488      114.26187137419744
H          105.69809267606651       90.89530474084826      115.44444998199754
C           96.99709591310011      107.50231394094182      102.27636011043359
C           96.92446133063230      108.19298302029037      103.63259009354913
C           95.85632205973961      109.28355549146579      103.65887026557593
C           95.75997342101452      109.96503325382172      105.02140892846306
C           94.64812285855258      111.01136662870998      105.05988273351976
C           94.62809616868921      111.83285174338157      106.34924174565322
C           94.31142202754995      111.01515337972808      107.59903765755644
C           94.26045398250822      111.89513659238794      108.84649475811162
C           94.13168898076742      111.07439495897444      110.12802936503645
C           94.30256396533059      111.92764635740245      111.38319552280139
C           94.36948020725370      111.07766980675018      112.65137416726169
C           94.86831907164667      111.85238051078811      113.87132696436295
C           93.87945537834352      112.89773691048693      114.38101660717184
C           94.35329468435538      113.57723237339118      115.66804381608725
C           95.52291408966303      114.53169124531281      115.43750416622328
C           95.92902005330262      115.31179290020948      116.68844429844634
C           96.66600857340437      114.46055535132865      117.71899731773691
C           97.10889064367855      115.28151598097367      118.92907438154913
C           97.91082709487655      114.43416698166035      119.91374632350734
C           98.29218506075378      115.16250990167228      121.20316413569877
C           99.29805992466406      116.29668745989848      121.01009493560517