      -----------------------------------------------------------      
     |                   =====================                   |     
     |                           x T B                           |     
     |                   =====================                   |     
     |                         S. Grimme                         |     
     |          Mulliken Center for Theoretical Chemistry        |     
     |                    University of Bonn                     |     
      -----------------------------------------------------------      

   * xtb version 6.6.1 (8d0f1dd) compiled by 'stahn@M-Bot' on 2023-08-01

   xtb is free software: you can redistribute it and/or modify it under
   the terms of the GNU Lesser General Public License as published by
   the Free Software Foundation, either version 3 of the License, or
   (at your option) any later version.
   
   xtb is distributed in the hope that it will be useful,
   but WITHOUT ANY WARRANTY; without even the implied warranty of
   MERCHANTABILITY or FITNESS FOR A PARTICULAR PURPOSE.  See the
   GNU Lesser General Public License for more details.
   
   Cite this work as:
   * C. Bannwarth, E. Caldeweyher, S. Ehlert, A. Hansen, P. Pracht,
     J. Seibert, S. Spicher, S. Grimme, WIREs Comput. Mol. Sci., 2020, 11,
     e01493. DOI: 10.1002/wcms.1493
   
   for GFN2-xTB:
   * C. Bannwarth, S. Ehlert and S. Grimme., J. Chem. Theory Comput., 2019,
     15, 1652-1671. DOI: 10.1021/acs.jctc.8b01176
   for GFN1-xTB:
   * S. Grimme, C. Bannwarth, P. Shushkov, J. Chem. Theory Comput., 2017,
     13, 1989-2009. DOI: 10.1021/acs.jctc.7b00118
   for GFN0-xTB:
   * P. Pracht, E. Caldeweyher, S. Ehlert, S. Grimme, ChemRxiv, 2019, preprint.
     DOI: 10.26434/chemrxiv.8326202.v1
   for GFN-FF:
   * S. Spicher and S. Grimme, Angew. Chem. Int. Ed., 2020, 59, 15665-15673.
     DOI: 10.1002/anie.202004239
   
   for ALPB and GBSA implicit solvation:
   * S. Ehlert, M. Stahn, S. Spicher, S. Grimme, J. Chem. Theory Comput.,
     2021, 17, 4250-4261. DOI: 10.1021/acs.jctc.1c00471
   
   for DFT-D4:
   * E. Caldeweyher, C. Bannwarth and S. Grimme, J. Chem. Phys., 2017,
     147, 034112. DOI: 10.1063/1.4993215
   * E. Caldeweyher, S. Ehlert, A. Hansen, H. Neugebauer, S. Spicher,
     C. Bannwarth and S. Grimme, J. Chem. Phys., 2019, 150, 154122.
     DOI: 10.1063/1.5090222
   * E. Caldeweyher, J.-M. Mewes, S. Ehlert and S. Grimme, Phys. Chem. Chem. Phys.
     2020, 22, 8499-8512. DOI: 10.1039/D0CP00502A
   
   for sTDA-xTB:
   * S. Grimme and C. Bannwarth, J. Chem. Phys., 2016, 145, 054103.
     DOI: 10.1063/1.4959605
   
   in the mass-spec context:
   * V. Asgeirsson, C. Bauer and S. Grimme, Chem. Sci., 2017, 8, 4879.
     DOI: 10.1039/c7sc00601b
   * J. Koopman and S. Grimme, ACS Omega 2019, 4, 12, 15120-15133.
     DOI: 10.1021/acsomega.9b02011
   
   for metadynamics refer to:
   * S. Grimme, J. Chem. Theory Comput., 2019, 155, 2847-2862
     DOI: 10.1021/acs.jctc.9b00143
   
   for SPH calculations refer to:
   * S. Spicher and S. Grimme, J. Chem. Theory Comput., 2021, 17, 1701-1714
     DOI: 10.1021/acs.jctc.0c01306
   
   with help from (in alphabetical order)
   P. Atkinson, C. Bannwarth, F. Bohle, G. Brandenburg, E. Caldeweyher
   M. Checinski, S. Dohm, S. Ehlert, S. Ehrlich, I. Gerasimov, C. Hölzer
   A. Katbashev, J. Koopman, C. Lavigne, S. Lehtola, F. März, M. Müller,
   F. Musil, H. Neugebauer, J. Pisarek, C. Plett, P. Pracht, F. Pultar,
   J. Seibert, P. Shushkov, S. Spicher, M. Stahn, M. Steiner, T. Strunk,
   J. Stückrath, T. Rose, and J. Unsleber
   
 * started run on 2024/06/17 at 15:18:45.992     

           -------------------------------------------------
          |                Calculation Setup                |
           -------------------------------------------------

          program call               : /home/abt-grimme/AK-bin/xtb input.xyz --input input.inp --opt --gbsa water
          hostname                   : boar040.thch.uni-bonn.de
          coordinate file            : input.xyz
          omp threads                :                     8

   ID    Z sym.   atoms
    1    6 C      1-120, 363-482, 725-844, 1087-1206, 1449-1568, 1811-1930,
                  2173-2292, 2535-2654, 2897-3016
    2    1 H      121-362, 483-724, 845-1086, 1207-1448, 1569-1810,
                  1931-2172, 2293-2534, 2655-2896, 3017-3258

molecular fragmentation (1/2 indicates fragments):
111111111111111111111111111111111111111111111111111111111111111111111111
111111111111111111111111111111111111111111111111111111111111111111111111
111111111111111111111111111111111111111111111111111111111111111111111111
111111111111111111111111111111111111111111111111111111111111111111111111
111111111111111111111111111111111111111111111111111111111111111111111111
112222222222222222222222222222222222222222222222222222222222222222222222
222222222222222222222222222222222222222222222222222222222222222222222222
222222222222222222222222222222222222222222222222222222222222222222222222
222222222222222222222222222222222222222222222222222222222222222222222222
222222222222222222222222222222222222222222222222222222222222222222222222
222222222222222222222222222222222222222222222222222222222222222222222222
222222222222222222222222222222222222222222222222222222222222222222222222
222222222222222222222222222222222222222222222222222222222222222222222222
222222222222222222222222222222222222222222222222222222222222222222222222
222222222222222222222222222222222222222222222222222222222222222222222222
222222222222222222222222222222222222222222222222222222222222222222222222
222222222222222222222222222222222222222222222222222222222222222222222222
222222222222222222222222222222222222222222222222222222222222222222222222
222222222222222222222222222222222222222222222222222222222222222222222222
222222222222222222222222222222222222222222222222222222222222222222222222
222222222222222222222222222222222222222222222222222222222222222222222222
222222222222222222222222222222222222222222222222222222222222222222222222
222222222222222222222222222222222222222222222222222222222222222222222222
222222222222222222222222222222222222222222222222222222222222222222222222
222222222222222222222222222222222222222222222222222222222222222222222222
222222222222222222222222222222222222222222222222222222222222222222222222
222222222222222222222222222222222222222222222222222222222222222222222222
222222222222222222222222222222222222222222222222222222222222222222222222
222222222222222222222222222222222222222222222222222222222222222222222222
222222222222222222222222222222222222222222222222222222222222222222222222
222222222222222222222222222222222222222222222222222222222222222222222222
222222222222222222222222222222222222222222222222222222222222222222222222
222222222222222222222222222222222222222222222222222222222222222222222222
222222222222222222222222222222222222222222222222222222222222222222222222
222222222222222222222222222222222222222222222222222222222222222222222222
222222222222222222222222222222222222222222222222222222222222222222222222
222222222222222222222222222222222222222222222222222222222222222222222222
222222222222222222222222222222222222222222222222222222222222222222222222
222222222222222222222222222222222222222222222222222222222222222222222222
222222222222222222222222222222222222222222222222222222222222222222222222
222222222222222222222222222222222222222222222222222222222222222222222222
222222222222222222222222222222222222222222222222222222222222222222222222
222222222222222222222222222222222222222222222222222222222222222222222222
222222222222222222222222222222222222222222222222222222222222222222222222
222222222222222222222222222222222222222222222222222222222222222222222222
222222222222222222
# atoms in fragment 1/2:   362  2896
 fragment masses (1/2) :     1685.21    13481.68
CMA distance (Bohr)    :   4.893
constraining FC (au)   :  0.0500

           -------------------------------------------------
          |                 G F N 2 - x T B                 |
           -------------------------------------------------

        Reference                      10.1021/acs.jctc.8b01176
      * Hamiltonian:
        H0-scaling (s, p, d)           1.850000    2.230000    2.230000
        zeta-weighting                 0.500000
      * Dispersion:
        s8                             2.700000
        a1                             0.520000
        a2                             5.000000
        s9                             5.000000
      * Repulsion:
        kExp                           1.500000    1.000000
        rExp                           1.000000
      * Coulomb:
        alpha                          2.000000
        third order                    shell-resolved
        anisotropic                    true
        a3                             3.000000
        a5                             4.000000
        cn-shift                       1.200000
        cn-exp                         4.000000
        max-rad                        5.000000

      * Solvation model:               GBSA
        Solvent                        water
        Parameter file                 internal GFN2-xTB/GBSA
        Dielectric constant                8.0200E+01
        Reference state                gsolv [1 M gas/solution]
        Free energy shift                  1.8574E-03 Eh       1.1656E+00 kcal/mol
        Temperature                        2.9815E+02 K
        Density                            1.0000E+00 kg/L
        Solvent mass                       1.8000E+01 g/mol
        Interaction kernel             Still
        Born radius scaling (c1)           1.5524E+00
        Born radii integrator          GBOBC
        Born offset                        2.4628E-02 a0       4.6540E-02 AA
        H-bond correction              true
        Ion screening                  false
        Surface tension                    1.0000E-05 Eh       1.5569E+01 dyn/cm
        Grid points                               230 per atom
q/qsh data taken from xtbrestart
CAMM data taken from xtbrestart

          ...................................................
          :                      SETUP                      :
          :.................................................:
          :  # basis functions                6498          :
          :  # atomic orbitals                6498          :
          :  # shells                         4338          :
          :  # electrons                      6498          :
          :  max. iterations                   250          :
          :  Hamiltonian                  GFN2-xTB          :
          :  restarted?                       true          :
          :  GBSA solvation                   true          :
          :  PC potential                    false          :
          :  electronic temp.          300.0000000     K    :
          :  accuracy                    1.0000000          :
          :  -> integral cutoff          0.2500000E+02      :
          :  -> integral neglect         0.1000000E-07      :
          :  -> SCF convergence          0.1000000E-05 Eh   :
          :  -> wf. convergence          0.1000000E-03 e    :
          :  Broyden damping             0.4000000          :
          ...................................................

 iter      E             dE          RMSdq      gap      omega  full diag
   1  -3472.3197839 -0.347232E+04  0.929E-05   10.78       0.0  T
   2  -3472.3197839 -0.606769E-08  0.728E-05   10.78      24.1  T
   3  -3472.3197839 -0.862019E-08  0.372E-05   10.78      47.1  T

   *** convergence criteria satisfied after 3 iterations ***

         #    Occupation            Energy/Eh            Energy/eV
      -------------------------------------------------------------
         1        2.0000           -0.6161815             -16.7672
       ...           ...                  ...                  ...
      3243        2.0000           -0.3853145             -10.4849
      3244        2.0000           -0.3851378             -10.4801
      3245        2.0000           -0.3850961             -10.4790
      3246        2.0000           -0.3848642             -10.4727
      3247        2.0000           -0.3844592             -10.4617
      3248        2.0000           -0.3828257             -10.4172
      3249        2.0000           -0.3825558             -10.4099 (HOMO)
      3250                          0.0136474               0.3714 (LUMO)
      3251                          0.0167489               0.4558
      3252                          0.0171735               0.4673
      3253                          0.0176269               0.4797
      3254                          0.0177701               0.4835
       ...                                ...                  ...
      6498                          0.3784049              10.2969
      -------------------------------------------------------------
                  HL-Gap            0.3962032 Eh           10.7812 eV
             Fermi-level           -0.1844542 Eh           -5.0193 eV

 SCC (total)                   0 d,  0 h,  7 min, 44.970 sec
 SCC setup                      ...        0 min,  1.786 sec (  0.384%)
 Dispersion                     ...        0 min,  3.603 sec (  0.775%)
 classical contributions        ...        0 min,  0.164 sec (  0.035%)
 integral evaluation            ...        0 min,  5.910 sec (  1.271%)
 iterations                     ...        3 min,  2.537 sec ( 39.258%)
 molecular gradient             ...        4 min, 22.517 sec ( 56.459%)
 printout                       ...        0 min,  8.453 sec (  1.818%)

         :::::::::::::::::::::::::::::::::::::::::::::::::::::
         ::                     SUMMARY                     ::
         :::::::::::::::::::::::::::::::::::::::::::::::::::::
         :: total energy           -3426.810920300994 Eh    ::
         :: total w/o Gsasa/hb     -3426.724672863319 Eh    ::
         :: gradient norm              0.635052163118 Eh/a0 ::
         :: HOMO-LUMO gap             10.781237829394 eV    ::
         ::.................................................::
         :: SCC energy             -3472.319783938756 Eh    ::
         :: -> isotropic ES            0.274181018858 Eh    ::
         :: -> anisotropic ES          1.300451759294 Eh    ::
         :: -> anisotropic XC          2.130336119600 Eh    ::
         :: -> dispersion             -4.298681479138 Eh    ::
         :: -> Gsolv                  -0.020096346852 Eh    ::
         ::    -> Gelec                0.066151090822 Eh    ::
         ::    -> Gsasa               -0.084430004490 Eh    ::
         ::    -> Ghb                 -0.003674876310 Eh    ::
         ::    -> Gshift               0.001857443127 Eh    ::
         :: repulsion energy          44.786537848421 Eh    ::
         :: add. restraining           0.000000000000 Eh    ::
         :: total charge              -0.000000000011 e     ::
         :::::::::::::::::::::::::::::::::::::::::::::::::::::

      ----------------------------------------------------------- 
     |              Fast Inertial Relaxation Engine              |
      ----------------------------------------------------------- 

          ...................................................
          :                      SETUP                      :
          :.................................................:
          :   energy convergence        0.5000000E-05 Eh    :
          :   grad. convergence         0.1000000E-02 Eh/a0 :
          :   optimization log               true           :
          :   writing optlog all                1     steps :
          :   Hessian reset                    20     steps :
          :   time step scaling                 5     steps :
          :   maximium step len.        1.0000000     a0    :
          :   initial time step         0.2500000     fs    :
          :   maximum time step         1.2500000     fs    :
          :   power reset thr           0.0000000     au    :
          :   alpha parameter           0.1000000           :
          :   BFGS update                   false           :
          :   preconditioning               false           :
          ...................................................

........................................................................
.............................. CYCLE    1 ..............................
........................................................................

 iter      E             dE          RMSdq      gap      omega  full diag
   1  -3472.5547173 -0.347255E+04  0.750E-03   10.82       0.0  T
   2  -3472.5547622 -0.449248E-04  0.393E-03   10.82       1.0  T
   3  -3472.5547627 -0.438410E-06  0.183E-03   10.82       1.0  T
   4  -3472.5547629 -0.162927E-06  0.229E-04   10.82       7.6  T
   5  -3472.5547629 -0.404452E-07  0.148E-04   10.82      11.9  T
     SCC iter.                  ...        4 min, 58.752 sec
     gradient                   ...        4 min, 24.640 sec
 * total energy  : -3426.8568058 Eh     change    :  -0.4588547E-01 Eh
   gradient norm :     0.6013885 Eh/a0  converged?    E=F G=F D=F
   time step     :     0.2500000 fs     power     :   0.2367798E-05
   step length   :     0.0744268 a0     speed     :   0.7201189E-02

........................................................................
.............................. CYCLE    2 ..............................
........................................................................

 iter      E             dE          RMSdq      gap      omega  full diag
   1  -3472.9008448 -0.347290E+04  0.110E-02   10.87       0.0  T
   2  -3472.9009410 -0.961214E-04  0.576E-03   10.87       1.0  T
   3  -3472.9009420 -0.101803E-05  0.268E-03   10.87       1.0  T
   4  -3472.9009424 -0.406046E-06  0.357E-04   10.87       4.9  T
   5  -3472.9009425 -0.975165E-07  0.238E-04   10.87       7.3  T
     SCC iter.                  ...        4 min, 53.875 sec
     gradient                   ...        4 min, 22.621 sec
 * total energy  : -3426.9199011 Eh     change    :  -0.6309537E-01 Eh
   gradient norm :     0.5524087 Eh/a0  converged?    E=F G=F D=F
   time step     :     0.2500000 fs     power     :   0.3202173E-05
   step length   :     0.1095803 a0     speed     :   0.1060248E-01

........................................................................
.............................. CYCLE    3 ..............................
........................................................................

 iter      E             dE          RMSdq      gap      omega  full diag
   1  -3473.3490079 -0.347335E+04  0.141E-02   10.90       0.0  T
   2  -3473.3491642 -0.156273E-03  0.738E-03   10.90       1.0  T
   3  -3473.3491659 -0.174990E-05  0.342E-03   10.90       1.0  T
   4  -3473.3491666 -0.693309E-06  0.469E-04   10.90       3.7  T
   5  -3473.3491668 -0.163416E-06  0.314E-04   10.90       5.6  T
     SCC iter.                  ...        4 min, 55.084 sec
     gradient                   ...        4 min, 24.527 sec
 * total energy  : -3426.9936247 Eh     change    :  -0.7372354E-01 Eh
   gradient norm :     0.4912756 Eh/a0  converged?    E=F G=F D=F
   time step     :     0.2500000 fs     power     :   0.3669297E-05
   step length   :     0.1418496 a0     speed     :   0.1372471E-01

........................................................................
.............................. CYCLE    4 ..............................
........................................................................

 iter      E             dE          RMSdq      gap      omega  full diag
   1  -3473.8875961 -0.347389E+04  0.167E-02   10.90       0.0  T
   2  -3473.8878113 -0.215193E-03  0.873E-03   10.90       1.0  T
   3  -3473.8878139 -0.257974E-05  0.400E-03   10.90       1.0  T
   4  -3473.8878148 -0.989070E-06  0.565E-04   10.90       3.1  T
   5  -3473.8878151 -0.226838E-06  0.378E-04   10.90       4.6  T
     SCC iter.                  ...        4 min, 55.011 sec
     gradient                   ...        4 min, 24.787 sec
 * total energy  : -3427.0705805 Eh     change    :  -0.7695578E-01 Eh
   gradient norm :     0.4224669 Eh/a0  converged?    E=F G=F D=F
   time step     :     0.2500000 fs     power     :   0.3739399E-05
   step length   :     0.1703806 a0     speed     :   0.1648524E-01

........................................................................
.............................. CYCLE    5 ..............................
........................................................................

 iter      E             dE          RMSdq      gap      omega  full diag
   1  -3474.5026540 -0.347450E+04  0.186E-02   10.90       0.0  T
   2  -3474.5029159 -0.261945E-03  0.976E-03   10.90       1.0  T
   3  -3474.5029194 -0.344811E-05  0.441E-03   10.90       1.0  T
   4  -3474.5029206 -0.125311E-05  0.646E-04   10.90       2.7  T
   5  -3474.5029209 -0.275881E-06  0.428E-04   10.90       4.1  T
   6  -3474.5029211 -0.173320E-06  0.193E-04   10.90       9.1  T
     SCC iter.                  ...        5 min, 52.635 sec
     gradient                   ...        4 min, 23.022 sec
 * total energy  : -3427.1436140 Eh     change    :  -0.7303353E-01 Eh
   gradient norm :     0.3528266 Eh/a0  converged?    E=F G=F D=F
   time step     :     0.2500000 fs     power     :   0.3442837E-05
   step length   :     0.1944377 a0     speed     :   0.1881289E-01

........................................................................
.............................. CYCLE    6 ..............................
........................................................................

 iter      E             dE          RMSdq      gap      omega  full diag
   1  -3475.2515708 -0.347525E+04  0.221E-02   10.90       0.0  T
   2  -3475.2519209 -0.350154E-03  0.116E-02   10.90       1.0  T
   3  -3475.2519261 -0.517792E-05  0.509E-03   10.90       1.0  T
   4  -3475.2519278 -0.167478E-05  0.770E-04   10.90       2.3  T
   5  -3475.2519281 -0.347676E-06  0.497E-04   10.90       3.5  T
   6  -3475.2519283 -0.193919E-06  0.206E-04   10.89       8.5  T
     SCC iter.                  ...        5 min, 51.880 sec
     gradient                   ...        4 min, 25.780 sec
 * total energy  : -3427.2128720 Eh     change    :  -0.6925798E-01 Eh
   gradient norm :     0.2859794 Eh/a0  converged?    E=F G=F D=F
   time step     :     0.2750000 fs     power     :   0.2787618E-05
   step length   :     0.2368518 a0     speed     :   0.2083335E-01

........................................................................
.............................. CYCLE    7 ..............................
........................................................................

 iter      E             dE          RMSdq      gap      omega  full diag
   1  -3476.1286934 -0.347613E+04  0.252E-02   10.90       0.0  T
   2  -3476.1291038 -0.410404E-03  0.132E-02   10.89       1.0  T
   3  -3476.1291114 -0.754054E-05  0.552E-03   10.89       1.0  T
   4  -3476.1291135 -0.215320E-05  0.903E-04   10.89       1.9  T
   5  -3476.1291139 -0.395157E-06  0.570E-04   10.89       3.1  T
   6  -3476.1291141 -0.216829E-06  0.215E-04   10.89       8.2  T
     SCC iter.                  ...        5 min, 53.493 sec
     gradient                   ...        4 min, 25.177 sec
 * total energy  : -3427.2701587 Eh     change    :  -0.5728669E-01 Eh
   gradient norm :     0.2424486 Eh/a0  converged?    E=F G=F D=F
   time step     :     0.3025000 fs     power     :   0.1873991E-05
   step length   :     0.2789097 a0     speed     :   0.2230249E-01

........................................................................
.............................. CYCLE    8 ..............................
........................................................................

 iter      E             dE          RMSdq      gap      omega  full diag
   1  -3477.0970865 -0.347710E+04  0.275E-02   10.90       0.0  T
   2  -3477.0974782 -0.391647E-03  0.146E-02   10.89       1.0  T
   3  -3477.0974884 -0.101941E-04  0.543E-03   10.89       1.0  T
   4  -3477.0974907 -0.239245E-05  0.101E-03   10.89       1.7  T
   5  -3477.0974911 -0.358487E-06  0.615E-04   10.89       2.8  T
   6  -3477.0974913 -0.198795E-06  0.199E-04   10.89       8.8  T
     SCC iter.                  ...        5 min, 54.704 sec
     gradient                   ...        4 min, 27.377 sec
 * total energy  : -3427.3100561 Eh     change    :  -0.3989743E-01 Eh
   gradient norm :     0.2377187 Eh/a0  converged?    E=F G=F D=F
   time step     :     0.3327500 fs     power     :   0.9491062E-06
   step length   :     0.3145568 a0     speed     :   0.2286631E-01

........................................................................
.............................. CYCLE    9 ..............................
........................................................................

 iter      E             dE          RMSdq      gap      omega  full diag
   1  -3478.0797514 -0.347808E+04  0.293E-02   10.90       0.0  T
   2  -3478.0800291 -0.277693E-03  0.160E-02   10.90       1.0  T
   3  -3478.0800415 -0.124219E-04  0.456E-03   10.90       1.0  T
   4  -3478.0800436 -0.212006E-05  0.106E-03   10.90       1.7  T
   5  -3478.0800438 -0.227983E-06  0.606E-04   10.89       2.9  T
   6  -3478.0800440 -0.138500E-06  0.152E-04   10.89      11.5  T
     SCC iter.                  ...        5 min, 57.366 sec
     gradient                   ...        4 min, 24.996 sec
 * total energy  : -3427.3333169 Eh     change    :  -0.2326079E-01 Eh
   gradient norm :     0.2523234 Eh/a0  converged?    E=F G=F D=F
   time step     :     0.3660250 fs     power     :   0.2767638E-06
   step length   :     0.3380210 a0     speed     :   0.2233820E-01

........................................................................
.............................. CYCLE   10 ..............................
........................................................................

 iter      E             dE          RMSdq      gap      omega  full diag
   1  -3478.9824324 -0.347898E+04  0.316E-02   10.90       0.0  T
   2  -3478.9825634 -0.131009E-03  0.179E-02   10.90       1.0  T
   3  -3478.9825769 -0.135014E-04  0.292E-03   10.90       1.0  T
   4  -3478.9825784 -0.153347E-05  0.106E-03   10.90       1.7  T
   5  -3478.9825785 -0.758560E-07  0.528E-04   10.90       3.3  T
   6  -3478.9825785 -0.753043E-07  0.851E-05   10.90      20.6  T
     SCC iter.                  ...        5 min, 51.361 sec
     gradient                   ...        4 min, 25.183 sec
 * total energy  : -3427.3447829 Eh     change    :  -0.1146603E-01 Eh
   gradient norm :     0.2521254 Eh/a0  converged?    E=F G=F D=F
   time step     :     0.4026275 fs     power     :  -0.1135544E-06
   step length   :     0.3505850 a0     speed     :   0.2106226E-01

........................................................................
.............................. CYCLE   11 ..............................
........................................................................
 * reset velocities

 iter      E             dE          RMSdq      gap      omega  full diag
   1  -3478.9652978 -0.347897E+04  0.118E-03   10.90       0.0  T
   2  -3478.9652986 -0.797196E-06  0.678E-04   10.90       2.6  T
   3  -3478.9652986 -0.435239E-08  0.267E-04   10.90       6.6  T
     SCC iter.                  ...        2 min, 54.030 sec
     gradient                   ...        4 min, 22.528 sec
 * total energy  : -3427.3471640 Eh     change    :  -0.2381055E-02 Eh
   gradient norm :     0.2449780 Eh/a0  converged?    E=F G=F D=F
   time step     :     0.2013138 fs     power     :   0.1546946E-06
   step length   :     0.0095802 a0     speed     :   0.1151105E-02

........................................................................
.............................. CYCLE   12 ..............................
........................................................................

 iter      E             dE          RMSdq      gap      omega  full diag
   1  -3478.9311773 -0.347893E+04  0.233E-03   10.90       0.0  T
   2  -3478.9311804 -0.308144E-05  0.134E-03   10.90       1.3  T
   3  -3478.9311804 -0.185105E-07  0.526E-04   10.90       3.3  T
   4  -3478.9311804 -0.930049E-08  0.459E-05   10.90      38.2  T
     SCC iter.                  ...        3 min, 53.528 sec
     gradient                   ...        4 min, 31.534 sec
 * total energy  : -3427.3516589 Eh     change    :  -0.4494962E-02 Eh
   gradient norm :     0.2309717 Eh/a0  converged?    E=F G=F D=F
   time step     :     0.2013138 fs     power     :   0.2875394E-06
   step length   :     0.0188887 a0     speed     :   0.2269569E-02

........................................................................
.............................. CYCLE   13 ..............................
........................................................................

 iter      E             dE          RMSdq      gap      omega  full diag
   1  -3478.8810924 -0.347888E+04  0.340E-03   10.90       0.0  T
   2  -3478.8810991 -0.667294E-05  0.195E-03   10.90       1.0  T
   3  -3478.8810992 -0.472246E-07  0.776E-04   10.90       2.3  T
   4  -3478.8810992 -0.258215E-07  0.777E-05   10.90      22.5  T
     SCC iter.                  ...        3 min, 54.292 sec
     gradient                   ...        4 min, 22.718 sec
 * total energy  : -3427.3577653 Eh     change    :  -0.6106406E-02 Eh
   gradient norm :     0.2105632 Eh/a0  converged?    E=F G=F D=F
   time step     :     0.2013138 fs     power     :   0.3838004E-06
   step length   :     0.0276644 a0     speed     :   0.3324013E-02

........................................................................
.............................. CYCLE   14 ..............................
........................................................................

 iter      E             dE          RMSdq      gap      omega  full diag
   1  -3478.8163530 -0.347882E+04  0.438E-03   10.90       0.0  T
   2  -3478.8163641 -0.111018E-04  0.251E-03   10.90       1.0  T
   3  -3478.8163642 -0.831160E-07  0.100E-03   10.90       1.7  T
   4  -3478.8163642 -0.464693E-07  0.104E-04   10.90      16.8  T
   5  -3478.8163642 -0.126124E-07  0.725E-05   10.90      24.2  T
     SCC iter.                  ...        4 min, 58.113 sec
     gradient                   ...        4 min, 25.321 sec
 * total energy  : -3427.3648050 Eh     change    :  -0.7039693E-02 Eh
   gradient norm :     0.1844721 Eh/a0  converged?    E=F G=F D=F
   time step     :     0.2013138 fs     power     :   0.4330463E-06
   step length   :     0.0356622 a0     speed     :   0.4284988E-02

........................................................................
.............................. CYCLE   15 ..............................
........................................................................

 iter      E             dE          RMSdq      gap      omega  full diag
   1  -3478.7387055 -0.347874E+04  0.522E-03   10.90       0.0  T
   2  -3478.7387214 -0.158775E-04  0.299E-03   10.90       1.0  T
   3  -3478.7387215 -0.110851E-06  0.120E-03   10.90       1.5  T
   4  -3478.7387216 -0.605178E-07  0.119E-04   10.90      14.7  T
   5  -3478.7387216 -0.166351E-07  0.809E-05   10.90      21.7  T
     SCC iter.                  ...        4 min, 47.654 sec
     gradient                   ...        4 min, 25.938 sec
 * total energy  : -3427.3720043 Eh     change    :  -0.7199299E-02 Eh
   gradient norm :     0.1537343 Eh/a0  converged?    E=F G=F D=F
   time step     :     0.2013138 fs     power     :   0.4305317E-06
   step length   :     0.0426610 a0     speed     :   0.5125926E-02

........................................................................
.............................. CYCLE   16 ..............................
........................................................................

 iter      E             dE          RMSdq      gap      omega  full diag
   1  -3478.6503315 -0.347865E+04  0.589E-03   10.91       0.0  T
   2  -3478.6503520 -0.204377E-04  0.338E-03   10.91       1.0  T
   3  -3478.6503521 -0.141095E-06  0.136E-03   10.91       1.3  T
   4  -3478.6503522 -0.767313E-07  0.134E-04   10.91      13.1  T
   5  -3478.6503522 -0.212112E-07  0.908E-05   10.91      19.3  T
     SCC iter.                  ...        4 min, 50.648 sec
     gradient                   ...        4 min, 24.437 sec
 * total energy  : -3427.3785872 Eh     change    :  -0.6582873E-02 Eh
   gradient norm :     0.1197411 Eh/a0  converged?    E=F G=F D=F
   time step     :     0.2013138 fs     power     :   0.3776754E-06
   step length   :     0.0484698 a0     speed     :   0.5823887E-02

........................................................................
.............................. CYCLE   17 ..............................
........................................................................

 iter      E             dE          RMSdq      gap      omega  full diag
   1  -3478.5433592 -0.347854E+04  0.707E-03   10.91       0.0  T
   2  -3478.5433889 -0.297496E-04  0.406E-03   10.91       1.0  T
   3  -3478.5433891 -0.200589E-06  0.164E-03   10.91       1.1  T
   4  -3478.5433892 -0.108238E-06  0.159E-04   10.91      11.0  T
   5  -3478.5433893 -0.304608E-07  0.107E-04   10.91      16.4  T
     SCC iter.                  ...        4 min, 59.337 sec
     gradient                   ...        4 min, 23.923 sec
 * total energy  : -3427.3843307 Eh     change    :  -0.5743526E-02 Eh
   gradient norm :     0.0812159 Eh/a0  converged?    E=F G=F D=F
   time step     :     0.2214451 fs     power     :   0.2703664E-06
   step length   :     0.0587092 a0     speed     :   0.6412912E-02

........................................................................
.............................. CYCLE   18 ..............................
........................................................................

 iter      E             dE          RMSdq      gap      omega  full diag
   1  -3478.4193638 -0.347842E+04  0.810E-03   10.91       0.0  T
   2  -3478.4194035 -0.397461E-04  0.466E-03   10.91       1.0  T
   3  -3478.4194038 -0.264556E-06  0.190E-03   10.91       1.0  T
   4  -3478.4194039 -0.140539E-06  0.182E-04   10.91       9.6  T
   5  -3478.4194040 -0.401592E-07  0.120E-04   10.91      14.6  T
     SCC iter.                  ...        4 min, 53.000 sec
     gradient                   ...        4 min, 33.916 sec
 * total energy  : -3427.3880644 Eh     change    :  -0.3733727E-02 Eh
   gradient norm :     0.0476923 Eh/a0  converged?    E=F G=F D=F
   time step     :     0.2435896 fs     power     :   0.1145719E-06
   step length   :     0.0686029 a0     speed     :   0.6812381E-02

........................................................................
.............................. CYCLE   19 ..............................
........................................................................

 iter      E             dE          RMSdq      gap      omega  full diag
   1  -3478.2880308 -0.347829E+04  0.849E-03   10.91       0.0  T
   2  -3478.2880754 -0.445872E-04  0.490E-03   10.91       1.0  T
   3  -3478.2880757 -0.296171E-06  0.201E-03   10.91       1.0  T
   4  -3478.2880759 -0.151736E-06  0.191E-04   10.91       9.2  T
   5  -3478.2880759 -0.443265E-07  0.121E-04   10.91      14.4  T
     SCC iter.                  ...        4 min, 51.824 sec
     gradient                   ...        4 min, 23.816 sec
 * total energy  : -3427.3888459 Eh     change    :  -0.7814978E-03 Eh
   gradient norm :     0.0541079 Eh/a0  converged?    E=F G=F D=F
   time step     :     0.2679486 fs     power     :  -0.5132216E-07
   step length   :     0.0753247 a0     speed     :   0.6799873E-02

........................................................................
.............................. CYCLE   20 ..............................
........................................................................
 * reset velocities

 iter      E             dE          RMSdq      gap      omega  full diag
   1  -3478.2892357 -0.347829E+04  0.123E-04   10.91       0.0  T
   2  -3478.2892357 -0.619139E-08  0.800E-05   10.91      21.9  T
   3  -3478.2892357 -0.383625E-08  0.361E-05   10.91      48.6  T
     SCC iter.                  ...        2 min, 56.632 sec
     gradient                   ...        4 min, 22.919 sec
 * total energy  : -3427.3888951 Eh     change    :  -0.4910746E-04 Eh
   gradient norm :     0.0537310 Eh/a0  converged?    E=F G=F D=T
   time step     :     0.1339743 fs     power     :   0.4845760E-08
   step length   :     0.0009106 a0     speed     :   0.1644020E-03
 * RMSD in coord.:     0.0348094 a0     energy gain  -0.5779748E+00 Eh

........................................................................
.............................. CYCLE   21 ..............................
........................................................................

 iter      E             dE          RMSdq      gap      omega  full diag
   1  -3478.2953687 -0.347830E+04  0.554E-04   10.91       0.0  T
   2  -3478.2953687 -0.877380E-07  0.315E-04   10.91       5.6  T
   3  -3478.2953687 -0.835826E-09  0.861E-05   10.91      20.3  T
     SCC iter.                  ...        2 min, 56.793 sec
     gradient                   ...        4 min, 24.306 sec
 * total energy  : -3427.3891510 Eh     change    :  -0.2559686E-03 Eh
   gradient norm :     0.0519159 Eh/a0  converged?    E=F G=F D=F
   time step     :     0.2500000 fs     power     :   0.1334961E-07
   step length   :     0.0048477 a0     speed     :   0.4690417E-03

........................................................................
.............................. CYCLE   22 ..............................
........................................................................

 iter      E             dE          RMSdq      gap      omega  full diag
   1  -3478.3051693 -0.347831E+04  0.902E-04   10.91       0.0  T
   2  -3478.3051695 -0.224586E-06  0.514E-04   10.91       3.4  T
   3  -3478.3051695 -0.415366E-08  0.139E-04   10.91      12.6  T
     SCC iter.                  ...        2 min, 55.692 sec
     gradient                   ...        4 min, 24.523 sec
 * total energy  : -3427.3895491 Eh     change    :  -0.3981059E-03 Eh
   gradient norm :     0.0491578 Eh/a0  converged?    E=F G=F D=F
   time step     :     0.2500000 fs     power     :   0.2051902E-07
   step length   :     0.0078887 a0     speed     :   0.7632695E-03

........................................................................
.............................. CYCLE   23 ..............................
........................................................................

 iter      E             dE          RMSdq      gap      omega  full diag
   1  -3478.3181408 -0.347832E+04  0.121E-03   10.91       0.0  T
   2  -3478.3181412 -0.392720E-06  0.691E-04   10.91       2.5  T
   3  -3478.3181412 -0.989621E-08  0.184E-04   10.91       9.5  T
     SCC iter.                  ...        2 min, 57.441 sec
     gradient                   ...        4 min, 23.887 sec
 * total energy  : -3427.3900575 Eh     change    :  -0.5083740E-03 Eh
   gradient norm :     0.0457943 Eh/a0  converged?    E=F G=F D=F
   time step     :     0.2500000 fs     power     :   0.2590210E-07
   step length   :     0.0107617 a0     speed     :   0.1041254E-02

........................................................................
.............................. CYCLE   24 ..............................
........................................................................

 iter      E             dE          RMSdq      gap      omega  full diag
   1  -3478.3335866 -0.347833E+04  0.147E-03   10.91       0.0  T
   2  -3478.3335872 -0.552493E-06  0.842E-04   10.91       2.1  T
   3  -3478.3335872 -0.166924E-07  0.218E-04   10.91       8.0  T
     SCC iter.                  ...        2 min, 56.413 sec
     gradient                   ...        4 min, 24.880 sec
 * total energy  : -3427.3906404 Eh     change    :  -0.5828642E-03 Eh
   gradient norm :     0.0423016 Eh/a0  converged?    E=F G=F D=F
   time step     :     0.2500000 fs     power     :   0.2939011E-07
   step length   :     0.0134187 a0     speed     :   0.1298328E-02

........................................................................
.............................. CYCLE   25 ..............................
........................................................................

 iter      E             dE          RMSdq      gap      omega  full diag
   1  -3478.3506123 -0.347835E+04  0.168E-03   10.92       0.0  T
   2  -3478.3506130 -0.661821E-06  0.959E-04   10.91       1.8  T
   3  -3478.3506130 -0.235291E-07  0.238E-04   10.91       7.4  T
     SCC iter.                  ...        2 min, 57.264 sec
     gradient                   ...        4 min, 24.226 sec
 * total energy  : -3427.3912652 Eh     change    :  -0.6248312E-03 Eh
   gradient norm :     0.0392424 Eh/a0  converged?    E=F G=F D=F
   time step     :     0.2500000 fs     power     :   0.3126066E-07
   step length   :     0.0158262 a0     speed     :   0.1531268E-02

........................................................................
.............................. CYCLE   26 ..............................
........................................................................

 iter      E             dE          RMSdq      gap      omega  full diag
   1  -3478.3700394 -0.347837E+04  0.201E-03   10.92       0.0  T
   2  -3478.3700403 -0.840613E-06  0.115E-03   10.92       1.5  T
   3  -3478.3700403 -0.345262E-07  0.265E-04   10.91       6.6  T
   4  -3478.3700403 -0.140435E-07  0.683E-05   10.91      25.7  T
     SCC iter.                  ...        3 min, 55.331 sec
     gradient                   ...        4 min, 24.480 sec
 * total energy  : -3427.3919790 Eh     change    :  -0.7137803E-03 Eh
   gradient norm :     0.0369616 Eh/a0  converged?    E=F G=F D=F
   time step     :     0.2750000 fs     power     :   0.3214414E-07
   step length   :     0.0200090 a0     speed     :   0.1759982E-02

........................................................................
.............................. CYCLE   27 ..............................
........................................................................

 iter      E             dE          RMSdq      gap      omega  full diag
   1  -3478.3905600 -0.347839E+04  0.230E-03   10.92       0.0  T
   2  -3478.3905609 -0.910767E-06  0.132E-03   10.92       1.3  T
   3  -3478.3905610 -0.424079E-07  0.272E-04   10.92       6.4  T
   4  -3478.3905610 -0.176124E-07  0.752E-05   10.91      23.3  T
     SCC iter.                  ...        3 min, 57.099 sec
     gradient                   ...        4 min, 26.579 sec
 * total energy  : -3427.3927820 Eh     change    :  -0.8030252E-03 Eh
   gradient norm :     0.0360680 Eh/a0  converged?    E=F G=F D=F
   time step     :     0.3025000 fs     power     :   0.3278544E-07
   step length   :     0.0247593 a0     speed     :   0.1979832E-02

........................................................................
.............................. CYCLE   28 ..............................
........................................................................

 iter      E             dE          RMSdq      gap      omega  full diag
   1  -3478.4100107 -0.347841E+04  0.252E-03   10.92       0.0  T
   2  -3478.4100114 -0.766121E-06  0.145E-03   10.92       1.2  T
   3  -3478.4100115 -0.518862E-07  0.243E-04   10.92       7.2  T
   4  -3478.4100115 -0.202285E-07  0.817E-05   10.92      21.4  T
     SCC iter.                  ...        3 min, 54.959 sec
     gradient                   ...        4 min, 25.456 sec
 * total energy  : -3427.3936997 Eh     change    :  -0.9177054E-03 Eh
   gradient norm :     0.0364823 Eh/a0  converged?    E=F G=F D=F
   time step     :     0.3327500 fs     power     :   0.3436810E-07
   step length   :     0.0301388 a0     speed     :   0.2190901E-02

........................................................................
.............................. CYCLE   29 ..............................
........................................................................

 iter      E             dE          RMSdq      gap      omega  full diag
   1  -3478.4256321 -0.347843E+04  0.266E-03   10.92       0.0  T
   2  -3478.4256325 -0.462979E-06  0.154E-03   10.92       1.1  T
   3  -3478.4256326 -0.579930E-07  0.187E-04   10.92       9.3  T
   4  -3478.4256326 -0.218538E-07  0.846E-05   10.92      20.7  T
     SCC iter.                  ...        3 min, 59.139 sec
     gradient                   ...        4 min, 24.716 sec
 * total energy  : -3427.3947911 Eh     change    :  -0.1091370E-02 Eh
   gradient norm :     0.0371063 Eh/a0  converged?    E=F G=F D=F
   time step     :     0.3660250 fs     power     :   0.3776273E-07
   step length   :     0.0363730 a0     speed     :   0.2403720E-02

........................................................................
.............................. CYCLE   30 ..............................
........................................................................

 iter      E             dE          RMSdq      gap      omega  full diag
   1  -3478.4346654 -0.347843E+04  0.280E-03   10.92       0.0  T
   2  -3478.4346656 -0.258064E-06  0.164E-03   10.92       1.1  T
   3  -3478.4346657 -0.579785E-07  0.149E-04   10.92      11.7  T
   4  -3478.4346657 -0.241671E-07  0.830E-05   10.92      21.1  T
     SCC iter.                  ...        4 min,  3.956 sec
     gradient                   ...        4 min, 23.767 sec
 * total energy  : -3427.3961308 Eh     change    :  -0.1339762E-02 Eh
   gradient norm :     0.0363815 Eh/a0  converged?    E=F G=F D=F
   time step     :     0.4026275 fs     power     :   0.4256377E-07
   step length   :     0.0439020 a0     speed     :   0.2637521E-02

........................................................................
.............................. CYCLE   31 ..............................
........................................................................

 iter      E             dE          RMSdq      gap      omega  full diag
   1  -3478.4352394 -0.347844E+04  0.306E-03   10.92       0.0  T
   2  -3478.4352399 -0.543641E-06  0.181E-03   10.92       1.0  T
   3  -3478.4352400 -0.533328E-07  0.168E-04   10.92      10.4  T
   4  -3478.4352400 -0.274304E-07  0.752E-05   10.92      23.3  T
     SCC iter.                  ...        3 min, 58.901 sec
     gradient                   ...        4 min, 27.833 sec
 * total energy  : -3427.3977577 Eh     change    :  -0.1626830E-02 Eh
   gradient norm :     0.0332678 Eh/a0  converged?    E=F G=F D=F
   time step     :     0.4428903 fs     power     :   0.4666451E-07
   step length   :     0.0532388 a0     speed     :   0.2907683E-02

........................................................................
.............................. CYCLE   32 ..............................
........................................................................

 iter      E             dE          RMSdq      gap      omega  full diag
   1  -3478.4278952 -0.347843E+04  0.352E-03   10.92       0.0  T
   2  -3478.4278967 -0.150382E-05  0.210E-03   10.92       1.0  T
   3  -3478.4278968 -0.585683E-07  0.273E-04   10.92       6.4  T
   4  -3478.4278968 -0.303339E-07  0.748E-05   10.92      23.4  T
     SCC iter.                  ...        3 min, 59.476 sec
     gradient                   ...        4 min, 25.262 sec
 * total energy  : -3427.3996159 Eh     change    :  -0.1858225E-02 Eh
   gradient norm :     0.0285245 Eh/a0  converged?    E=F G=F D=F
   time step     :     0.4871793 fs     power     :   0.4724472E-07
   step length   :     0.0647006 a0     speed     :   0.3212439E-02

........................................................................
.............................. CYCLE   33 ..............................
........................................................................

 iter      E             dE          RMSdq      gap      omega  full diag
   1  -3478.4179502 -0.347842E+04  0.405E-03   10.92       0.0  T
   2  -3478.4179526 -0.243967E-05  0.244E-03   10.92       1.0  T
   3  -3478.4179527 -0.690698E-07  0.354E-04   10.92       4.9  T
   4  -3478.4179527 -0.329319E-07  0.772E-05   10.92      22.7  T
     SCC iter.                  ...        3 min, 55.708 sec
     gradient                   ...        4 min, 34.309 sec
 * total energy  : -3427.4015680 Eh     change    :  -0.1952072E-02 Eh
   gradient norm :     0.0256915 Eh/a0  converged?    E=F G=F D=F
   time step     :     0.5358972 fs     power     :   0.4371254E-07
   step length   :     0.0781434 a0     speed     :   0.3527166E-02

........................................................................
.............................. CYCLE   34 ..............................
........................................................................

 iter      E             dE          RMSdq      gap      omega  full diag
   1  -3478.4175814 -0.347842E+04  0.450E-03   10.92       0.0  T
   2  -3478.4175833 -0.186198E-05  0.271E-03   10.92       1.0  T
   3  -3478.4175833 -0.841587E-07  0.260E-04   10.92       6.7  T
   4  -3478.4175834 -0.327263E-07  0.802E-05   10.92      21.9  T
     SCC iter.                  ...        4 min,  1.865 sec
     gradient                   ...        4 min, 25.911 sec
 * total energy  : -3427.4035525 Eh     change    :  -0.1984498E-02 Eh
   gradient norm :     0.0267547 Eh/a0  converged?    E=F G=F D=F
   time step     :     0.5894869 fs     power     :   0.4022981E-07
   step length   :     0.0926866 a0     speed     :   0.3803278E-02

........................................................................
.............................. CYCLE   35 ..............................
........................................................................

 iter      E             dE          RMSdq      gap      omega  full diag
   1  -3478.4406854 -0.347844E+04  0.507E-03   10.92       0.0  T
   2  -3478.4406859 -0.439511E-06  0.300E-03   10.92       1.0  T
   3  -3478.4406860 -0.117402E-06  0.157E-04   10.92      11.2  T
   4  -3478.4406860 -0.221344E-07  0.887E-05   10.92      19.7  T
     SCC iter.                  ...        3 min, 58.570 sec
     gradient                   ...        4 min, 24.359 sec
 * total energy  : -3427.4056963 Eh     change    :  -0.2143794E-02 Eh
   gradient norm :     0.0265446 Eh/a0  converged?    E=F G=F D=F
   time step     :     0.6484356 fs     power     :   0.4030286E-07
   step length   :     0.1078379 a0     speed     :   0.4022719E-02

........................................................................
.............................. CYCLE   36 ..............................
........................................................................

 iter      E             dE          RMSdq      gap      omega  full diag
   1  -3478.4934106 -0.347849E+04  0.609E-03   10.93       0.0  T
   2  -3478.4934119 -0.127412E-05  0.352E-03   10.93       1.0  T
   3  -3478.4934121 -0.162163E-06  0.245E-04   10.93       7.1  T
   4  -3478.4934121 -0.217465E-07  0.105E-04   10.93      16.8  T
     SCC iter.                  ...        3 min, 53.678 sec
     gradient                   ...        4 min, 23.392 sec
 * total energy  : -3427.4080527 Eh     change    :  -0.2356489E-02 Eh
   gradient norm :     0.0222582 Eh/a0  converged?    E=F G=F D=F
   time step     :     0.7132792 fs     power     :   0.3943582E-07
   step length   :     0.1251430 a0     speed     :   0.4243871E-02

........................................................................
.............................. CYCLE   37 ..............................
........................................................................

 iter      E             dE          RMSdq      gap      omega  full diag
   1  -3478.5642561 -0.347856E+04  0.695E-03   10.93       0.0  T
   2  -3478.5642593 -0.326498E-05  0.398E-03   10.93       1.0  T
   3  -3478.5642595 -0.179616E-06  0.421E-04   10.93       4.2  T
   4  -3478.5642596 -0.344098E-07  0.112E-04   10.93      15.6  T
     SCC iter.                  ...        4 min,  2.296 sec
     gradient                   ...        4 min, 24.126 sec
 * total energy  : -3427.4104011 Eh     change    :  -0.2348345E-02 Eh
   gradient norm :     0.0218346 Eh/a0  converged?    E=F G=F D=F
   time step     :     0.7846071 fs     power     :   0.3401273E-07
   step length   :     0.1454087 a0     speed     :   0.4482841E-02

........................................................................
.............................. CYCLE   38 ..............................
........................................................................

 iter      E             dE          RMSdq      gap      omega  full diag
   1  -3478.6173887 -0.347862E+04  0.654E-03   10.94       0.0  T
   2  -3478.6173896 -0.969957E-06  0.380E-03   10.94       1.0  T
   3  -3478.6173898 -0.153297E-06  0.210E-04   10.94       8.3  T
   4  -3478.6173898 -0.195155E-07  0.911E-05   10.94      19.2  T
     SCC iter.                  ...        3 min, 56.510 sec
     gradient                   ...        4 min, 23.645 sec
 * total energy  : -3427.4128046 Eh     change    :  -0.2403487E-02 Eh
   gradient norm :     0.0242993 Eh/a0  converged?    E=F G=F D=F
   time step     :     0.8630678 fs     power     :   0.3301193E-07
   step length   :     0.1659812 a0     speed     :   0.4651887E-02

........................................................................
.............................. CYCLE   39 ..............................
........................................................................

 iter      E             dE          RMSdq      gap      omega  full diag
   1  -3478.6277373 -0.347863E+04  0.602E-03   10.94       0.0  T
   2  -3478.6277394 -0.211003E-05  0.361E-03   10.94       1.0  T
   3  -3478.6277395 -0.187306E-06  0.243E-04   10.94       7.2  T
   4  -3478.6277396 -0.274567E-07  0.114E-04   10.94      15.3  T
     SCC iter.                  ...        3 min, 58.215 sec
     gradient                   ...        4 min, 23.628 sec
 * total energy  : -3427.4155552 Eh     change    :  -0.2750643E-02 Eh
   gradient norm :     0.0208271 Eh/a0  converged?    E=F G=F D=F
   time step     :     0.9493746 fs     power     :   0.3435442E-07
   step length   :     0.1885751 a0     speed     :   0.4804650E-02

........................................................................
.............................. CYCLE   40 ..............................
........................................................................

 iter      E             dE          RMSdq      gap      omega  full diag
   1  -3478.6127622 -0.347861E+04  0.613E-03   10.95       0.0  T
   2  -3478.6127676 -0.533765E-05  0.370E-03   10.95       1.0  T
   3  -3478.6127678 -0.282649E-06  0.493E-04   10.95       3.6  T
   4  -3478.6127679 -0.604205E-07  0.163E-04   10.95      10.7  T
     SCC iter.                  ...        4 min,  2.197 sec
     gradient                   ...        4 min, 22.903 sec
 * total energy  : -3427.4184590 Eh     change    :  -0.2903775E-02 Eh
   gradient norm :     0.0231089 Eh/a0  converged?    E=F G=F D=F
   time step     :     1.0443120 fs     power     :   0.3200450E-07
   step length   :     0.2162031 a0     speed     :   0.5007796E-02

........................................................................
.............................. CYCLE   41 ..............................
........................................................................

 iter      E             dE          RMSdq      gap      omega  full diag
   1  -3478.6299877 -0.347863E+04  0.697E-03   10.96       0.0  T
   2  -3478.6299886 -0.854732E-06  0.409E-03   10.96       1.0  T
   3  -3478.6299889 -0.270482E-06  0.238E-04   10.96       7.4  T
   4  -3478.6299889 -0.336013E-07  0.145E-04   10.96      12.1  T
     SCC iter.                  ...        4 min,  2.501 sec
     gradient                   ...        4 min, 24.853 sec
 * total energy  : -3427.4218497 Eh     change    :  -0.3390654E-02 Eh
   gradient norm :     0.0211822 Eh/a0  converged?    E=F G=F D=F
   time step     :     1.1487432 fs     power     :   0.3599004E-07
   step length   :     0.2457721 a0     speed     :   0.5175172E-02

........................................................................
.............................. CYCLE   42 ..............................
........................................................................

 iter      E             dE          RMSdq      gap      omega  full diag
   1  -3478.6779609 -0.347868E+04  0.870E-03   10.97       0.0  T
   2  -3478.6779650 -0.401321E-05  0.504E-03   10.97       1.0  T
   3  -3478.6779652 -0.248986E-06  0.411E-04   10.97       4.3  T
   4  -3478.6779653 -0.434457E-07  0.124E-04   10.97      14.1  T
     SCC iter.                  ...        3 min, 53.267 sec
     gradient                   ...        4 min, 26.034 sec
 * total energy  : -3427.4255711 Eh     change    :  -0.3721417E-02 Eh
   gradient norm :     0.0215209 Eh/a0  converged?    E=F G=F D=F
   time step     :     1.2500000 fs     power     :   0.3399363E-07
   step length   :     0.2801994 a0     speed     :   0.5422160E-02
 * RMSD in coord.:     0.0320012 a0     energy gain  -0.3667601E-01 Eh

........................................................................
.............................. CYCLE   43 ..............................
........................................................................

 iter      E             dE          RMSdq      gap      omega  full diag
   1  -3478.6806599 -0.347868E+04  0.140E-03   10.97       0.0  T
   2  -3478.6806599 -0.372797E-07  0.820E-04   10.97       2.1  T
   3  -3478.6806599 -0.111199E-07  0.510E-05   10.97      34.3  T
     SCC iter.                  ...        2 min, 55.799 sec
     gradient                   ...        4 min, 23.472 sec
 * total energy  : -3427.4262837 Eh     change    :  -0.7126463E-03 Eh
   gradient norm :     0.0215123 Eh/a0  converged?    E=F G=F D=F
   time step     :     0.2500000 fs     power     :   0.3722139E-07
   step length   :     0.0543935 a0     speed     :   0.5262860E-02

........................................................................
.............................. CYCLE   44 ..............................
........................................................................

 iter      E             dE          RMSdq      gap      omega  full diag
   1  -3478.6771746 -0.347868E+04  0.132E-03   10.98       0.0  T
   2  -3478.6771748 -0.165736E-06  0.780E-04   10.98       2.2  T
   3  -3478.6771748 -0.117493E-07  0.848E-05   10.98      20.7  T
     SCC iter.                  ...        2 min, 55.111 sec
     gradient                   ...        4 min, 24.923 sec
 * total energy  : -3427.4270441 Eh     change    :  -0.7604205E-03 Eh
   gradient norm :     0.0199340 Eh/a0  converged?    E=F G=F D=F
   time step     :     0.2500000 fs     power     :   0.3957099E-07
   step length   :     0.0532402 a0     speed     :   0.5151280E-02

........................................................................
.............................. CYCLE   45 ..............................
........................................................................

 iter      E             dE          RMSdq      gap      omega  full diag
   1  -3478.6692591 -0.347867E+04  0.145E-03   10.98       0.0  T
   2  -3478.6692595 -0.403764E-06  0.849E-04   10.98       2.1  T
   3  -3478.6692596 -0.146520E-07  0.160E-04   10.98      11.0  T
     SCC iter.                  ...        2 min, 57.137 sec
     gradient                   ...        4 min, 23.722 sec
 * total energy  : -3427.4278200 Eh     change    :  -0.7758421E-03 Eh
   gradient norm :     0.0178171 Eh/a0  converged?    E=F G=F D=F
   time step     :     0.2500000 fs     power     :   0.3986903E-07
   step length   :     0.0526798 a0     speed     :   0.5097051E-02

........................................................................
.............................. CYCLE   46 ..............................
........................................................................

 iter      E             dE          RMSdq      gap      omega  full diag
   1  -3478.6597599 -0.347866E+04  0.157E-03   10.98       0.0  T
   2  -3478.6597604 -0.525939E-06  0.921E-04   10.98       1.9  T
   3  -3478.6597604 -0.163473E-07  0.188E-04   10.98       9.3  T
     SCC iter.                  ...        2 min, 56.840 sec
     gradient                   ...        4 min, 25.559 sec
 * total energy  : -3427.4285778 Eh     change    :  -0.7578504E-03 Eh
   gradient norm :     0.0166646 Eh/a0  converged?    E=F G=F D=F
   time step     :     0.2500000 fs     power     :   0.3858785E-07
   step length   :     0.0525995 a0     speed     :   0.5089286E-02

........................................................................
.............................. CYCLE   47 ..............................
........................................................................

 iter      E             dE          RMSdq      gap      omega  full diag
   1  -3478.6522196 -0.347865E+04  0.159E-03   10.98       0.0  T
   2  -3478.6522200 -0.397511E-06  0.932E-04   10.98       1.9  T
   3  -3478.6522200 -0.151058E-07  0.151E-04   10.98      11.6  T
     SCC iter.                  ...        2 min, 56.481 sec
     gradient                   ...        4 min, 25.356 sec
 * total energy  : -3427.4293092 Eh     change    :  -0.7313482E-03 Eh
   gradient norm :     0.0168988 Eh/a0  converged?    E=F G=F D=F
   time step     :     0.2500000 fs     power     :   0.3737279E-07
   step length   :     0.0526275 a0     speed     :   0.5091993E-02

........................................................................
.............................. CYCLE   48 ..............................
........................................................................

 iter      E             dE          RMSdq      gap      omega  full diag
   1  -3478.6491822 -0.347865E+04  0.170E-03   10.98       0.0  T
   2  -3478.6491824 -0.191120E-06  0.995E-04   10.98       1.8  T
   3  -3478.6491824 -0.141986E-07  0.846E-05   10.98      20.7  T
     SCC iter.                  ...        2 min, 56.377 sec
     gradient                   ...        4 min, 24.216 sec
 * total energy  : -3427.4301016 Eh     change    :  -0.7924267E-03 Eh
   gradient norm :     0.0173634 Eh/a0  converged?    E=F G=F D=F
   time step     :     0.2750000 fs     power     :   0.3713484E-07
   step length   :     0.0577910 a0     speed     :   0.5083262E-02

........................................................................
.............................. CYCLE   49 ..............................
........................................................................

 iter      E             dE          RMSdq      gap      omega  full diag
   1  -3478.6531155 -0.347865E+04  0.187E-03   10.99       0.0  T
   2  -3478.6531155 -0.567661E-07  0.109E-03   10.99       1.6  T
   3  -3478.6531155 -0.152149E-07  0.536E-05   10.99      32.7  T
   4  -3478.6531155 -0.324326E-08  0.270E-05   10.99      64.8  T
     SCC iter.                  ...        4 min,  2.502 sec
     gradient                   ...        4 min, 25.636 sec
 * total energy  : -3427.4309772 Eh     change    :  -0.8756318E-03 Eh
   gradient norm :     0.0167073 Eh/a0  converged?    E=F G=F D=F
   time step     :     0.3025000 fs     power     :   0.3742668E-07
   step length   :     0.0634428 a0     speed     :   0.5073083E-02

........................................................................
.............................. CYCLE   50 ..............................
........................................................................

 iter      E             dE          RMSdq      gap      omega  full diag
   1  -3478.6647476 -0.347866E+04  0.215E-03   10.99       0.0  T
   2  -3478.6647478 -0.204612E-06  0.125E-03   10.99       1.4  T
   3  -3478.6647478 -0.203513E-07  0.914E-05   10.99      19.2  T
   4  -3478.6647478 -0.453656E-08  0.348E-05   10.99      50.4  T
     SCC iter.                  ...        3 min, 55.917 sec
     gradient                   ...        4 min, 23.340 sec
 * total energy  : -3427.4319331 Eh     change    :  -0.9558348E-03 Eh
   gradient norm :     0.0148161 Eh/a0  converged?    E=F G=F D=F
   time step     :     0.3327500 fs     power     :   0.3676105E-07
   step length   :     0.0700340 a0     speed     :   0.5091035E-02

........................................................................
.............................. CYCLE   51 ..............................
........................................................................

 iter      E             dE          RMSdq      gap      omega  full diag
   1  -3478.6818183 -0.347868E+04  0.243E-03   10.99       0.0  T
   2  -3478.6818188 -0.499031E-06  0.141E-03   10.99       1.2  T
   3  -3478.6818188 -0.279215E-07  0.158E-04   10.99      11.1  T
   4  -3478.6818189 -0.637465E-08  0.450E-05   10.99      39.0  T
     SCC iter.                  ...        3 min, 55.094 sec
     gradient                   ...        4 min, 23.463 sec
 * total energy  : -3427.4329357 Eh     change    :  -0.1002596E-02 Eh
   gradient norm :     0.0135943 Eh/a0  converged?    E=F G=F D=F
   time step     :     0.3660250 fs     power     :   0.3447365E-07
   step length   :     0.0779745 a0     speed     :   0.5152959E-02

........................................................................
.............................. CYCLE   52 ..............................
........................................................................

 iter      E             dE          RMSdq      gap      omega  full diag
   1  -3478.6974605 -0.347870E+04  0.247E-03   10.99       0.0  T
   2  -3478.6974609 -0.414950E-06  0.144E-03   10.99       1.2  T
   3  -3478.6974610 -0.303780E-07  0.137E-04   10.99      12.8  T
   4  -3478.6974610 -0.629052E-08  0.454E-05   10.99      38.6  T
     SCC iter.                  ...        3 min, 59.803 sec
     gradient                   ...        4 min, 24.344 sec
 * total energy  : -3427.4339694 Eh     change    :  -0.1033703E-02 Eh
   gradient norm :     0.0143815 Eh/a0  converged?    E=F G=F D=F
   time step     :     0.4026275 fs     power     :   0.3235038E-07
   step length   :     0.0868969 a0     speed     :   0.5220547E-02

........................................................................
.............................. CYCLE   53 ..............................
........................................................................

 iter      E             dE          RMSdq      gap      omega  full diag
   1  -3478.7038444 -0.347870E+04  0.234E-03   10.99       0.0  T
   2  -3478.7038445 -0.106700E-06  0.137E-03   10.99       1.3  T
   3  -3478.7038445 -0.288201E-07  0.751E-05   10.99      23.3  T
   4  -3478.7038445 -0.496357E-08  0.402E-05   10.99      43.6  T
     SCC iter.                  ...        3 min, 53.540 sec
     gradient                   ...        4 min, 25.785 sec
 * total energy  : -3427.4350739 Eh     change    :  -0.1104505E-02 Eh
   gradient norm :     0.0145524 Eh/a0  converged?    E=F G=F D=F
   time step     :     0.4428903 fs     power     :   0.3184736E-07
   step length   :     0.0959889 a0     speed     :   0.5242519E-02

........................................................................
.............................. CYCLE   54 ..............................
........................................................................

 iter      E             dE          RMSdq      gap      omega  full diag
   1  -3478.6977430 -0.347870E+04  0.237E-03   11.00       0.0  T
   2  -3478.6977434 -0.395735E-06  0.140E-03   11.00       1.3  T
   3  -3478.6977434 -0.355221E-07  0.119E-04   11.00      14.7  T
   4  -3478.6977434 -0.660157E-08  0.484E-05   11.00      36.2  T
     SCC iter.                  ...        3 min, 57.951 sec
     gradient                   ...        4 min, 24.154 sec
 * total energy  : -3427.4362716 Eh     change    :  -0.1197697E-02 Eh
   gradient norm :     0.0129543 Eh/a0  converged?    E=F G=F D=F
   time step     :     0.4871793 fs     power     :   0.3117019E-07
   step length   :     0.1060211 a0     speed     :   0.5264032E-02

........................................................................
.............................. CYCLE   55 ..............................
........................................................................

 iter      E             dE          RMSdq      gap      omega  full diag
   1  -3478.6841427 -0.347868E+04  0.249E-03   11.00       0.0  T
   2  -3478.6841436 -0.927669E-06  0.147E-03   11.00       1.2  T
   3  -3478.6841436 -0.493933E-07  0.223E-04   11.00       7.9  T
   4  -3478.6841436 -0.106938E-07  0.652E-05   11.00      26.9  T
     SCC iter.                  ...        4 min,  1.498 sec
     gradient                   ...        4 min, 24.515 sec
 * total energy  : -3427.4375265 Eh     change    :  -0.1254884E-02 Eh
   gradient norm :     0.0129373 Eh/a0  converged?    E=F G=F D=F
   time step     :     0.5358972 fs     power     :   0.2926983E-07
   step length   :     0.1179842 a0     speed     :   0.5325466E-02

........................................................................
.............................. CYCLE   56 ..............................
........................................................................

 iter      E             dE          RMSdq      gap      omega  full diag
   1  -3478.6778845 -0.347868E+04  0.241E-03   11.00       0.0  T
   2  -3478.6778849 -0.409151E-06  0.143E-03   11.00       1.2  T
   3  -3478.6778849 -0.501122E-07  0.136E-04   11.00      12.9  T
   4  -3478.6778850 -0.919772E-08  0.652E-05   11.00      26.9  T
     SCC iter.                  ...        3 min, 54.045 sec
     gradient                   ...        4 min, 24.066 sec
 * total energy  : -3427.4388615 Eh     change    :  -0.1335052E-02 Eh
   gradient norm :     0.0138615 Eh/a0  converged?    E=F G=F D=F
   time step     :     0.5894869 fs     power     :   0.2882471E-07
   step length   :     0.1307473 a0     speed     :   0.5365049E-02

........................................................................
.............................. CYCLE   57 ..............................
........................................................................

 iter      E             dE          RMSdq      gap      omega  full diag
   1  -3478.6890716 -0.347869E+04  0.279E-03   11.01       0.0  T
   2  -3478.6890719 -0.288399E-06  0.163E-03   11.01       1.1  T
   3  -3478.6890719 -0.399054E-07  0.134E-04   11.01      13.0  T
   4  -3478.6890720 -0.106525E-07  0.571E-05   11.01      30.7  T
     SCC iter.                  ...        4 min,  3.073 sec
     gradient                   ...        4 min, 23.119 sec
 * total energy  : -3427.4403371 Eh     change    :  -0.1475546E-02 Eh
   gradient norm :     0.0123540 Eh/a0  converged?    E=F G=F D=F
   time step     :     0.6484356 fs     power     :   0.2892677E-07
   step length   :     0.1444288 a0     speed     :   0.5387682E-02

........................................................................
.............................. CYCLE   58 ..............................
........................................................................

 iter      E             dE          RMSdq      gap      omega  full diag
   1  -3478.7128364 -0.347871E+04  0.332E-03   11.01       0.0  T
   2  -3478.7128372 -0.757101E-06  0.192E-03   11.01       1.0  T
   3  -3478.7128372 -0.392579E-07  0.212E-04   11.01       8.3  T
   4  -3478.7128372 -0.122882E-07  0.559E-05   11.01      31.3  T
     SCC iter.                  ...        3 min, 50.323 sec
     gradient                   ...        4 min, 23.601 sec
 * total energy  : -3427.4419120 Eh     change    :  -0.1574975E-02 Eh
   gradient norm :     0.0126855 Eh/a0  converged?    E=F G=F D=F
   time step     :     0.7132792 fs     power     :   0.2763338E-07
   step length   :     0.1610303 a0     speed     :   0.5460887E-02

........................................................................
.............................. CYCLE   59 ..............................
........................................................................

 iter      E             dE          RMSdq      gap      omega  full diag
   1  -3478.7277803 -0.347873E+04  0.312E-03   11.02       0.0  T
   2  -3478.7277806 -0.201416E-06  0.185E-03   11.02       1.0  T
   3  -3478.7277806 -0.493810E-07  0.117E-04   11.02      15.0  T
   4  -3478.7277806 -0.953924E-08  0.655E-05   11.02      26.8  T
     SCC iter.                  ...        3 min, 50.740 sec
     gradient                   ...        4 min, 24.464 sec
 * total energy  : -3427.4436280 Eh     change    :  -0.1715983E-02 Eh
   gradient norm :     0.0124768 Eh/a0  converged?    E=F G=F D=F
   time step     :     0.7846071 fs     power     :   0.2790770E-07
   step length   :     0.1788396 a0     speed     :   0.5513490E-02

........................................................................
.............................. CYCLE   60 ..............................
........................................................................

 iter      E             dE          RMSdq      gap      omega  full diag
   1  -3478.7286452 -0.347873E+04  0.328E-03   11.02       0.0  T
   2  -3478.7286466 -0.133642E-05  0.199E-03   11.02       1.0  T
   3  -3478.7286466 -0.704413E-07  0.239E-04   11.02       7.3  T
   4  -3478.7286466 -0.176597E-07  0.837E-05   11.02      20.9  T
     SCC iter.                  ...        3 min, 51.003 sec
     gradient                   ...        4 min, 27.154 sec
 * total energy  : -3427.4454925 Eh     change    :  -0.1864485E-02 Eh
   gradient norm :     0.0113029 Eh/a0  converged?    E=F G=F D=F
   time step     :     0.8630678 fs     power     :   0.2687597E-07
   step length   :     0.1994042 a0     speed     :   0.5588618E-02

........................................................................
.............................. CYCLE   61 ..............................
........................................................................

 iter      E             dE          RMSdq      gap      omega  full diag
   1  -3478.7450688 -0.347875E+04  0.376E-03   11.03       0.0  T
   2  -3478.7450692 -0.392361E-06  0.225E-03   11.03       1.0  T
   3  -3478.7450693 -0.589621E-07  0.128E-04   11.03      13.7  T
   4  -3478.7450693 -0.115492E-07  0.672E-05   11.03      26.1  T
     SCC iter.                  ...        3 min, 52.513 sec
     gradient                   ...        4 min, 24.658 sec
 * total energy  : -3427.4474713 Eh     change    :  -0.1978764E-02 Eh
   gradient norm :     0.0112945 Eh/a0  converged?    E=F G=F D=F
   time step     :     0.9493746 fs     power     :   0.2625153E-07
   step length   :     0.2231748 a0     speed     :   0.5686208E-02

........................................................................
.............................. CYCLE   62 ..............................
........................................................................

 iter      E             dE          RMSdq      gap      omega  full diag
   1  -3478.7889955 -0.347879E+04  0.530E-03   11.04       0.0  T
   2  -3478.7889968 -0.123928E-05  0.306E-03   11.04       1.0  T
   3  -3478.7889968 -0.746340E-07  0.250E-04   11.04       7.0  T
   4  -3478.7889968 -0.155014E-07  0.708E-05   11.04      24.7  T
     SCC iter.                  ...        3 min, 55.155 sec
     gradient                   ...        4 min, 29.754 sec
 * total energy  : -3427.4495554 Eh     change    :  -0.2084112E-02 Eh
   gradient norm :     0.0104636 Eh/a0  converged?    E=F G=F D=F
   time step     :     1.0443120 fs     power     :   0.2427704E-07
   step length   :     0.2496264 a0     speed     :   0.5781964E-02

........................................................................
.............................. CYCLE   63 ..............................
........................................................................

 iter      E             dE          RMSdq      gap      omega  full diag
   1  -3478.8052928 -0.347881E+04  0.499E-03   11.05       0.0  T
   2  -3478.8052935 -0.699223E-06  0.296E-03   11.05       1.0  T
   3  -3478.8052936 -0.660643E-07  0.159E-04   11.05      11.0  T
   4  -3478.8052936 -0.244449E-07  0.691E-05   11.05      25.3  T
     SCC iter.                  ...        3 min, 51.131 sec
     gradient                   ...        4 min, 23.360 sec
 * total energy  : -3427.4517024 Eh     change    :  -0.2147070E-02 Eh
   gradient norm :     0.0092279 Eh/a0  converged?    E=F G=F D=F
   time step     :     1.1487432 fs     power     :   0.2299638E-07
   step length   :     0.2788340 a0     speed     :   0.5871348E-02

........................................................................
.............................. CYCLE   64 ..............................
........................................................................

 iter      E             dE          RMSdq      gap      omega  full diag
   1  -3478.8018187 -0.347880E+04  0.502E-03   11.06       0.0  T
   2  -3478.8018205 -0.184872E-05  0.301E-03   11.06       1.0  T
   3  -3478.8018206 -0.678947E-07  0.238E-04   11.06       7.4  T
   4  -3478.8018206 -0.296604E-07  0.757E-05   11.06      23.1  T
     SCC iter.                  ...        3 min, 53.113 sec
     gradient                   ...        4 min, 29.401 sec
 * total energy  : -3427.4538431 Eh     change    :  -0.2140687E-02 Eh
   gradient norm :     0.0107982 Eh/a0  converged?    E=F G=F D=F
   time step     :     1.2500000 fs     power     :   0.2055731E-07
   step length   :     0.3090329 a0     speed     :   0.5980119E-02

........................................................................
.............................. CYCLE   65 ..............................
........................................................................

 iter      E             dE          RMSdq      gap      omega  full diag
   1  -3478.8425132 -0.347884E+04  0.614E-03   11.07       0.0  T
   2  -3478.8425151 -0.193029E-05  0.355E-03   11.07       1.0  T
   3  -3478.8425152 -0.692876E-07  0.313E-04   11.07       5.6  T
   4  -3478.8425152 -0.306404E-07  0.750E-05   11.07      23.4  T
     SCC iter.                  ...        3 min, 51.652 sec
     gradient                   ...        4 min, 26.951 sec
 * total energy  : -3427.4558403 Eh     change    :  -0.1997207E-02 Eh
   gradient norm :     0.0104550 Eh/a0  converged?    E=F G=F D=F
   time step     :     1.2500000 fs     power     :   0.1877787E-07
   step length   :     0.3091664 a0     speed     :   0.5982703E-02

........................................................................
.............................. CYCLE   66 ..............................
........................................................................

 iter      E             dE          RMSdq      gap      omega  full diag
   1  -3478.8442573 -0.347884E+04  0.450E-03   11.08       0.0  T
   2  -3478.8442587 -0.136071E-05  0.269E-03   11.08       1.0  T
   3  -3478.8442587 -0.703071E-07  0.209E-04   11.08       8.4  T
   4  -3478.8442588 -0.234809E-07  0.817E-05   11.08      21.4  T
     SCC iter.                  ...        4 min,  3.625 sec
     gradient                   ...        4 min, 26.818 sec
 * total energy  : -3427.4577345 Eh     change    :  -0.1894155E-02 Eh
   gradient norm :     0.0087995 Eh/a0  converged?    E=F G=F D=F
   time step     :     1.2500000 fs     power     :   0.1844100E-07
[...]
  3011   6 C     3012   6 C                                       1.5260230
  3012   6 C     3013   6 C                                       1.5259500
  3013   6 C     3014   6 C                                       1.5260473
  3014   6 C     3015   6 C                                       1.5256051
  3015   6 C     3016   6 C                                       1.5232755
  3015   6 C     3017   1 H                                       1.0921866
  3015   6 C     3018   1 H                                       1.0926979
  3014   6 C     3019   1 H                                       1.0926854
  3014   6 C     3020   1 H                                       1.0929562
  3013   6 C     3021   1 H                                       1.0922508
  3013   6 C     3022   1 H                                       1.0932749
  3012   6 C     3023   1 H                                       1.0921265
  3012   6 C     3024   1 H                                       1.0934446
  3011   6 C     3025   1 H                                       1.0917903
  3011   6 C     3026   1 H                                       1.0912921
  3010   6 C     3027   1 H                                       1.0931835
  3010   6 C     3028   1 H                                       1.0933445
  3009   6 C     3029   1 H                                       1.0919871
  3009   6 C     3030   1 H                                       1.0929023
  3008   6 C     3031   1 H                                       1.0926764
  3008   6 C     3032   1 H                                       1.0932254
  3007   6 C     3033   1 H                                       1.0921737
  3007   6 C     3034   1 H                                       1.0927589
  3006   6 C     3035   1 H                                       1.0920544
  3006   6 C     3036   1 H                                       1.0932671
  3005   6 C     3037   1 H                                       1.0923698
  3005   6 C     3038   1 H                                       1.0914080
  3004   6 C     3039   1 H                                       1.0932593
  3004   6 C     3040   1 H                                       1.0933502
  3003   6 C     3041   1 H                                       1.0924165
  3003   6 C     3042   1 H                                       1.0920446
  3002   6 C     3043   1 H                                       1.0922746
  3002   6 C     3044   1 H                                       1.0934206
  3001   6 C     3045   1 H                                       1.0923973
  3001   6 C     3046   1 H                                       1.0925711
  3000   6 C     3047   1 H                                       1.0919987
  3000   6 C     3048   1 H                                       1.0920759
  2999   6 C     3049   1 H                                       1.0941664
  2999   6 C     3050   1 H                                       1.0932447
  2998   6 C     3051   1 H                                       1.0912706
  2998   6 C     3052   1 H                                       1.0935279
  2997   6 C     3053   1 H                                       1.0932897
  2997   6 C     3054   1 H                                       1.0925929
  2996   6 C     3055   1 H                                       1.0919976
  2996   6 C     3056   1 H                                       1.0936572
  2995   6 C     3057   1 H                                       1.0925099
  2995   6 C     3058   1 H                                       1.0909382
  2994   6 C     3059   1 H                                       1.0930641
  2994   6 C     3060   1 H                                       1.0934285
  2993   6 C     3061   1 H                                       1.0909921
  2993   6 C     3062   1 H                                       1.0913025
  2992   6 C     3063   1 H                                       1.0930865
  2992   6 C     3064   1 H                                       1.0932575
  2991   6 C     3065   1 H                                       1.0926973
  2991   6 C     3066   1 H                                       1.0939147
  2990   6 C     3067   1 H                                       1.0933851
  2990   6 C     3068   1 H                                       1.0903185
  2989   6 C     3069   1 H                                       1.0926520
  2989   6 C     3070   1 H                                       1.0939103
  2988   6 C     3071   1 H                                       1.0939459
  2988   6 C     3072   1 H                                       1.0929212
  2987   6 C     3073   1 H                                       1.0900163
  2987   6 C     3074   1 H                                       1.0931648
  2986   6 C     3075   1 H                                       1.0946161
  2986   6 C     3076   1 H                                       1.0926257
  2985   6 C     3077   1 H                                       1.0912842
  2985   6 C     3078   1 H                                       1.0933109
  2984   6 C     3079   1 H                                       1.0935349
  2984   6 C     3080   1 H                                       1.0902522
  2983   6 C     3081   1 H                                       1.0936490
  2983   6 C     3082   1 H                                       1.0932193
  2982   6 C     3083   1 H                                       1.0924087
  2982   6 C     3084   1 H                                       1.0934923
  2981   6 C     3085   1 H                                       1.0923144
  2981   6 C     3086   1 H                                       1.0920691
  2980   6 C     3087   1 H                                       1.0929765
  2980   6 C     3088   1 H                                       1.0923723
  2979   6 C     3089   1 H                                       1.0917412
  2979   6 C     3090   1 H                                       1.0923671
  2978   6 C     3091   1 H                                       1.0933801
  2978   6 C     3092   1 H                                       1.0934152
  2977   6 C     3093   1 H                                       1.0922897
  2977   6 C     3094   1 H                                       1.0946375
  2976   6 C     3095   1 H                                       1.0921386
  2976   6 C     3096   1 H                                       1.0904758
  2975   6 C     3097   1 H                                       1.0937616
  2975   6 C     3098   1 H                                       1.0924985
  2974   6 C     3099   1 H                                       1.0920299
  2974   6 C     3100   1 H                                       1.0913951
  2973   6 C     3101   1 H                                       1.0930928
  2973   6 C     3102   1 H                                       1.0938453
  2972   6 C     3103   1 H                                       1.0920263
  2972   6 C     3104   1 H                                       1.0936247
  2971   6 C     3105   1 H                                       1.0936240
  2971   6 C     3106   1 H                                       1.0909957
  2970   6 C     3107   1 H                                       1.0931630
  2970   6 C     3108   1 H                                       1.0938405
  2969   6 C     3109   1 H                                       1.0903085
  2969   6 C     3110   1 H                                       1.0933493
  2968   6 C     3111   1 H                                       1.0942482
  2968   6 C     3112   1 H                                       1.0926282
  2967   6 C     3113   1 H                                       1.0917963
  2967   6 C     3114   1 H                                       1.0936183
  2966   6 C     3115   1 H                                       1.0935084
  2966   6 C     3116   1 H                                       1.0934623
  2965   6 C     3117   1 H                                       1.0917190
  2965   6 C     3118   1 H                                       1.0930698
  2964   6 C     3119   1 H                                       1.0928917
  2964   6 C     3120   1 H                                       1.0931381
  2963   6 C     3121   1 H                                       1.0922634
  2963   6 C     3122   1 H                                       1.0929298
  2962   6 C     3123   1 H                                       1.0932169
  2962   6 C     3124   1 H                                       1.0940096
  2961   6 C     3125   1 H                                       1.0924243
  2961   6 C     3126   1 H                                       1.0930967
  2960   6 C     3127   1 H                                       1.0925555
  2960   6 C     3128   1 H                                       1.0921332
  2959   6 C     3129   1 H                                       1.0924105
  2959   6 C     3130   1 H                                       1.0933930
  2958   6 C     3131   1 H                                       1.0933556
  2958   6 C     3132   1 H                                       1.0932920
  2957   6 C     3133   1 H                                       1.0924507
  2957   6 C     3134   1 H                                       1.0928676
  2956   6 C     3135   1 H                                       1.0922253
  2956   6 C     3136   1 H                                       1.0915296
  2955   6 C     3137   1 H                                       1.0924420
  2955   6 C     3138   1 H                                       1.0930303
  2954   6 C     3139   1 H                                       1.0936125
  2954   6 C     3140   1 H                                       1.0931429
  2953   6 C     3141   1 H                                       1.0913453
  2953   6 C     3142   1 H                                       1.0912806
  2952   6 C     3143   1 H                                       1.0931615
  2952   6 C     3144   1 H                                       1.0935850
  2951   6 C     3145   1 H                                       1.0935613
  2951   6 C     3146   1 H                                       1.0932186
  2950   6 C     3147   1 H                                       1.0911194
  2950   6 C     3148   1 H                                       1.0922890
  2949   6 C     3149   1 H                                       1.0930410
  2949   6 C     3150   1 H                                       1.0932845
  2948   6 C     3151   1 H                                       1.0920064
  2948   6 C     3152   1 H                                       1.0923503
  2947   6 C     3153   1 H                                       1.0926986
  2947   6 C     3154   1 H                                       1.0933019
  2946   6 C     3155   1 H                                       1.0921696
  2946   6 C     3156   1 H                                       1.0916181
  2945   6 C     3157   1 H                                       1.0926011
  2945   6 C     3158   1 H                                       1.0932678
  2944   6 C     3159   1 H                                       1.0931041
  2944   6 C     3160   1 H                                       1.0925211
  2943   6 C     3161   1 H                                       1.0909454
  2943   6 C     3162   1 H                                       1.0928213
  2942   6 C     3163   1 H                                       1.0927402
  2942   6 C     3164   1 H                                       1.0929667
  2941   6 C     3165   1 H                                       1.0909561
  2941   6 C     3166   1 H                                       1.0927479
  2940   6 C     3167   1 H                                       1.0931425
  2940   6 C     3168   1 H                                       1.0932161
  2939   6 C     3169   1 H                                       1.0927524
  2939   6 C     3170   1 H                                       1.0935566
  2938   6 C     3171   1 H                                       1.0931518
  2938   6 C     3172   1 H                                       1.0912551
  2937   6 C     3173   1 H                                       1.0929223
  2937   6 C     3174   1 H                                       1.0933633
  2936   6 C     3175   1 H                                       1.0907729
  2936   6 C     3176   1 H                                       1.0915409
  2935   6 C     3177   1 H                                       1.0931589
  2935   6 C     3178   1 H                                       1.0934873
  2934   6 C     3179   1 H                                       1.0934085
  2934   6 C     3180   1 H                                       1.0918337
  2933   6 C     3181   1 H                                       1.0911514
  2933   6 C     3182   1 H                                       1.0935054
  2932   6 C     3183   1 H                                       1.0939185
  2932   6 C     3184   1 H                                       1.0936382
  2931   6 C     3185   1 H                                       1.0915207
  2931   6 C     3186   1 H                                       1.0924009
  2930   6 C     3187   1 H                                       1.0934661
  2930   6 C     3188   1 H                                       1.0931644
  2929   6 C     3189   1 H                                       1.0932646
  2929   6 C     3190   1 H                                       1.0927541
  2928   6 C     3191   1 H                                       1.0930632
  2928   6 C     3192   1 H                                       1.0936234
  2927   6 C     3193   1 H                                       1.0924083
  2927   6 C     3194   1 H                                       1.0921407
  2926   6 C     3195   1 H                                       1.0932019
  2926   6 C     3196   1 H                                       1.0937029
  2925   6 C     3197   1 H                                       1.0936141
  2925   6 C     3198   1 H                                       1.0929956
  2924   6 C     3199   1 H                                       1.0926182
  2924   6 C     3200   1 H                                       1.0926437
  2923   6 C     3201   1 H                                       1.0931130
  2923   6 C     3202   1 H                                       1.0937009
  2922   6 C     3203   1 H                                       1.0921414
  2922   6 C     3204   1 H                                       1.0916147
  2921   6 C     3205   1 H                                       1.0929525
  2921   6 C     3206   1 H                                       1.0932382
  2920   6 C     3207   1 H                                       1.0922448
  2920   6 C     3208   1 H                                       1.0907873
  2919   6 C     3209   1 H                                       1.0932436
  2919   6 C     3210   1 H                                       1.0914091
  2918   6 C     3211   1 H                                       1.0936995
  2918   6 C     3212   1 H                                       1.0926632
  2917   6 C     3213   1 H                                       1.0930720
  2917   6 C     3214   1 H                                       1.0920999
  2916   6 C     3215   1 H                                       1.0926132
  2916   6 C     3216   1 H                                       1.0928900
  2915   6 C     3217   1 H                                       1.0934341
  2915   6 C     3218   1 H                                       1.0927113
  2914   6 C     3219   1 H                                       1.0913856
  2914   6 C     3220   1 H                                       1.0905042
  2913   6 C     3221   1 H                                       1.0934981
  2913   6 C     3222   1 H                                       1.0905021
  2912   6 C     3223   1 H                                       1.0934165
  2912   6 C     3224   1 H                                       1.0924006
  2911   6 C     3225   1 H                                       1.0932455
  2911   6 C     3226   1 H                                       1.0926549
  2910   6 C     3227   1 H                                       1.0900759
  2910   6 C     3228   1 H                                       1.0930521
  2909   6 C     3229   1 H                                       1.0945093
  2909   6 C     3230   1 H                                       1.0930382
  2908   6 C     3231   1 H                                       1.0928899
  2908   6 C     3232   1 H                                       1.0935711
  2907   6 C     3233   1 H                                       1.0926130
  2907   6 C     3234   1 H                                       1.0916832
  2906   6 C     3235   1 H                                       1.0918915
  2906   6 C     3236   1 H                                       1.0926888
  2905   6 C     3237   1 H                                       1.0917033
  2905   6 C     3238   1 H                                       1.0919593
  2904   6 C     3239   1 H                                       1.0924985
  2904   6 C     3240   1 H                                       1.0934883
  2903   6 C     3241   1 H                                       1.0919859
  2903   6 C     3242   1 H                                       1.0912116
  2902   6 C     3243   1 H                                       1.0920621
  2902   6 C     3244   1 H                                       1.0939348
  2901   6 C     3245   1 H                                       1.0929565
  2901   6 C     3246   1 H                                       1.0929886
  2900   6 C     3247   1 H                                       1.0923899
  2900   6 C     3248   1 H                                       1.0940058
  2899   6 C     3249   1 H                                       1.0932543
  2899   6 C     3250   1 H                                       1.0921281
  2898   6 C     3251   1 H                                       1.0921718
  2898   6 C     3252   1 H                                       1.0933911
  2897   6 C     3253   1 H                                       1.0881163
  2897   6 C     3254   1 H                                       1.0877764
  2897   6 C     3255   1 H                                       1.0880291
  3016   6 C     3256   1 H                                       1.0879080
  3016   6 C     3257   1 H                                       1.0879386
  3016   6 C     3258   1 H                                       1.0874551

 * 2 distinct bonds (by element types)

   Z      Z             #   av. dist./Å        max./Å        min./Å
   1 H    6 C        2178     1.0925632     1.0949189     1.0865533
   6 C    6 C        1071     1.5272178     1.5330466     1.5215308


optimized geometry written to: xtbopt.xyz


           -------------------------------------------------
          | TOTAL ENERGY            -3427.545787061191 Eh   |
          | GRADIENT NORM               0.000839416085 Eh/α |
          | HOMO-LUMO GAP              11.330879675850 eV   |
           -------------------------------------------------

------------------------------------------------------------------------
 * finished run on 2024/06/21 at 13:22:36.174     
------------------------------------------------------------------------
 total:
 * wall-time:     3 d, 22 h,  3 min, 50.175 sec
 *  cpu-time:    19 d,  4 h, 39 min, 16.900 sec
 * ratio c/w:     4.897 speedup
 SCF:
 * wall-time:     0 d,  0 h,  7 min, 45.111 sec
 *  cpu-time:     0 d,  0 h, 37 min, 47.268 sec
 * ratio c/w:     4.875 speedup
 ANC optimizer:
 * wall-time:     3 d, 21 h, 55 min, 22.537 sec
 *  cpu-time:    19 d,  4 h,  0 min, 31.040 sec
 * ratio c/w:     4.898 speedup

