3795
 energy: -5103.613521222164 gnorm: 0.000874335982 xtb: 6.6.1 (8d0f1dd)
C          136.77659312754363      109.14036058727440      121.33339272779433
C          136.36483453222991      109.59515748453119      122.71523080781267
C          135.96643727641026      109.89151061863618      120.26898813201157
C          134.48630575697149      109.52377753683844      120.33606103356630
H          136.10036044157226      110.96277213304488      120.42737981383222
H          136.36096427462951      109.62642008075341      119.28643886854964
C          133.65407403529736      110.14550526420336      119.20694270872440
H          134.38773443405498      108.43916410618579      120.26173800215557
H          134.07419784070336      109.82405381782348      121.30246590487475
C          133.37429385430113      111.61397050657374      119.44110886902031
H          134.16977284437698      110.00202358493763      118.25681629788859
H          132.69882012623773      109.62310414759854      119.16451429027273
N          134.32047025189777      112.45786696739358      119.00987987394768
O          136.77320589605600      110.82078106573337      122.97803850712565
O          135.71792895510777      108.92075548322808      123.48789795286434
H          136.46475379965190      111.13448299977705      123.88271361455701
H          136.60887017048080      108.06684416342765      121.25177555822994
H          137.83640926968647      109.36061596526878      121.20651230348007
C          134.28900227778345      113.89214882477572      119.22870314321743
H          135.13211249395414      112.09017917858814      118.53781972147647
C          135.69701670082262      114.41839984637203      119.49241175645635
H          133.86135955653583      114.39144441335171      118.35074367674117
H          133.63281475007884      114.07604441705821      120.08160018485644
C          135.73263834446334      115.91997945222988      119.78405604436529
H          136.13005100845339      113.87745503315870      120.33687181852308
H          136.31241977211582      114.21739991719933      118.61236247583447
C          135.13283831119256      116.28153810390532      121.14440348900017
H          136.77709112705764      116.23785543171429      119.76923428168564
H          135.21166417583606      116.45311352141664      118.98716183243100
C          135.61006199094939      117.63797397885548      121.66688429186161
H          134.04378661907543      116.28045659369789      121.09897073207652
H          135.43419734075940      115.52153144107447      121.86887180007140
C          135.11962522203589      118.83009179044713      120.85365163039693
H          135.25725023657202      117.76069006439816      122.69269041021336
H          136.70095476588534      117.65715049169540      121.68118252744277
N          133.68183007956873      118.97873281188264      120.95713833481356
H          135.60445578207305      119.74412638859940      121.21996678083705
H          135.37770799807603      118.72413629012838      119.79630913600009
C          132.96199833539660      119.62971436879286      120.04474617401043
H          133.22776513982916      118.54320099751965      121.75800749811569
O          132.34308051156870      112.00878685636209      119.98067199969074
C          131.46732386367583      119.64367803579856      120.30541156220556
C          130.73428006752494      120.63286177828920      119.40372928340298
H          131.10230229722688      118.62917724601783      120.12953285905108
H          131.28239234582531      119.88284777861249      121.35339965879024
C          129.22241236312354      120.61915642408644      119.62273969010815
H          131.11261341797962      121.63516552768220      119.61322169416607
H          130.96432565932673      120.40985226937340      118.36076750306476
C          128.51588190691703      119.40777700355100      119.01450282415983
H          129.02712225063382      120.63391122562173      120.69760201393366
H          128.79135767038369      121.52630552203922      119.19432176951915
C          127.20010497188539      119.09652382380176      119.71360985733902
H          128.31622792501517      119.55845008646595      117.95122704115823
H          129.14245434892496      118.51838671181495      119.09683294935391
N          126.61723508000631      117.97343532432075      119.27755850656958
C          125.40525879974280      117.43517621781439      119.86619462546273
H          126.94157770959728      117.54620186517313      118.41777276722657
O          133.47028607531385      120.15944412308545      119.05577068788081
C          124.73013738581128      116.43427307545788      118.93265413597608
H          125.66860688062418      116.93753441562120      120.80867317062774
H          124.74007983778399      118.26933898537017      120.10687913568373
C          123.77122552746064      115.50314395081807      119.67377781433051
H          124.19969292416030      116.97110494901003      118.14501010302006
H          125.50500269238685      115.83005315326294      118.45800079902921
C          122.62820093945091      116.24734092124305      120.35449391793736
H          123.34704023711450      114.77814062202728      118.97709429685312
H          124.32958704976838      114.94350824672851      120.42295900961766
C          121.70630331602018      115.30628619072650      121.13133900348029
H          123.02930370413196      116.99454103575891      121.04087203366777
H          122.04574320776617      116.77269488297225      119.59419641068064
C          120.52424564616575      116.10039560056485      121.65700982519749
N          119.65320040392655      115.35900323058391      122.54964498084981
H          120.88737876953908      116.97783238283796      122.20821204166148
H          119.92375998795576      116.47417654918530      120.82130287110766
C          118.55070647908636      115.95865985016947      123.01497015168012
H          119.88893058627572      114.40649187777093      122.79432276301225
O          126.73278697196801      119.78343513345929      120.61921221195001
C          117.74464151267486      115.20166207465059      124.04534666064316
C          117.61185948192538      115.99583743905791      125.34924161432829
H          116.74077996576467      115.04723258127810      123.64321893514101
H          118.20002469042252      114.22986551325737      124.22924120762794
C          118.93243294661981      116.19966044354638      126.09325836735334
H          117.17017792613588      116.96860610610784      125.12442026677176
H          116.92230843009952      115.45779556589829      125.99912382513311
C          119.64154947771269      117.49736320175184      125.70311072921581
H          118.72943602772652      116.22435148384560      127.16577598666431
H          119.60746013039179      115.36503183243681      125.90205845502359
C          120.92723293481926      117.62416251330492      126.49458820205433
H          119.88807221400494      117.47226185114279      124.64123052125881
H          118.99575269163368      118.35346946756223      125.89314519534270
N          120.95266186360882      118.63964575522141      127.36012963807055
C          122.07300624359054      118.95781377920650      128.22110814871823
H          120.15261353425993      119.26845163653493      127.38741704757363
H          121.37113117578579      114.49846191596164      120.47932534302413
H          122.24857158006185      114.86090400988334      121.96694100133315
O          118.21942856400855      117.07598067727312      122.62297167481177
O          121.85872460751393      116.83171662607305      126.35131289808372
C          121.58735771276849      119.37664560869196      129.60765988956027
H          122.71542196691509      118.07643836408339      128.28249482929658
H          122.65380275559650      119.77259137593369      127.77058084452678
C          122.67091056107137      120.07161685010884      130.43234382657729
H          120.74430429946769      120.06237113684826      129.48569800691661
H          121.23079178857387      118.49538262786666      130.14266698351810
C          123.91548466186450      119.20708750414320      130.63351622555058
H          122.93954256134585      121.00744045233914      129.94101812460008
H          122.24816066066398      120.32221511973013      131.40755420306542
C          124.81293351804844      119.69284819214415      131.77306604445548
H          123.60152232653766      118.18724232714895      130.85956506687594
H          124.49553622853011      119.15764155368875      129.71150836454325
C          125.54073613648001      121.00251073296634      131.48573761556247
H          124.21163811960015      119.83067862517818      132.67319109496867
H          125.55418854692390      118.91976574498617      131.98067452197725
N          126.52528414209833      120.84099455316229      130.43174616236070
H          124.82827626030765      121.78158360129014      131.20245514523177
H          126.05006973640128      121.34655420135142      132.39531443423942
C          127.24807956114294      121.84043690213177      129.92677928399326
H          126.73454343431150      119.89103033390602      130.12802361312379
C          128.26355359649909      121.42149644400027      128.88292740402741
C          127.64737596299098      121.52532383010160      127.48488281221967
H          129.12833929905909      122.08322170079978      128.95201290855917
H          128.57115896476563      120.39169598929520      129.06045862117705
C          128.60949202385115      121.03083645918176      126.40724373427399
H          126.74772690339096      120.90633215014000      127.45210321892185
H          127.36295454308576      122.56118053380523      127.28428239766176
C          128.01088435574931      121.23453245723240      125.01254949643824
H          129.55576294613959      121.57012233838017      126.48324792814584
H          128.80296042194755      119.96957111953614      126.57139438942620
C          128.78636815493843      120.47867197474076      123.95110088059305
H          126.98824698852393      120.85709533345722      125.01282891124133
H          127.99789624228633      122.29714949851264      124.77766725755674
N          128.54005628760046      119.17377497784939      123.95017428883315
C          129.13882337055031      118.23533335704563      123.02642193877280
H          127.82944317614472      118.81709689457760      124.58109855353092
O          127.10219233996315      123.02006233708197      130.25533672016951
C          128.38131512415580      116.91483235184795      123.05656988477826
H          129.11402443886249      118.67323878451928      122.02524512822654
H          130.18828776812998      118.07051748056595      123.29388922071016
C          129.15905578533429      115.77821734239963      122.39741660917821
H          128.18550074399113      116.65660725927542      124.09967700873214
H          127.41772301266600      117.04760593070040      122.56036416746591
C          129.46070246901999      116.03770413076947      120.92247912404990
H          130.10057415915631      115.63151238818112      122.92949807361073
H          128.57937944934281      114.86017896101370      122.48745723593741
C          129.96659629919117      114.78296035812829      120.21585079453858
H          128.56192651528778      116.40062680298102      120.41969672239753
H          130.22439286514725      116.81309857256521      120.85507010107257
C          130.48828254244543      115.08298790426298      118.81366194767364
H          130.77462126681613      114.33528814700081      120.79802359816462
H          129.16498819273957      114.04704394714214      120.13907741252835
N          130.93275915099815      113.86261163948583      118.17871515490559
H          129.70791762271298      115.51911861707889      118.18290071975881
H          131.32124292974964      115.79639967728768      118.86956331188377
O          129.58641705578285      121.01320714371852      123.17881028052386
C          130.69373468007339      113.55774228366994      116.89682329052550
H          131.36885905598783      113.18320545228076      118.79308457962243
C          131.15380172719330      112.16784164991840      116.48686559413139
C          130.37641296161937      111.06703612617233      117.21103800077772
H          131.02099370459794      112.07492785072515      115.40818288365610
H          132.21708015972141      112.06958766497634      116.71643063215527
C          130.86822300167566      109.68079695789609      116.79803463324252
H          130.50121964519170      111.18599422786188      118.28812095159836
H          129.31070387071026      111.15999083006881      116.99619924862037
C          130.27605123424487      108.58252161281155      117.68709965684712
H          130.60825194903882      109.48681208313452      115.75605322233540
H          131.95707759767583      109.64786845429205      116.87768633334633
C          131.02013822864333      107.28200987375419      117.44595886087501
H          130.41299981760955      108.86655684367257      118.73082288730312
H          129.21463940017992      108.46065569152728      117.47906436421793
N          130.49826855965824      106.53103329814249      116.47117809503268
O          130.17193052731753      114.33445328241044      116.10661623917268
C          131.05453993255534      105.26949700233462      116.04105565949259
H          129.57530735247241      106.78097381805975      116.12617850400522
C          130.12882058049794      104.08213661951326      116.31644282064434
H          131.26507670427421      105.32523773293208      114.96731077286763
H          131.99867428096223      105.14131008812110      116.57721457542264
C          129.78397771651746      103.94110740501250      117.80418254004975
H          129.21265313917110      104.19939058451153      115.73593718726248
H          130.63637017457606      103.18505965755533      115.96094462579750
C          128.41698072063966      104.53252136435248      118.15820391704814
H          129.78829461247824      102.88676390085597      118.08675169493192
H          130.56300229481539      104.43427544287512      118.38728162244517
C          128.24429975338336      104.71847027888803      119.66706615311534
H          128.28276413456231      105.49550841714549      117.66372435236654
H          127.63943176120725      103.85993981552480      117.79080318559122
C          128.93958649998243      105.99009957326118      120.14806007862340
H          127.18214325896624      104.77849478463610      119.91197277004430
H          128.66232722426537      103.85577759187628      120.18973234021436
N          128.87428045756687      106.08234675417204      121.59133093813122
H          129.98152035573167      105.97744728372608      119.82647494015156
H          128.45233226853492      106.86172595497045      119.69522193658615
C          129.67919144398954      106.71031019319085      122.45878400220919
H          128.09165244376240      105.59298837384131      122.00858392496640
O          132.04390899762706      106.99298555060307      118.06298565984925
C          130.85796820718426      107.49648840453280      121.93100703593075
C          130.67055590742271      108.99192009607864      122.20820858867799
H          131.74580943404470      107.15485850528424      122.46762141266522
H          131.01341127229125      107.33434548246571      120.86747405340657
C          129.42008634412224      109.56672010446317      121.54651342716284
H          130.60863832779290      109.14393464995798      123.28768249225864
H          131.54960740256018      109.52473636532849      121.84169259235762
C          129.44277793749526      111.09542025167110      121.59597303549617
H          129.36456865593749      109.25010842059204      120.50424826981043
H          128.52743340094742      109.19118303486076      122.05336295039432
C          128.19171765435613      111.69250429094967      120.98422479890453
H          129.56294441464783      111.43038639287208      122.62644498662732
H          130.30224271201030      111.45229209188325      121.02249495109977
N          127.50584924477904      112.49531491033353      121.81363362179853
C          126.33677577972328      113.27209174234284      121.45659234551431
H          127.87708126248477      112.66092893213853      122.73719371660840
O          129.43968526800236      106.65819865583332      123.66431498827721
C          125.32596264754015      113.26847299399918      122.60123079852526
H          126.64329766580573      114.29944879479356      121.22611964909122
H          125.90683619353392      112.82890457194738      120.55611789938406
C          124.52907577281515      111.96798130902049      122.65171926499660
H          125.85823191055883      113.41404160038594      123.54288267214092
H          124.64070310247605      114.10778687047615      122.48376547532769
C          123.73345786955754      111.82083163309635      123.94775139681811
H          123.84448362915201      111.93953315782940      121.80125401253167
H          125.21304678576257      111.12265369947576      122.54943570555942
C          122.81133971679431      110.60880478791707      123.87816687172946
H          124.42069344277957      111.70738362788468      124.78756991053244
H          123.13664584129819      112.71908319595454      124.11697767131282
C          122.06756172649759      110.31253441355589      125.17439226964937
H          122.07450377866364      110.77429707698647      123.09393494908413
H          123.38699898618316      109.72240557670760      123.61344671013029
N          120.98278834147756      111.24703318567339      125.38920843156482
H          121.66022670009667      109.29522295529465      125.12186330204590
H          122.73159175102447      110.36946713469943      126.04074027876406
C          120.65116702532406      111.74370622515085      126.58289337335374
H          120.44301059451165      111.49434504067494      124.56662619046978
O          127.83480574443344      111.46345078563364      119.83528885810195
C          119.40462823640868      112.60463092822877      126.58839100419878
C          118.16574267451890      111.77974994303932      126.95014350259515
H          119.53196136107496      113.39553881511479      127.32903969889749
H          119.27132468096821      113.04794664152234      125.60299593127722
C          116.92553864610620      112.66472811055647      127.05382298695056
H          117.99851176049965      111.01516659739714      126.18977564047820
H          118.33850460496207      111.27024177415137      127.90150350871326
C          115.64047274007230      111.87471854147259      127.32618579209532
H          117.05368558390127      113.39161166076069      127.85934816185623
H          116.80021679273483      113.21533715666976      126.11975884482199
C          115.20061114392134      111.09297573599780      126.10344451442721
H          115.81361576848337      111.17277196393880      128.14411179863913
H          114.85240116042903      112.56952627252494      127.61387616289215
N          114.17420663541584      111.62973077047562      125.43240050299583
O          121.29430557183696      111.52542680161643      127.60839803370119
C          113.59893848634729      110.96449658554965      124.27728711421136
H          113.72282281427664      112.46919583972921      125.77519232509852
C          112.41999424147829      111.73142656555687      123.69195537607152
H          114.38427543524416      110.83321180073614      123.52447749804679
H          113.26712315555716      109.96675852314897      124.58619993719975
C          111.82238128640854      110.94220618238933      122.52437198616693
H          111.66871969631678      111.87032878836180      124.47078274405951
H          112.74577080379356      112.72096751821951      123.37192961094669
C          110.42476838130698      111.39665012952305      122.07604767504601
H          112.50837648823952      110.98033510151922      121.67701881735580
H          111.76109400547864      109.89992344646978      122.84225110044949
C          110.40332607857387      112.30684476902124      120.84981433236790
H          109.84605988532789      110.50789454549533      121.81924078806337
H          109.91170496474362      111.90248275268713      122.89658013125572
C          110.79899280922487      113.74519704171087      121.15092474570068
H          111.06958405930737      111.90986659169124      120.08216763637496
H          109.39200775435728      112.32035761263010      120.44155042494928
N          110.73324814596171      114.52637827466661      119.93409753371252
H          110.11082823496822      114.19498698314615      121.87336692657881
H          111.81076942404118      113.78468828020847      121.56820134911280
C          110.43341451184010      115.82239627124353      119.91232696026225
H          110.99274994391364      114.04529083085079      119.07650174760340
O          115.75489109263900      110.05559027222255      125.74973496701244
C          110.38090399874790      116.44830701994007      118.53618941359065
C          111.73225392381792      117.10214439603754      118.23755321228010
H          110.15947954450668      115.69142613075627      117.78462172471323
H          109.60034993606853      117.20916279105111      118.53829594789985
C          111.76188518867130      117.84360360821088      116.90599022625872
H          111.98051623078534      117.79926329705023      119.04104335618111
H          112.50022119766901      116.32665690989023      118.21645933307860
C          110.78537525801163      119.02299004601460      116.84430488427556
H          112.77402133410763      118.22499490620419      116.75526667561866
H          111.53919844765855      117.15310612866467      116.09062616924818
C          111.03770401494786      119.78251903808717      115.56416375243741
H          109.75633416948862      118.66104133215283      116.83264656211539
H          110.92180640015681      119.68420682652246      117.69758179900585
N          111.47279485031767      121.03114413826994      115.70270995940621
C          111.81352491939876      121.84442189608669      114.55496429269910
H          111.47336965844461      121.45500572713159      116.62379247026686
O          110.24579387854133      116.48524429787383      120.93534558769187
C          112.81245676791644      122.94305569074621      114.90302611493061
H          112.22983504587930      121.17662126158707      113.79696654115169
H          110.89942313276838      122.27786964721811      114.13428282707635
C          112.14529127961539      124.24999807817105      115.33558844288379
H          113.45274561812622      122.58303831666147      115.71093164706431
H          113.44703863238570      123.12407737468550      114.03631677783929
C          111.40507085768569      124.97635985322471      114.20938856273622
H          111.44321511381416      124.03103616887844      116.14268731344228
H          112.91159519735363      124.91860714294404      115.73227977828269
C          112.34406136546613      125.54769943712255      113.14932368820870
H          110.68810566759988      124.30391714971644      113.73565898618790
H          110.83407752099970      125.79620451491505      114.64724602682887
C          111.57698809024788      126.34396363355560      112.09156279040059
H          113.07499347720831      126.19823749335426      113.63084916796245
H          112.88627513941735      124.74321588423038      112.65300224217590
N          112.46122343614795      127.10055028466627      111.22938064104569
H          110.99910840397095      125.67142460286023      111.45495817245676
H          110.89901874254296      127.05117512475125      112.57779207991406
C          112.82899141579809      126.73332781239365      109.99436163528711
H          112.86326960545097      127.93017013416191      111.63726354423012
O          110.88952772970313      119.25371809028425      114.45629831341627
C          113.68947214962442      127.74232151063256      109.26054809342324
C          112.79330497947448      128.55477933997312      108.31889942290397
H          114.20146886280824      128.40442112499750      109.95762161845178
H          114.44270112601994      127.21783137207213      108.67001130657296
C          113.60758819871573      129.49869329137744      107.43837355752765
H          112.23718667542374      127.85957317490112      107.68502827443182
H          112.07015942847373      129.12430465296882      108.90891910801997
C          112.71513989719992      130.26930111213983      106.46136628716989
H          114.14874191376092      130.20993563893487      108.06398940585348
H          114.34924100947124      128.92322535810979      106.88321662573760
C          111.97315175121855      129.32579069245404      105.53400775744883
H          112.01004755479657      130.89105977805588      107.01330955050905
H          113.34421174422684      130.91539391941214      105.84579697960064
N          110.64625818308920      129.50302431227794      105.47833810878470
O          112.45099854351287      125.69377721786938      109.46245286311270
C          109.76323864163128      128.66856969004860      104.69045733466780
H          110.21420212911701      130.23920248652232      106.01462690146934
C          108.48351405091935      128.32122829468534      105.44519845506743
H          109.50669184845732      129.18578225599600      103.75805477529818
H          110.32303754706078      127.76143455480027      104.44747076886236
C          108.75722212059429      127.62042671805091      106.77491904900970
H          107.90829739561451      129.23194021818969      105.61662914972123
H          107.88949497437305      127.66025196119155      104.81190924045457
C          107.51365810407594      126.93831986954626      107.34837679809222
H          109.52017149257371      126.85238654466399      106.62104417485509
H          109.15921574805331      128.33277345669362      107.49758356922831
C          106.30558691414865      127.85085464306481      107.56822084100340
H          107.21659589535811      126.13122242541820      106.67385212034181
H          107.78005598371109      126.47580061605454      108.30243079839163
C          106.55047478522324      128.98993843750728      108.57047272038868
H          105.98560134470034      128.28203307238093      106.61980413164038
H          105.48457647298729      127.23195857317371      107.94082708396702
N          106.87625493400218      128.57780900019881      109.92646214056103
H          107.36428034447849      129.62959684274216      108.22196950946804
H          105.64719510814447      129.60441847693252      108.62939673563794
H          106.14673711527070      127.97050272287193      110.28391467696116
H          107.73772997925745      128.04350073627907      109.92682951950722
O          112.54551688389404      128.46731041121711      104.86908736862972
C          132.38979398118380      114.87097774129283      132.09741221346346
C          131.01707862010437      114.28806276947095      132.33782382210140
C          132.50565860033748      115.59279220085129      130.75451715540032
C          133.90539746800366      116.17455519347904      130.56461728300101
H          132.29444411696215      114.88496728860343      129.95041792019038
H          131.75618585282012      116.38454083466020      130.69739934838981
C          134.10455289447899      116.77039258690310      129.16630540331442
H          134.08898480487977      116.93287439674756      131.32785600205966
H          134.64078357124939      115.37995506288451      130.70330766776195
C          133.20306555399080      117.96267933114736      128.90181960514076
H          135.14386952326009      117.08264804320203      129.05087032238299
H          133.88916325337695      116.00970408997296      128.41504127485729
N          133.49856582810298      119.05328601888402      129.61772399558831
O          131.03782157456868      113.21637253039384      133.09225405497091
O          129.99275644958925      114.76228377754705      131.88401643752835
H          130.10494297252228      112.86700098411298      133.28445357035477
H          133.11771295845114      114.06300460798865      132.17448898042900
H          132.58415069614125      115.56991030122565      132.91570905717006
C          132.72608999113601      120.27720917748860      129.59187472700901
H          134.29179794108441      119.03617896427714      130.24055724783631
C          132.56204030527567      120.85962398827790      130.99448861793294
H          133.22556435182057      121.01596429360177      128.95512081882464
H          131.75897671729541      120.04070560506142      129.14418140445079
C          131.92275386547291      119.89741727315385      131.99625580424086
H          133.54341757138528      121.15797969289312      131.36934516211466
H          131.94954061295087      121.75865470594117      130.91663911546564
C          130.49585114833559      119.50301247055508      131.62537063074339
H          132.52989645111441      118.99460523877754      132.08431778662901
H          131.91021243824176      120.38230750586766      132.97437148879129
C          129.82381132219643      118.71180971211618      132.74520882708458
H          129.90924226957804      120.40196390103040      131.42249768774627
H          130.49934593455538      118.89733838004452      130.71685537760573
C          128.43875932826501      118.21649728008676      132.32892356323623
H          130.43901656526128      117.84963952505574      133.01293804923731
H          129.72133439894202      119.34113418447940      133.62995400190547
N          128.53755148319715      117.19610645504096      131.31014072883815
H          127.91471118581717      117.80008608671994      133.19565894904994
H          127.85729381581163      119.04502553711687      131.92210738770811