3258
 energy: -3427.504829720565 gnorm: 0.000969132296 xtb: 6.6.1 (8d0f1dd)
C          127.42837422832909      100.68762663871979      114.71967007920300
C          127.31288057782062      101.62665469270262      115.91418474478287
C          126.07568655333236      102.51411662836763      115.81317853962769
C          125.94758065837159      103.47570516365292      116.99158201196647
C          124.78045745352728      104.44428694502700      116.81623465853642
C          124.64850584545331      105.40795792629207      117.99303240067317
C          123.62401325225478      106.50603096749815      117.71999056888515
C          123.50209839467571      107.48708397853980      118.88264999797323
C          122.64586865199622      108.69994335063086      118.52522494655514
C          122.58230110225225      109.70464368960722      119.67263588620624
C          121.94236667361467      111.03751090089860      119.28795741727757
C          120.42966217152168      110.96350901881580      119.09920533474018
C          119.85706581057266      112.33780384556664      118.75850194626038
C          118.33007444450917      112.38558116261621      118.72402996741839
C          117.72423582074933      111.59932244166328      117.56505573768831
C          116.19610194247970      111.61321854100389      117.55318377221660
C          115.58975497857870      113.00622182454944      117.42195165869569
C          114.07345898193495      112.95218769176952      117.25594600139314
C          113.48159862918362      114.34504443583234      117.07259881552966
C          111.96193338631123      114.33926621783026      116.94586648534123
C          111.41698425454277      115.75239825365745      116.75690961966687
C          109.89369958969844      115.79288512736177      116.74380282963027
C          109.35336334419115      117.21254871890130      116.59136750986912
C          107.83144895708483      117.23183557308448      116.68047594229401
C          107.23187879934750      118.62436643041190      116.50968654260106
C          105.71070881478310      118.57510319093670      116.62250028153417
C          105.04464153572847      119.93773604744912      116.45757369419714
C          103.52336608718625      119.81113525452896      116.40591384764997
C          102.82179258845544      121.16522023196114      116.47055196527990
C          101.33317972569462      121.09313444647567      116.12131539619737
C          101.08662341332840      120.98002227596926      114.61924919102573
C           99.60354843618916      120.89027518045289      114.26331374973060
C           99.35450562298607      121.02898232256607      112.75952960061463
C           99.89241807672977      119.85875231935668      111.93633718923329
C           99.95225141804887      120.18656342251825      110.44525571457034
C          100.71237795620719      119.12577863848095      109.64799275188950
C          101.13348325525685      119.62962867424449      108.26885465530010
C          102.06406661132125      118.67607733088830      107.51735749082960
C          103.45719042948990      118.58623409824887      108.13863080156591
C          104.44398610589049      117.81667581518181      107.26258804837548
C          105.79375963408117      117.64959560844039      107.95659979457805
C          106.78215870357531      116.80187152582468      107.15932582515653
C          108.03670307043254      116.49149457014252      107.97406683610369
C          108.95298471994298      115.47537377735797      107.29685176330115
C          110.06677183998896      115.00030297192886      108.22853574243902
C          110.82523199492432      113.80181639615053      107.66494208602187
C          111.80464917221393      113.20116338264889      108.67152345919182
C          112.36277414387632      111.86392151490570      108.18817095082252
C          113.21843273734837      111.17330439610842      109.24564829685920
C          113.64023518323403      109.75762214864783      108.84949641843323
C          112.50223772483081      108.74028601664121      108.93041672444174
C          113.00493130972963      107.31808506564144      108.68936873066357
C          111.89057826293632      106.27627541226367      108.59047000928254
C          111.09144516766285      106.09374155516321      109.87964590367073
C          110.11087751047523      104.92798441944055      109.76656059167523
C          109.12493541749240      104.85036043382505      110.93093566390996
C          108.22686810993352      103.62075824472919      110.79901168749551
C          107.05260754153493      103.58412146213438      111.77764311434353
C          106.01953205421390      104.67634142495611      111.49918307817491
C          104.65089178059083      104.37060324538072      112.10361594904676
C          103.66317925472330      105.50037957805829      111.82405831074594
C          102.24102882360980      105.18647128091911      112.27922602409565
C          101.30020785560855      106.35547215069114      111.99981808021457
C           99.85373626702174      106.05974107963024      112.38050551499668
C           98.92015732332466      107.21064475738798      112.01191083582292
C           97.45974882577286      106.86623585608295      112.29158938248797
C           96.47768315385724      107.85291154547228      111.66280976578355
C           95.03818918288083      107.41271732240708      111.91876785953343
C           93.99323494622290      108.10280443023831      111.04508381259345
C           93.80877273779964      109.59120650682898      111.33393872547850
C           92.52927547079385      110.11348390443926      110.68249090538630
C           92.33371586900904      111.61885000561364      110.84531097679987
C           90.97880375724029      112.06346338339459      110.29299444914803
C           90.90826447740470      113.55476735803597      109.96208305743625
C           91.24108661867800      114.48771666866278      111.12602578772105
C           90.32059378284312      114.31480294974217      112.33395116615858
C           90.40002857542662      115.48998101393134      113.31065549660856
C           91.80003920079520      115.70331449146249      113.88070065063705
C           91.85967868821686      116.87239825520950      114.86150494230873
C           93.29816322432325      117.17982996765065      115.26924805714829
C           93.41455874863784      118.40457650910605      116.17359001896740
C           94.87629725514675      118.75644259240316      116.43506939458921
C           95.05251614190642      119.99715377244385      117.30551822062498
C           96.53028852291263      120.32172135984472      117.50989845867056
C           96.75059379407331      121.63305332036694      118.25932354399578
C           98.23748844731172      121.92625754716798      118.44662725913071
C           98.49813994263312      123.32646900516420      118.99647787766970
C           99.98854337856811      123.58768386149970      119.20634349212851
C          100.26309857290408      125.01031241948672      119.68956359495196
C          101.69931196723617      125.21867537469645      120.17175410310497
C          102.75083213027365      125.15250345189260      119.06522514221646
C          104.15186886546066      125.37436777890251      119.63241253835663
C          105.24363565037240      125.36185081506841      118.56474529280972
C          106.62759815873081      125.55329909138763      119.18216099483554
C          107.73913453811403      125.70878099527853      118.14509725345594
C          109.09271100359143      125.92220539016422      118.82303531525409
C          110.20159476436461      126.38460996632855      117.87671538223235
C          110.71852913841562      125.29832087382042      116.93667932915950
C          111.87674567056489      125.81138492707744      116.08177093244439
C          112.49459942329129      124.71885291819463      115.21334797551516
C          113.59736442538315      125.25720433486148      114.30397140001571
C          114.22863428518924      124.15078950477066      113.45907596654970
C          115.00658928772590      124.66792645202905      112.24908803277141
C          116.19444298534805      125.55321273520100      112.61708950893275
C          117.09995014174967      125.86160851674141      111.42062151754588
C          118.03043532833375      124.70319194238455      111.06689458668988
C          118.96798233207727      125.03464711308580      109.90913188147536
C          119.96242027192139      123.90529488213153      109.65195401794918
C          120.93546944224474      124.23310565667155      108.52324054267640
C          121.93803129689967      123.10789607125928      108.28207022232846
C          122.89545215919867      123.42407719216089      107.13537407224541
C          123.86533461226840      122.27586592457806      106.87062463222576
C          124.79556664298237      122.55612453521998      105.69129531370857
C          125.56294027353562      121.30469988266329      105.26982552470496
C          126.52781541949051      121.56215877153818      104.11138173144157
C          126.89237418189461      120.28855823814261      103.34622840723881
C          127.62760345176180      119.24956146420658      104.19002435920656
C          127.87865824997765      117.96289250066071      103.40643164482155
C          128.57393394527691      116.89851384254368      104.25157578083581
C          128.76821670015570      115.59765733687105      103.48202160977810
H          129.54503012921126      117.27553053776727      104.58064832174109
H          127.97368437274912      116.70440836668989      105.14301975342826
H          126.92216903875416      117.56799197244105      103.05468539100858
H          128.48786249729997      118.18325647040231      102.52664966331686
H          128.57977189561242      119.66347905274210      104.52973442485514
H          127.03702122512632      119.00959864376564      105.07499882017662
H          125.97615787088134      119.84162611420921      102.95312671434775
H          127.51820010895142      120.55664875552637      102.49131577205696
H          126.05842793581040      122.25635874887324      103.40945438171744
H          127.43528519625576      122.03956265930542      104.48685956351514
H          126.11004041705804      120.91477532174909      106.12965251021531
H          124.84019943746432      120.54532415725235      104.96321904611408
H          124.20424563649017      122.91258763702750      104.84354321627812
H          125.49778493796939      123.34908192627593      105.95810958566723
H          124.45977316755705      122.08664068071656      107.76582860147499
H          123.28910270051045      121.37080814787758      106.66609925597142
H          122.31741492168548      123.62065687621525      106.22809010076070
H          123.45809026692292      124.33195104325915      107.36634256783853
H          122.51268288760281      122.93294201103568      109.19402471226829
H          121.39639426157403      122.18687188555677      108.05448434133687
H          120.37242595773853      124.41574620668327      107.60497877958899
H          121.47562677821696      125.15169876447554      108.76703116492210
H          120.52550707737856      123.71080252725592      110.56770808151360
H          119.41477036142993      122.99322130725764      109.40226012991857
H          118.38285439742964      125.21722448348066      109.00525209141595
H          119.51583611709684      125.95232347064808      110.13738931877917
H          118.63031498293070      124.45083195164256      111.94418370681801
H          117.44523063909611      123.82116989188249      110.80343285250510
H          116.48429798183304      126.11702665017749      110.55463008619186
H          117.71245587785383      126.73592850365510      111.65493723336236
H          115.82075802102692      126.49165912144075      113.03100722048833
H          116.78456712396928      125.06114077779391      113.39178991769595
H          115.36335154992743      123.80526380616631      111.68441535127438
H          114.33149366794625      125.23105198004305      111.60167252100631
H          114.89050619615588      123.54930174761741      114.08570233432602
H          113.43597903976080      123.49043613424413      113.09666845598905
H          113.17186119863732      126.01705378954804      113.64563450281055
H          114.36492605287118      125.73851655439583      114.91247135904236
H          112.90382574537989      123.93678419404441      115.85636859076219
H          111.71497614666248      124.26546322912974      114.59765789503382
H          111.51913313615549      126.62350146485710      115.44361935544144
H          112.64746783877476      126.22779980845461      116.73565198877287
H          111.05754284668528      124.44354284702756      117.52767291630349
H          109.91285824712060      124.95246849320318      116.28675820516153
H          109.83970498119729      127.22928670729533      117.28590403353164
H          111.04090708022301      126.74328723680294      118.47871861365725
H          108.96920678042331      126.68436222388803      119.59698727287629
H          109.39964557760332      124.99864463505411      119.31969254080465
H          107.77416588857139      124.82324388196353      117.50880699575350
H          107.51589578003855      126.56690812748948      117.50661760312440
H          106.60998530651678      126.44595882141826      119.81285966082032
H          106.85302244087811      124.70065700250846      119.82663109746480
H          105.21216853572918      124.41199123708445      118.02645460526702
H          105.05375011701325      126.15874709681964      117.84188716747258
H          104.17678267649781      126.33392239361596      120.15482945419713
H          104.36347255597721      124.59458264453298      120.36758194398243
H          102.71279654553186      124.17906610503378      118.57304764812388
H          102.53542089506747      125.91528361712069      118.31305728830415
H          101.76638371662457      126.19746321604634      120.65362541686390
H          101.93060136915778      124.46499007637551      120.92823253233853
H          100.04002256846611      125.71822268843609      118.88779449914972
H           99.58749198157116      125.23205852215240      120.51977957941416
H          100.37384461921697      122.87882514144756      119.94182047194528
H          100.51745522991521      123.41140668428790      118.26801181493015
H           98.09489677885925      124.06668929489335      118.30088061851951
H           97.97203751883647      123.44723156677692      119.94655832932783
H           98.66960448674789      121.18452156754844      119.12269929954165
H           98.74003524565578      121.82374734496841      117.48250258602448
H           96.29117073920330      122.44799686439497      117.69474108635467
H           96.25865945262183      121.58730780715368      119.23342945831821
H           97.00446730314263      119.50555951249537      118.06045841439767
H           97.01753629200145      120.38688602370775      116.53358058494628
H           94.55875031874174      120.84697012244611      116.82838760712748
H           94.57535165605670      119.83771156762342      118.27480821164838
H           95.36602969474399      117.90920780639283      116.91880085015708
H           95.37586574244926      118.92440658204040      115.47781454163359
H           92.91794722269358      119.25384010214641      115.69818576826142
H           92.90601115834716      118.21242739624938      117.12077683785887
H           93.72220378756350      116.31228907930733      115.77958439069255
H           93.88939416854113      117.35250207739334      114.36620482640897
H           91.42478678569240      117.75718762286286      114.38987081293773
H           91.26388460902650      116.64555121109953      115.74828583502928
H           92.13542242889177      114.79106111525574      114.37984751880680
H           92.49142685861311      115.91054477005366      113.06300092734632
H           90.08253223702175      116.40173319237687      112.79806611997263
H           89.70106857340852      115.31538809532623      114.13253958178623
H           89.28920597809800      114.22499225023367      111.98387122397399
H           90.57369321412875      113.39338681243231      112.86160233778752
H           92.27590737141759      114.32221696038776      111.42635508195339
H           91.16154690297623      115.51734046906063      110.76718514048476
H           91.60585738092216      113.76441561614351      109.14652393476734
H           89.90232073062978      113.78187996859950      109.59978159124503
H           90.77746956363329      111.50879628353627      109.37251833335792
H           90.19318442325265      111.80437804429512      111.00479621294808
H           92.40870744556783      111.88279763306531      111.90224378219332
H           93.12938862977724      112.14283362126075      110.31346602314311
H           92.55012609690064      109.87305219217652      109.61648456245173
H           91.66904872906974      109.59575508204368      111.11610395786217
H           93.75778489715439      109.74741519516212      112.41367809771512
H           94.66471515590939      110.15130639284017      110.95598284929670
H           94.25702248581108      107.96810274809521      109.99319387408312
H           93.03779104690881      107.59872799781662      111.20772342352143
H           94.97458108733775      106.33888178831545      111.72495861621495
H           94.79244150177449      107.57533405804722      112.97082019523076
H           96.64533485475548      108.85320429403775      112.06548027906415
H           96.65674342897131      107.89188929767568      110.58622616695321
H           97.25212686234960      105.87160639980021      111.88644572340050
H           97.29374634185854      106.82116437976025      113.37055837038730
H           99.20157017304491      108.10822493580301      112.56757914357128
H           99.03779134482950      107.43178705723960      110.94826989099813
H           99.52627948258714      105.15675410984021      111.85957021267248
H           99.78510207011959      105.86483833013133      113.45197970657532
H          101.64392560547425      107.23615747291799      112.54662111849592
H          101.34191637151426      106.59239048196666      110.93487927818080
H          101.88198475954873      104.30141798763607      111.74964164601884
H          102.23946086123964      104.95966972900615      113.34717881440169
H          104.00829168750798      106.40974171862398      112.32328482843997
H          103.65146509850581      105.70076166467823      110.74970082269314
H          104.26780780308509      103.44292180448230      111.67159145092229
H          104.74694236594685      104.22222329559125      113.18115093717128
H          106.37530644559880      105.63261826625305      111.88917918603555
H          105.89971026730430      104.78477013089913      110.41821656650814
H          106.56387214872542      102.61051550159962      111.68362482557653
H          107.41895835204093      103.67286101978692      112.80287524873022
H          107.82667930350308      103.58456968314846      109.78283505323577
H          108.83588194211744      102.72367820385981      110.93934520779725
H          109.66959239659703      104.80657930034975      111.87765936794696
H          108.51642979427685      105.75612106448942      110.93756403311760
H          109.54492323095019      105.02698127134296      108.83649332972705
H          110.67101725502857      103.99167332149905      109.70710811239802
H          111.78022769099604      105.91234104728984      110.70724997154593
H          110.53602607161835      107.00633043171837      110.10335806643229
H          111.20755397465304      106.55759055135783      107.78474057394136
H          112.33904037759746      105.31761974783775      108.31837196228626
H          113.57335072145629      107.30476264819033      107.75567130682222
H          113.68720343637536      107.03681887168987      109.49522310293717
H          112.03932092764379      108.80467175403082      109.91739380604801
H          111.73644301683503      108.97834646615627      108.18980005959818
H          114.04924672170192      109.76978057970233      107.83659934875024
H          114.44079221425881      109.43214472506175      109.51937138439337
H          114.11367241727638      111.77363767089868      109.41607093175944
H          112.66530868467954      111.12977920150708      110.18715855293415
H          111.52614892031032      111.21587110767987      107.92275053066923
H          112.96279160635027      112.02126648292916      107.28893204076930
H          112.62137029157643      113.90200662548679      108.85930915224193
H          111.28558667569590      113.04359997232680      109.62095621555370
H          110.10143208052199      113.03226530358513      107.38702733910712
H          111.36129363548244      114.09327311200221      106.75990982700621
H          110.76161696786409      115.81854940534787      108.42520358971751
H          109.62230234185013      114.71265929867585      109.18486673722684
H          108.35478358173296      114.61146654102471      106.99785976776965
H          109.38383485471779      115.90640232425416      106.39097333060730
H          108.58844638968507      117.41456598675751      108.16671294417569
H          107.72967761414789      116.08962250812203      108.94266258268831
H          106.29806237992524      115.86278855735659      106.88068172634395
H          107.05516254707290      117.31715701462812      106.23655631673870
H          106.22952576121912      118.63414419174583      108.14473263840286
H          105.63005511699950      117.17506610722467      108.92669873006096
H          104.03192870221073      116.83037799543595      107.03498750651774
H          104.57954012773081      118.34164413181287      106.31513242466902
H          103.84023879722312      119.59653528337945      108.30249427968319
H          103.39654638629446      118.09603296906208      109.11190734433445
H          101.61529797644035      117.68069064687765      107.47563917471680
H          102.16467000341284      119.03332091717579      106.49042887224005
H          100.23961871957685      119.80512105764971      107.66576900489018
H          101.64705692122968      120.58744107101433      108.38525471608337
H          101.60509360446954      118.84091296725683      110.20815217573566
H          100.09072339996099      118.23522861768012      109.54054091203643
H           98.94293569422850      120.30311279287390      110.04598282739809
H          100.46130154348857      121.14664328183551      110.32788381457418
H          100.90134655494934      119.61860451281063      112.27537455886059
H           99.27103854161059      118.97527230103769      112.09759993237560
H           98.28073739727394      121.12746430210191      112.58096221062529
H           99.83091290866268      121.95044923391042      112.41444895921683
H           99.19918473554114      119.94128439859800      114.61883594140320
H           99.06726448977604      121.69312423673570      114.77737440824457
H          101.51146158161657      121.85963463803471      114.12885720881434
H          101.60354953674070      120.09985456730114      114.23706627610500
H          100.87792643448603      120.24224373042836      116.63378488990580
H          100.84358354044026      121.99982110708548      116.48443101718846
H          102.93550472347938      121.56654865378546      117.47987520849084
H          103.31391630381270      121.86131816192510      115.78934998837069
H          103.24173489330157      119.29097620595947      115.48821509480031
H          103.18717000850575      119.19853553833877      117.24460163174938
H          105.33133858185205      120.58760568596608      117.28672255781719
H          105.39827873258933      120.40229710757563      115.53482816357382
H          105.32296883513959      117.89608442476917      115.85733477236650
H          105.44187983987514      118.15893928340954      117.59692144571534
H          107.63586609448913      119.29474164440309      117.27212189243923
H          107.51482966057237      119.02707019297847      115.53393276571968
H          107.42325531134236      116.57220181465068      115.90984752004699
H          107.52961093916655      116.83122021049826      117.65073280323061
H          109.77161096797916      117.84718385169670      117.37689688450146
H          109.67326252928015      117.62733747409953      115.63169902873474
H          109.52016820083475      115.17361980557685      115.92476992470517
H          109.51786113942723      115.36799247072233      117.67700516701470
H          111.78062720411704      116.38915883242998      117.56743781688976
H          111.80090307274538      116.16510941192806      115.81991010737318
H          111.66608271575777      113.71746914168563      116.09864121083244
H          111.52621465125891      113.90100109414881      117.84614355441552
H          113.75799876309149      114.96271651125032      117.93094312170963
H          113.91720054713572      114.80549059779452      116.18166621643341
H          113.82535715755563      112.33608555554568      116.39053812847790
H          113.62918744274651      112.48008355182890      118.13493657891547
H          115.82591371569288      113.60024347309428      118.30690293671097
H          116.03150600222727      113.51201873215076      116.56043214899104
H          115.85299888683039      111.00769911625899      116.71131360276192
H          115.82166270066925      111.14243981515069      118.46435219022705
H          118.09537280927952      112.01005696925269      116.62464790396227
H          118.05131792871825      110.56001564113072      117.62777362492214
H          117.93896463757163      111.99597438403831      119.66687435622759
H          118.02766463047487      113.43087492149888      118.64337280686378
H          120.20622674842167      113.05142572605517      119.50931236841089
H          120.25117033017050      112.66267524031910      117.79209865584644
H          120.19650717448754      110.25478967139559      118.30435862163895
H          119.96816337675237      110.59634187795690      120.01955457701173
H          122.15832534387256      111.76794674234949      120.07149845117897
H          122.40219945853110      111.40429516908222      118.36746774710204
H          122.03453261150896      109.26876906846447      120.51049187384102
H          123.60214095184249      109.89936645357042      120.01165421670071
H          123.07409882705615      109.18719844077773      117.64601559321557
H          121.64071041321765      108.36687007911711      118.26365842115212
H          123.07314537772989      106.97459755262378      119.74688570959255
H          124.50141847989663      107.82832405676515      119.16559520926779
H          123.92053620343391      107.05314733712109      116.82149841568118
H          122.64952439899510      106.05223308644463      117.52422546219351
H          124.36296018792076      104.85290438068320      118.88912466792071
H          125.61993231703296      105.86924031413109      118.18870674649399
H          124.92710959370882      105.01855784790511      115.89772545305725
H          123.85145583369413      103.88023205771164      116.70401211075705
H          125.81224567048676      102.90577938100968      117.91365619523098
H          126.87368948131486      104.04781356380542      117.09145413201368
H          126.12472930631995      103.08649745415276      114.88379374859662
H          125.18572736944773      101.88406587423734      115.76319301004344
H          127.26554288707590      101.04105942806397      116.83515657317882
H          128.20459539825606      102.25563345384134      115.96762482140296
H          127.48930202860682      101.25683176310332      113.79423768054681
H          128.31878556969824      100.06863542574091      114.80118556322708
H          126.55984513454577      100.03481625792905      114.66387780424604
H          129.37449523779199      115.76530630463719      102.59446525511116
H          129.26537088987652      114.85468550212872      104.10168921765217
H          127.80841230850407      115.19369844186711      103.16755533524118
C          119.48327525548910      107.51860432793247      126.40502106372013
C          118.30054980881020      107.92433012196089      125.53447659846161
C          118.14817651769374      109.43813269071833      125.38291658571013
C          119.28581741140790      110.08528868523015      124.59606165066535
C          119.01665627905982      111.56063618973756      124.30362192248120
C          120.05824514873633      112.14263963490531      123.35076449704323
C          119.83889854237883      113.61995457732748      123.02222922179010
C          118.48527046421073      113.89265625725155      122.36485222675813
C          118.46094714521911      115.21803788627312      121.60663324718610
C          117.08382795905359      115.50408330213149      121.01067480955443
C          117.10593951832594      116.67697128533713      120.03298771062580
C          115.73115310271449      116.93359979166225      119.42129160677322
C          115.75631338985507      118.01467766488621      118.34338308883410
C          114.38127185969086      118.21415034822945      117.70903876032185
C          114.40244875937699      119.24905366659473      116.58816962099021
C          113.02321013388166      119.47403171173696      115.96843181904691
C          113.06700858063650      120.57046495583674      114.90763210151158
C          111.74280504693692      120.79777618622033      114.17951350011036
C          110.60802129152600      121.29714172039046      115.07712271587778
C          109.53336867384458      122.01725838868941      114.26234648656509
C          108.30728684740536      122.39325995243179      115.09327161510609