3864
 energy: -5104.254803406074 gnorm: 0.000807892025 xtb: 6.6.1 (8d0f1dd)
C           53.13535430494569       48.82036888131745       62.46303942032664
C           53.23775726481464       47.88314047071460       63.48251485106504
C           52.45360179065329       48.05113373808143       64.61868716681126
C           51.58454930532820       49.12226695933105       64.72415422682919
C           51.48046551329643       50.04315209795418       63.69530400486267
C           52.26382026821670       49.89066634606954       62.56475392108320
C           54.19601475835683       46.72320136490435       63.35815672835261
C           55.36007917871696       46.92287687458918       64.33105006931734
C           53.45655746257462       45.39921498010818       63.60093013539940
C           54.23191201669099       44.14750235956473       63.15811879089641
C           53.70553978880599       42.94380787373152       63.90041713374016
C           52.37806551853732       42.54827612711855       63.77935181591245
C           51.89397080447753       41.46693712069580       64.49232896446986
C           52.72716818516869       40.75478198694992       65.33779721816333
C           54.05193050343487       41.13580044386228       65.46279745180075
C           54.53278680612253       42.22187305858910       64.75180271999224
C           54.15096524645068       43.93559297156085       61.64025410358285
C           55.23759435363512       42.97185555357600       61.14563613104362
C           56.60849205788976       43.56993604289789       61.34794178432510
C           56.99213989455812       44.72155282608674       60.66927056846444
C           58.25664413962399       45.25544473908759       60.82983790776730
C           59.16789580635513       44.63980565157460       61.67095320196928
C           58.80126838655661       43.49300821258072       62.35318441474142
C           57.53070726390278       42.96784544903088       62.19382271526406
C           55.04652919138847       42.60065875317458       59.65971158819667
C           54.43446471102014       41.20874875507936       59.46700943872854
C           53.02219350986683       41.13161605810635       59.99487826869576
C           52.01370903571254       41.92372724507879       59.45670642439162
C           50.70788825639385       41.80125256230848       59.89007838580880
C           50.38835999139926       40.90160474033827       60.89170620116556
C           51.38462445280539       40.12119549719733       61.44822866633301
C           52.68788485730109       40.23108992456500       60.99619976938479
C           54.40680856600133       40.76722680186788       57.99122144062476
C           55.74204964691197       40.78582114855080       57.22610155174435
C           55.46085528169458       40.43303490467883       55.78407409274408
C           55.70437928442133       41.35755662490459       54.77664660775046
C           55.38992712744222       41.07286304702569       53.45927308426629
C           54.83242702788320       39.85145720907943       53.12831545362474
C           54.59279528911801       38.91631101446437       54.12021162846205
C           54.90416192892540       39.20740566879820       55.43514565660890
C           56.79034728367739       39.87481257801176       57.87284806692447
C           58.22357383198270       40.15074606274807       57.37771865443438
C           59.18251854992940       40.03825345912496       58.53913632778767
C           59.25238319351660       38.87763610739205       59.30135107177662
C           60.07208999923895       38.79822860798514       60.41197134955549
C           60.85187689691750       39.88250888693472       60.77643162839924
C           60.80258023263331       41.04129244151766       60.02191317625098
C           59.97262111359727       41.11513021202848       58.91754572006832
C           58.61747213119678       39.22085653550407       56.22364253473688
C           59.89623606746679       39.69987262270116       55.52251744855778
C           59.63082277704012       40.98024256317734       54.76745689373280
C           60.19028975016020       42.17979430890315       55.18460732944490
C           59.94211460874177       43.35704888586491       54.50090644068082
C           59.16129739156270       43.34663239120495       53.35967264856681
C           58.60487475559651       42.15599119755080       52.92764391060526
C           58.82299854925324       40.98941895221436       53.63609825690279
C           60.45236251146092       38.64898080579043       54.55171269231076
C           61.10434442544102       37.42601547986763       55.21809803850037
C           62.26136503977785       37.88071314176512       56.06960350569479
C           62.10799899574346       37.95432998987958       57.44903217524111
C           63.12018939419131       38.42916004483544       58.26210966831022
C           64.31144774201512       38.85254112562841       57.70073985795641
C           64.47619285497063       38.79066657016804       56.32729534916853
C           63.46426112200503       38.30585983865954       55.51816129129892
C           61.50250467957483       36.42968886804986       54.11986566892081
C           62.26782606106783       35.19047058955960       54.61591003676254
C           63.34406012689780       34.81020087987325       53.62717154884842
C           64.64183142565447       34.56117688108778       54.05475869909390
C           65.62697141145155       34.18602367691883       53.15696266040397
C           65.32635168132963       34.05701817536531       51.81162800152047
C           64.03565292400990       34.30328365657625       51.37468126272427
C           63.05269242625775       34.67215597103608       52.27405373299757
C           61.38076755614070       33.94651091121369       54.79908848073748
C           60.31815146497608       34.01085450975314       55.90981690807961
C           59.46489191553489       32.76916804973794       55.80422462115812
C           59.97500155514903       31.51260679796851       56.11098590729266
C           59.19423729936059       30.37850974201401       55.97944924925853
C           57.88673139911194       30.47747140731073       55.53411909633118
C           57.36677225653003       31.72130153391323       55.22611120146934
C           58.15109114855679       32.85441930139419       55.35982234047437
C           60.96199893240074       34.15820398131912       57.29696845793355
C           59.99174102999071       33.94168865202329       58.47213676647053
C           60.75449825140122       34.03242613426974       59.76961966599062
C           61.31797552844399       35.22873459197780       60.19760457931189
C           62.01579388512370       35.29862382813444       61.38933087014478
C           62.16834043569438       34.16901039474553       62.17501344227906
C           61.61978921910345       32.96931805273124       61.75557841507920
C           60.92029347221567       32.90460852937487       60.56338565481204
C           58.81349014027966       34.92397255473386       58.43042513171032
C           57.92703029146646       34.87329738251292       59.68636144092554
C           57.60528544615516       33.45620927183811       60.08633325544180
C           57.05889649322490       32.55850758167108       59.17583135848909
C           56.75705625105800       31.26383040759937       59.55509969970831
C           56.97041155241340       30.85202973000586       60.85922464398935
C           57.50358728491431       31.73861562313555       61.77883987765022
C           57.82691690505353       33.02618997038967       61.38861190894158
C           56.61632538381141       35.63983811786738       59.43873858860763
C           55.76888283951874       35.77111933707805       60.71141183774229
C           56.44198141796006       36.67310713852801       61.71953821542783
C           56.77884360499553       36.20941229783445       62.98403503930962
C           57.38852308232290       37.03929645969227       63.90924148971980
C           57.67306695248485       38.35431338619179       63.58412275843430
C           57.33637541405409       38.83216067972556       62.32944476298140
C           56.72326710681878       37.99932854064916       61.41292814548481
C           54.35667204960072       36.32389174400458       60.44754795557854
C           53.52122224804239       35.61373107014165       59.36712379786228
C           52.23188169135367       36.38493584759036       59.22522145644794
C           51.97680981647462       37.13288899752146       58.08408380029161
C           50.83707447773381       37.91091794036046       57.98847980332475
C           49.93016631127085       37.95116514477559       59.03023678507444
C           50.16363925457004       37.19426462673663       60.16585067235444
C           51.30722043144934       36.42446239899963       60.26200923161203
C           53.31151519865079       34.12060870860293       59.64999737076533
C           52.67427261067879       33.37254703606934       58.46243815178409
C           53.22825759221194       31.97520926884531       58.33691789228175
C           53.79914939414175       31.54001087503161       57.14777079550102
C           54.22619072373185       30.23242333494052       56.99932220784000
C           54.09804910317080       29.33879553644722       58.04808044843503
C           53.55292711030474       29.76620869167355       59.24775007258310
C           53.12231221323365       31.07212854499341       59.38853430949395
C           51.14452291759859       33.28528408991399       58.57594707027524
C           50.53054839038844       32.69809002918985       57.29700120005908
C           50.41831099720883       33.72686249472536       56.20248131278813
C           51.01391691892591       33.51163781580579       54.96628436806696
C           50.84371002665294       34.41355517419169       53.92984374020612
C           50.08397191600121       35.55381127828120       54.12080857876639
C           49.50825995949049       35.79058621355674       55.35708014814391
C           49.67115975448575       34.88364161384419       56.38723557643529
C           49.15253608592253       32.07590301072605       57.56736210230788
C           48.56707839637482       31.41633315070600       56.31225927889270
C           49.53944717881672       30.46868275265119       55.65106794212682
C           50.24186227896794       29.51203171130620       56.37491155023225
C           51.13670458292997       28.66406157498161       55.74715402582435
C           51.33757338560628       28.74753032861652       54.37972579777586
C           50.63197019762030       29.68430148475097       53.64469313579352
C           49.74332475304794       30.53526358707052       54.27767501697192
C           47.26468246720620       30.65054203707733       56.60392918172005
C           46.09750580189261       31.50330538365420       57.13350042622399
C           44.96183521959729       30.58747352048842       57.52173203768501
C           44.54463457916847       30.49860881175737       58.84409439733733
C           43.52911863158889       29.63749552633182       59.21944495941508
C           42.91093073380075       28.84201287644611       58.27085570847735
C           43.31327457470434       28.92288611133030       56.94871243552504
C           44.32484718749981       29.78946814833098       56.57829472240317
C           45.64227275514813       32.55294323952115       56.11381548817062
C           44.58744354638804       33.51444659264254       56.68053016900517
H           54.60646821449212       46.72443851839377       62.34268934346535
H           53.23566716786276       45.31313096704750       64.66700639931310
H           52.50692351168330       45.43001705097490       63.06299036763186
H           55.28472979393858       44.28112070681735       63.42705795977614
H           53.17114927614131       43.53148212303260       61.38032316458773
H           54.26861510690525       44.89728514219136       61.13765726914235
H           55.16895866788922       42.05923005259302       61.74881860155757
H           54.42242224593222       43.34754888888143       59.16947071107210
H           56.02541906879474       42.61671423466196       59.17808504639301
H           55.04061161398567       40.49763437066791       60.03914790131281
H           53.71962589099338       41.41534856373993       57.44519340810989
H           56.13574269549886       41.80791889403618       57.24186825821123
H           56.77353185092031       40.05620002479461       58.94865670077450
H           56.52787374936925       38.82995770857534       57.70002140678882
H           58.26906223473160       41.17924252531732       57.00256620540603
H           58.76865468322094       38.21366490103948       56.61441517855547
H           57.79932179217199       39.18635089617973       55.50161245316590
H           60.65646853488944       39.89935886606560       56.28705779585153
H           59.64635944550077       38.30101192041579       53.90447246729262
H           61.20211866902167       39.13430132956386       53.92209761149834
H           60.37229572266732       36.94912310168540       55.87534194239722
H           62.75310588261448       35.42778636499031       55.56747429523740
H           60.87903967970520       33.74142290541443       53.84972554580979
H           62.03751468685244       33.09506054815063       54.99883507511557
H           59.67656186047197       34.87504609723096       55.72205526928967
H           61.77553751715284       33.43484558489436       57.39590244461024
H           61.40530725934477       35.15161587265119       57.37841879930065
H           59.58623317424108       32.92721795755170       58.39482806928400
H           59.19338164323673       35.94041041142554       58.31226248284794
H           58.20670868145562       34.68297970035169       57.55729726262089
H           58.46333537349573       35.34985083515114       60.51507485601624
H           56.84104892210192       36.63291420908597       59.04689859206499
H           56.05266976621632       35.09344416416644       58.68302616167568
H           55.67449632814543       34.77655080663156       61.15798423901001
H           53.81512045840697       36.29485457389397       61.39611925850807
H           54.43499603704021       37.37358765736251       60.15275963367673
H           54.05942549933066       35.70043169616386       58.41901561103894
H           54.28611378430453       33.66993347559777       59.85165341164614
H           52.69710682804510       33.98878079430141       60.54124233101982
H           52.90806120742214       33.91391915334744       57.53900651462479
H           50.88485101980910       32.64928453322644       59.42507309829833
H           50.73854807585236       34.27799721787638       58.76756693797562
H           51.18742887634764       31.89363854407702       56.94929226934187
H           49.24377689751770       31.33942690792139       58.36847142939119
H           48.46944201743705       32.85357703531682       57.90967592814302
H           48.35427236367846       32.20855782661900       55.58870960070623
H           46.94972844174128       30.15322841049235       55.68289285871179
H           47.47846252618302       29.86693173476389       57.33667032359315
H           53.75604766690011       48.71216863547628       61.58517834127444
H           52.19777285329464       50.61422375212430       61.76377221927142
H           50.79685139324231       50.87651598499173       63.78002922242641
H           50.98695349771788       49.24032954263032       65.61625460735756
H           52.52056565945803       47.34639202732745       65.43540475278522
H           51.70730691528376       43.08702323957309       63.12724016961363
H           50.85810403215425       41.17959972722067       64.38473759754042
H           52.35187817115750       39.90901078097611       65.89649027295376
H           54.71176040610342       40.58723879250733       66.12101008506629
H           55.56820535816620       42.51668774098344       64.86312914015234
H           56.30103428875880       45.20568309622463       59.99545064018513
H           58.53437599253941       46.14989547891516       60.29249650636977
H           60.16005754419239       45.05116350212288       61.79276843235647
H           59.50706414289864       43.00392441898434       63.01087390539994
H           57.24990394521179       42.07479732126681       62.73621213464313
H           52.24668970298894       42.64414245571368       58.68597984230541
H           49.93568452377954       42.40441731940330       59.43700853952611
H           49.36886177714170       40.81394160376368       61.23701973224848
H           51.14728092839095       39.42032768050528       62.23475033423226
H           53.46021395182067       39.60917656375106       61.43050525466618
H           53.99010362867393       39.75736215898553       57.96179871174176
H           56.14980657029324       42.31224468010652       55.02091837532644
H           55.57656874470106       41.80797185422076       52.68973273719297
H           54.58611004059244       39.63000444584181       52.10050777839424
H           54.16156824391145       37.95843257425749       53.86830464702147
H           54.70958879287669       38.46657996838483       56.19659542096358
H           58.64318099349786       38.02580484549578       59.04029105623231
H           60.09408592246560       37.89278753208094       61.00253542244979
H           61.48973749857748       39.82650495585095       61.64813824531510
H           61.40373784847188       41.89576490524394       60.30180798445022
H           59.92997792733243       42.03006426874033       58.34591373513633
H           60.82959095621115       42.19383966064832       56.05741249885022
H           60.35826854093003       44.28382762210113       54.86911174049005
H           58.98370165211850       44.26098151777255       52.81246464172698
H           57.99300068281376       42.14239325414599       52.03767970448161
H           58.35341424798841       40.07613081143788       53.30369792661142
H           61.17115057386672       37.65621573321944       57.89694403596812
H           62.97204814742725       38.47952938266460       59.33147367065821
H           65.10601925282663       39.23245534000917       58.32761676585986
H           65.40085396003313       39.13310318698201       55.88454570225937
H           63.62085236980264       38.26273679998778       54.45017390199013
H           60.60124641245675       36.11041216756229       53.59370869568709
H           62.12627165368318       36.95266089992278       53.39150657454622
H           64.88655446247061       34.66674468705078       55.10326637489310
H           66.63274770344948       33.99983860794258       53.50672908397748
H           66.09603483581924       33.76989106711175       51.10951277220554
H           63.78894904509774       34.20472817713795       50.32756319510518
H           62.05130351930536       34.85201191704998       51.91252277717928
H           60.99368575842720       31.41414048408771       56.45795537700955
H           59.60925297131445       29.40998088037987       56.22318352361066
H           57.28276978349520       29.58817066589760       55.42414886806044
H           56.34792899787927       31.81236959466585       54.87796261405602
H           57.73071398487854       33.81821665774074       55.10859217595109
H           61.21562361053216       36.11951321500609       59.59803165253141
H           62.44437163521365       36.23883850369855       61.70767768308441
H           62.71278243312780       34.22221188824226       63.10708898508450
H           61.73525722230717       32.08106537554250       62.36078231447350
H           60.48997253540613       31.96384377307621       60.24729606739668
H           56.87617902574772       32.85681246147789       58.15393679256850
H           56.35012218417806       30.57624396689091       58.82875306512879
H           56.72676262941082       29.84220601522057       61.15663891184865
H           57.66982352552879       31.42439268271727       62.80022371583306
H           58.26504009246892       33.70814388419548       62.10484728680062
H           56.56278633743845       35.18479969196058       63.25084771974667
H           57.64414695669050       36.65621797844331       64.88799053316264
H           58.15391163328746       39.00142206208135       64.30457414583749
H           57.56136472841752       39.85426811769572       62.05913670675728
H           56.46425109821907       38.39239791423254       60.44233363120055
H           52.67687179158901       37.11336813203111       57.26019437694259
H           50.65764333109414       38.49722954064741       57.10148614869308
H           49.05496186595553       38.57905296219921       58.95687027756016
H           49.45405458831496       37.21444212279648       60.98177264605678
H           51.49736059251289       35.84963589029154       61.15664862481411
H           53.90126504198977       32.23160350473216       56.32279567588480
H           54.65677511092060       29.90836970222468       56.06239541568824
H           54.42664449978962       28.31441018024422       57.93610437628069
H           53.45854696019761       29.07396858245121       60.07359888724286
H           52.68740441544348       31.39035026565061       60.32564468217605
H           51.60318067342867       32.61700035266487       54.81248703012140
H           51.29837883539724       34.22624157997397       52.96709694719975
H           49.94310840140250       36.24593108409510       53.30526356461603
H           48.92267244641889       36.68379707013728       55.52540532871518
H           49.20698698176363       35.07399710779299       57.34333628220552
H           50.10260075821058       29.43127712255736       57.44310957598194
H           51.68282651630396       27.93611739868340       56.33075268006571
H           52.03769954509084       28.08553191352994       53.88995345572109
H           50.77758862320679       29.75446743814524       52.57571934372643
H           49.20824003437642       31.27221706537687       53.69527347511369
H           44.61580392805801       29.83932933310020       55.53946361052255
H           42.83824358674248       28.30388723808244       56.20118588920974
H           42.12115280976836       28.16246495895214       58.55996414605608
H           43.22240875586745       29.58764337771855       60.25494317662265
H           45.01473891787084       31.11485983574712       59.59733410586218
H           56.09919857747217       46.13267132130913       64.22173577312395
H           55.85198399590728       47.87316034177631       64.13011298886255
H           55.00304025115038       46.92796266963729       65.35864237549103
H           46.43231240568378       32.02489057447353       58.03514281338092
H           46.50648815041681       33.14266097895076       55.80864565666548
H           45.23423342557387       32.05566079016201       55.23237336597810
C           44.10168746435621       34.49160697336438       55.58884845976156
C           45.15742625381264       34.25312483958849       57.86460745419042
C           46.20507906708823       35.15570552280106       57.71238534205218
C           46.73680493165819       35.81452766744761       58.80676865914532
C           46.22476791715101       35.58490329706639       60.07383770356103
C           45.18708689073671       34.68393405971680       60.23720709604707
C           44.66068400330067       34.02594598619207       59.14043262642811
H           46.61434337013340       35.33728706847970       56.72890102555357
H           47.56249073424118       36.49985264974638       58.67713149453886
H           46.64177309278966       36.09776823574670       60.92907163921259
H           44.78320954498404       34.47086512904856       61.21647251970555
H           43.85358711869657       33.32252924825007       59.28337117794091
C           42.66984150438671       34.20422774456844       55.12440821605419
H           44.12503238179882       35.51169841002520       55.97658210142674
H           44.77495126305757       34.44873441170601       54.73182000889534
C           42.49966549077487       32.80680356541836       54.60098946466730
C           41.65032133911675       31.90971810507540       55.23394133794282
C           41.49782830597180       30.61901354661726       54.76071910773724
C           42.20845747219315       30.20006561752646       53.65117023686129
C           43.06349864137312       31.08242606320897       53.01218948304084
C           43.20035757293074       32.37674692790848       53.47881297281691
H           41.09550354679642       32.22005656807805       56.10881941961866
H           40.82669666884512       29.93956184869452       55.26611566603279
H           42.10113223753203       29.18874792135311       53.28400595758603
H           43.61901487177508       30.75586607887303       52.14485371425727
H           43.86651593955965       33.06004733976678       52.96992506025654
H           43.73792622754487       32.91616519161523       57.02726422612929
H           41.98518593213844       34.36274919084079       55.96093718578364
H           42.40387950127128       34.91870519249939       54.33934862783471
C           56.15738667610351       48.58974272873125       30.01263673518207
C           55.60908538254741       47.37657305730853       30.41271602783777
C           54.31829710943763       47.06757719819717       30.00359490846518
C           53.59182623185389       47.94504174441880       29.21791391142241
C           54.14682813688201       49.15222714164425       28.83066689419728
C           55.43341697680161       49.47147505749876       29.23118295498706
C           56.38646609535589       46.40698926481397       31.26545259071945
C           57.55966001719562       45.82436451668958       30.47106181842614
C           56.90231629287958       47.05815883955727       32.55580355548430
C           55.83661954633455       47.86670145523234       33.30954954136919
C           54.58276876308186       47.06909253358076       33.55694089610208
C           53.34981259613691       47.55094033626587       33.13606551994347
C           52.18620918761214       46.84482873965418       33.38679229540696
C           52.23472252641570       45.63986978578419       34.06610785561326
C           53.45998057459892       45.14604065946475       34.48179253381672
C           54.62136839148678       45.85233669722814       34.22803143208090
C           56.42315510360623       48.36925082891575       34.63600757902945
C           55.60270578966615       49.50089738432491       35.27433378667192
C           55.69462538023777       50.75049827302272       34.43990128917663
C           56.89432734627738       51.43925624605038       34.30046866293949
C           56.97162427825420       52.57930198304985       33.52158152972884
C           55.84894418384314       53.04848277861631       32.86066158134827
C           54.64842130052726       52.37234147642418       32.99167949935472
C           54.57463631154077       51.23603069746532       33.77750467365440
C           56.10230934354761       49.71112090344101       36.71053096448852
C           55.62492112460491       50.99867864344530       37.39334658259656
C           54.13210309563303       51.17287001653348       37.29510366733854
C           53.26106996462306       50.22713944983472       37.82266920466101
C           51.89247027488942       50.41367063045658       37.75882313947530
C           51.37196509266790       51.54882787311082       37.16149069178691
C           52.22836412976859       52.49445026603821       36.62555454444869
C           53.59678008332116       52.30475764402870       36.69286197500058
C           56.07193710681856       50.97367987892162       38.86288863175255
C           55.82215955646975       52.30780548465536       39.58048332733416
C           56.76455378390962       53.35942366903332       39.05694726677675
C           56.27206168078416       54.43349489671946       38.32629405430097
C           57.12284215432253       55.39036235819946       37.80209989458447
C           58.48808662034047       55.29077025443812       38.00633924613446
C           58.99262494379939       54.22356328568510       38.73050845340342
C           58.13920926446234       53.26529732360147       39.24676439428718
C           55.91160736097636       52.10464692659835       41.09946292852326
C           55.60929510928740       53.37217987591362       41.92666739679711
C           54.68016526778559       53.04040757233346       43.07113880536573
C           53.45135501268268       53.67794735773645       43.19897953480613
C           52.58491414400845       53.34715211669004       44.22715964489905
C           52.93114085751421       52.36967766572239       45.14440752515960
C           54.15509510546443       51.73315844199895       45.03188271974380
C           55.02017370117697       52.06661656255310       44.00456868775468
C           56.91312022682414       54.00431777446638       42.43137253507731
C           56.70970801423891       55.34862175663477       43.14298634344271
C           56.03051313127997       56.35393307951128       42.24959858836578
C           54.80915343741769       56.90733435624789       42.61616849780871
C           54.19891369940542       57.87576474667931       41.83801099548911
C           54.80859505240351       58.30855116088842       40.67318054491139
C           56.01605023728829       57.75087250446843       40.28504267189249
C           56.62003915158383       56.78100857300414       41.06439130710734
C           58.07799041803877       55.86303517795614       43.63104843982463
C           58.08464774768943       57.33017969313296       44.08915913260272
C           59.50985592856139       57.79629403406519       44.26033164254877
C           60.32529527976017       57.27986954877946       45.26028960253387
C           61.63742715546559       57.69198608865312       45.39536621543283