3864
 energy: -5104.196759054951 gnorm: 0.000996393712 xtb: 6.6.1 (8d0f1dd)
C           36.72126927117299       42.47741792029945       36.55391646446941
C           36.82994868615897       43.80662856787789       36.94869484274033
C           35.88262997267967       44.71097019995683       36.48614420435513
C           34.85323565908784       44.30505038592866       35.65521714923325
C           34.75646940240451       42.97943977709112       35.26961069868445
C           35.69603274608703       42.06810370129834       35.72151039639879
C           37.93723469095634       44.26177883570725       37.86706615737449
C           37.70939528392166       43.68441390317840       39.26479161877343
C           39.30356314554035       43.86276496285242       37.28308161932836
C           40.50742671527944       44.57090422449843       37.93335579161324
C           41.65713299920033       43.61276910315077       38.11659296310929
C           42.27339406858447       43.48445038057227       39.35342466036490
C           43.31657195057396       42.59483944977953       39.53694898362193
C           43.76787998158719       41.82731670074556       38.47891777142413
C           43.18175934181161       41.97149777788177       37.23243909182784
C           42.13227290164767       42.85472997619642       37.05314821989099
C           41.01561060365926       45.77268409484975       37.11848620298078
C           40.01402927581466       46.93110834308145       37.00468538750876
C           40.45010435483853       47.89830915754055       35.93342618493002
C           41.69795652788010       48.51164014228424       35.97569224143853
C           42.09867106675650       49.36821250432464       34.96701432034154
C           41.25694495283821       49.63112518923450       33.89936896275285
C           40.00992332281115       49.03470536887854       33.84993431220708
C           39.61276300479041       48.17713926993902       34.86056103406320
C           39.82016568446946       47.64485426145916       38.34856153508199
C           38.56720311118239       48.54469221146221       38.35913771720274
C           37.69748351276972       48.21842327763628       39.54828370182005
C           38.20187364558181       48.31623998558130       40.84178524447966
C           37.41773042960233       48.00118018799817       41.93646146918980
C           36.11087540903728       47.57759991942674       41.75563469654669
C           35.59315318483404       47.48492675545997       40.47598922074192
C           36.38214316505012       47.80457658050702       39.38340597546640
C           38.93388206475819       50.03421964134314       38.36402055487195
C           37.70369585470737       50.91143904929898       38.08321238985118
C           37.39681612044506       50.92220279495794       36.60802223828758
C           38.26343502928471       51.52651641423739       35.70445377466078
C           37.97949222890287       51.54673177422531       34.35312140086144
C           36.82515824918800       50.94827605850227       33.87726836561290
C           35.95428581151462       50.34188100281923       34.76477581867147
C           36.23778035457296       50.33532981453580       36.11946060177986
C           37.87961456252055       52.34355167775181       38.62232868741592
C           36.93358186408290       52.70460110575345       39.78471336709269
C           35.49717856977061       52.66758282632821       39.31785404486741
C           34.69576185796946       51.53278242586795       39.39038405861522
C           33.39367331634833       51.55298181551132       38.91967390292642
C           32.86463299313167       52.70304947649782       38.36268419815966
C           33.65053525139685       53.83934392143081       38.28524956243201
C           34.94695166852181       53.81931986515035       38.76486765887199
C           37.18407232021940       51.85859221170881       41.03561376508611
C           36.32411312602090       52.36074376830991       42.20662352520081
C           36.88155273306796       53.65319878448448       42.74659021382756
C           36.18587368740850       54.84567101053103       42.60362656279838
C           36.68969504899298       56.03323816990846       43.10778540836318
C           37.90550179606700       56.04304421312787       43.76667440807019
C           38.61605179140098       54.86330191945204       43.90502817784959
C           38.11218462138628       53.68432249794450       43.39096399210673
C           36.16431613221786       51.30146426260796       43.31542894057623
C           34.72735468502376       51.26096470389754       43.86265480159506
C           34.68054476281888       50.51876057294203       45.17474974899768
C           34.78266907123318       49.13524348213046       45.24625877846952
C           34.70446525834804       48.48024452801479       46.46208381157150
C           34.53837498621822       49.19850084695673       47.63396818890867
C           34.45061887838479       50.57879992982038       47.57996781748299
C           34.51991537610450       51.22687549314786       46.35964963054889
C           33.77797455654152       50.63899416182888       42.83006640461421
C           32.32204779788457       50.51063615051555       43.32264496788849
C           31.83864818666857       49.09382169220679       43.14035630288588
C           31.39513101688995       48.34686273163804       44.22297414101510
C           30.96678348792439       47.04104404998191       44.05721999800183
C           30.97567892152653       46.46098759341812       42.80133857873353
C           31.42033870017276       47.19427960024596       41.71373242387614
C           31.84834166782338       48.49762493689817       41.88375891469727
C           31.37505826897008       51.48060753857676       42.59433672402997
C           31.65189438303694       52.95890073246222       42.91772422537866
C           31.11474466158396       53.86008986661068       41.83426867186627
C           29.76626611172330       53.86069119113863       41.49687443907347
C           29.27924111957071       54.71742299311948       40.52659154838842
C           30.13156402770407       55.59816662642810       39.88149467951723
C           31.47704070122331       55.60200818763006       40.20199120046421
C           31.96081208330010       54.73215081941969       41.16203356015066
C           31.05876218698037       53.35346447961735       44.27888306106058
C           31.47219627568620       54.76433395231575       44.73457522764618
C           30.54838751985695       55.25245820901706       45.82103266444560
C           29.75155944072693       56.36995081551305       45.60695810275887
C           28.89893174562347       56.83595377588881       46.59225604181947
C           28.82928015427349       56.18690357431198       47.81273008627676
C           29.61726407196067       55.07064880459975       48.03699532164366
C           30.46922698519326       54.60777479273775       47.05069967095348
C           32.93129662169078       54.78893578285018       45.20634232763062
C           33.36581565846595       56.12996039457874       45.80665273420134
C           33.07888026262922       57.30822953012014       44.91087672092683
C           33.35058006106787       57.28457613183415       43.54855323653295
C           33.12105799628431       58.39460071788492       42.75604485175621
C           32.61171224226501       59.55394210098569       43.31522568104472
C           32.33825858491949       59.59268944142016       44.67164830305012
C           32.57279894491509       58.48050261409652       45.46045250611052
C           34.87032964040018       56.09863150255165       46.14194028379117
C           35.18107792442481       55.46659490230195       47.50898230226709
C           36.60332367271594       54.96384922968669       47.54736922791604
C           37.67231339341667       55.81212812587204       47.28460803665653
C           38.97206927562234       55.34203202252658       47.29985746986652
C           39.22886336664701       54.01165637332235       47.57820094274030
C           38.17573836106083       53.15913450048279       47.85573275609730
C           36.87586114866598       53.63328791912924       47.83787316402399
C           34.92266969490552       56.49389741288194       48.61951965673871
C           35.18986702070197       55.95643356945998       50.02918173002018
C           34.48084554378934       54.64580465795419       50.26846034408892
C           35.18528477650654       53.53550760567640       50.71687396353110
C           34.54079691737727       52.33235578858434       50.94756498087153
C           33.17683076797803       52.22052932551266       50.73924530574313
C           32.46456772254578       53.32095918365304       50.29377445545178
C           33.11095341752380       54.52132937572974       50.06081813310745
C           34.75182727870700       56.95186212810742       51.11782743290868
C           35.38775920219980       58.34729965950560       51.01707412147393
C           34.71143764358338       59.23669002904690       50.00195037297281
C           35.46402202963862       59.89017527494737       49.03305766718482
C           34.86814785736633       60.71595180285340       48.09827577911167
C           33.49957703288983       60.91231737885656       48.12305969003537
C           32.73896095528668       60.28984143258644       49.09753362932278
C           33.34084598850856       59.46436879568149       50.03065181941383
C           35.36186011863761       59.04403297114420       52.39328628766011
C           36.56192573857354       58.64194322967088       53.26984709651872
C           36.24137720890553       58.91608985187972       54.71780403772331
C           36.09934348037852       57.87549959952074       55.62634485999229
C           35.78381171597048       58.12269092375558       56.95048389235819
C           35.59766481862594       59.42165870194974       57.38836226674006
C           35.72766652009446       60.46826094240031       56.49167996984298
C           36.04459226081541       60.21627245732101       55.16989456920558
C           37.84672686828189       59.36564405540643       52.82150841003916
C           39.08015014766513       58.45391995823596       52.76025560156901
C           40.25673170557645       59.21677227276184       52.20169822881589
C           40.83380216743656       58.84057801275401       50.99573931059464
C           41.93973206869865       59.50799050306166       50.49744819187755
C           42.47586603485672       60.57922987149275       51.19071562220970
C           41.89824010455849       60.97513966353733       52.38582951507606
C           40.80163684748325       60.29751844210254       52.88659389382062
C           39.42665817357513       57.86357092090481       54.13341825189239
C           40.64608937697705       56.93571374215058       54.05962934454094
C           40.41505994561966       55.83940219784728       53.04711940760389
C           41.25365589323624       55.69285091848761       51.94892976818804
C           41.04361187308857       54.68776086546567       51.01940823427122
C           39.98776152878536       53.80884784328570       51.17870825669060
C           39.14974624990069       53.93981997288204       52.27233348298468
C           39.36403526967274       54.94217716039288       53.19911957252778
C           40.99187147260005       56.30179998475014       55.41737826304598
C           41.75612845409002       57.22666549310269       56.37761936207144
H           37.88431333039633       45.35063992551875       37.95171829789688
H           39.42265207661150       42.78277936589991       37.39764729401380
H           39.29401611352844       44.06978038551758       36.20970543683651
H           40.21536191919461       44.92190664637388       38.92659771765303
H           41.93995233701830       46.13263665103204       37.57678304550626
H           41.26158775871308       45.43204786358274       36.11017754853430
H           39.05419218827780       46.51271277802224       36.68913826229952
H           39.72003205829648       46.89283318417586       39.13160089249079
H           40.70987985131602       48.23373776013693       38.57412374195976
H           37.99111751612363       48.35467408235721       37.44667177501095
H           39.69495560474601       50.21856901909080       37.60295181688128
H           36.85207522879898       50.45441248224608       38.58957241782141
H           38.90730850503672       52.48686302203870       38.96286100349439
H           37.69488998798600       53.05484969305653       37.81373773489084
H           37.15962908587736       53.74592949833335       40.04838581424342
H           36.96107926579803       50.81042226897225       40.84103299088488
H           38.23900972731800       51.92761701593717       41.30146312903003
H           35.33283128486158       52.57641523687515       41.79719389948236
H           36.41934833895959       50.31312811928821       42.92981805899086
H           36.84556860422634       51.51651861828077       44.13998850741622
H           34.41905532169035       52.29298507871700       44.06221888948132
H           32.28888053859910       50.73635258480009       44.39277208240660
H           31.47628710093403       51.33396854977731       41.51625398129691
H           30.34442780163123       51.23593857956325       42.86282768035429
H           32.73415340510395       53.09612755418344       42.95371364799382
H           29.96866527758639       53.31466400614944       44.21343757835648
H           31.36915025608919       52.62687466553431       45.03167373156879
H           31.36863925923301       55.44231101168015       43.88006152563584
H           33.06988563429822       54.01784413321663       45.96638553471026
H           33.58402105732888       54.54534099995230       44.36731445071118
H           32.80365835806777       56.28539240832291       46.73365288146507
H           35.39892975356130       55.55123421396799       45.35833364953400
H           35.25509710549361       57.12020127461737       46.13638319242642
H           34.51413208381593       54.61215210581224       47.66493708138364
H           35.56338343505348       57.35840015273028       48.44799848505464
H           33.89050950702360       56.84280840677430       48.55119036614151
H           36.26832665138893       55.78490285810144       50.12981406299537
H           33.66511889430873       57.04471652847153       51.09598977304403
H           35.01733525219439       56.51690721167086       52.08491357283208
H           36.43388144920229       58.22469115882883       50.71785231342749
H           35.36474399286796       60.12676104080001       52.25496642674214
H           34.43272099798620       58.78728133203775       52.90757273029423
H           36.70867286229445       57.56375753115618       53.14979895463665
H           37.69493754540398       59.78377781012082       51.82303207791910
H           38.05290898285349       60.19750094781069       53.49689757487230
H           38.85513386254390       57.62478674611668       52.07812645281683
H           39.62298058463509       58.67055954210046       54.83843360800006
H           38.57167180645909       57.30659410241240       54.51575119569096
H           37.44286675166333       41.74691280795496       36.88938499733899
H           35.63277675038933       41.03120868328374       35.42360158328555
H           33.95433910427142       42.65878416107558       34.62027916201085
H           34.12504345128798       45.02394007107948       35.30623863271138
H           35.95043337332637       45.74912363816144       36.78081332011244
H           41.93418099872947       44.08554037089846       40.18413131788372
H           43.77297162500022       42.50702956184404       40.51099412262259
H           44.57427830058302       41.12448144812527       38.62110604726716
H           43.54671132216961       41.39578801675613       36.39225584198773
H           41.67130335399661       42.95256014281401       36.08038377901261
H           42.37632940511928       48.30199525847636       36.78960647849619
H           43.07582109747304       49.82528410406162       35.00452027341257
H           41.57750007384362       50.29197442919966       33.10689990834405
H           39.34434187046307       49.22952474746918       33.02067658100459
H           38.63752204390716       47.71185044202245       34.80407200683755
H           39.22095675424190       48.63973679711083       40.99443820274639
H           37.82413938397129       48.08937328928413       42.93452208045039
H           35.49888434255041       47.30669585982488       42.60425821422994
H           34.57179598194703       47.16018046299079       40.33164998896888
H           35.96808858525591       47.72855382258353       38.38633361851722
H           39.34697572990766       50.29583850158176       39.33856204276141
H           39.16800385965620       51.99503129933349       36.06454352192105
H           38.65741121863093       52.03271738151853       33.66599975635877
H           36.60221831931965       50.95944451865319       32.81937150568416
H           35.04732013184678       49.87761575021451       34.40131867335917
H           35.54055555459241       49.87660546473752       36.80779890553669
H           35.06906635539966       50.61990287035108       39.83095610141344
H           32.78586786274300       50.66065690748290       38.98588692266311
H           31.84712789855126       52.71839058409346       37.99905802186166
H           33.24787893696613       54.74181046409090       37.84788854441481
H           35.54730616493360       54.71708050062856       38.71283608792412
H           35.23629147782482       54.84155181928215       42.08240316995396
H           36.12879031829864       56.95110924937525       43.00156268869923
H           38.28852258746582       56.97002496140770       44.16965945096983
H           39.56036601007565       54.85731376528268       44.42813940887326
H           38.67866009645369       52.77156652790838       43.49233784167264
H           34.91173671835329       48.55247854657551       44.34809922343396
H           34.76132328313717       47.40171505196776       46.48910982769563
H           34.47354870404724       48.68505999401564       48.58295756045916
H           34.31501716064334       51.15003772107006       48.48852207694416
H           34.44711857396456       52.30489559002585       46.32280539667016
H           33.79224976205570       51.23460583905616       41.91688919501302
H           34.15721784450910       49.65018559335376       42.56670320333224
H           31.39144277071758       48.78961935358313       45.20951449143119
H           30.62450953562082       46.47487594337278       44.91178672900921
H           30.63682784789207       45.44335398122033       42.66905354299331
H           31.43192568496918       46.74546652455151       40.73005475743982
H           32.19984924048261       49.06001654545005       41.03104280813890
H           29.08656994338106       53.18548574402939       41.99601043654160
H           28.22793860825100       54.70317893246861       40.27563281570530
H           29.74716862447872       56.27512977111496       39.13204956687066
H           32.15031758344154       56.28611468966594       39.70586478189413
H           33.01698013651235       54.73040655668329       41.39009401869592
H           29.80431618407129       56.88440387443793       44.65688093039536
H           28.28808134017054       57.70809327881675       46.40688829325944
H           28.16448739988093       56.54776920570027       48.58430029843042
H           29.56402974362491       54.56040811011670       48.98829737540721
H           31.07979518334208       53.73801709124267       47.24435189486488
H           33.74340312952204       56.38804583606854       43.09888669700813
H           33.34220621947315       58.35820652444455       41.69844409587632
H           32.42830716099099       60.42206296405624       42.69768187654230
H           31.93985663616635       60.49303839075338       45.11748851840202
H           32.36158040999828       58.52639673052526       46.52044502117374
H           37.48610023814884       56.84995501360622       47.05399603444380
H           39.79469841165473       56.00879449955200       47.08825055347931
H           40.24700744643460       53.65039642060224       47.57018793018075
H           38.36342109512496       52.11941355582367       48.08405571444881
H           36.06144844519708       52.95776414072584       48.05475241883870
H           36.25193443163188       53.61227161775989       50.87659005206210
H           35.10366759659284       51.47330901525077       51.28319520541491
H           32.67194476695614       51.28156288185674       50.91765840715446
H           31.40019625426321       53.24008343452150       50.12533107912409
H           32.53748061330585       55.36570957276286       49.70572839595954
H           36.53594404126270       59.75059911470531       49.01100833230590
H           35.46937688159151       61.20627080343071       47.34593667440062
H           33.03078017588562       61.55490694573140       47.39224354102838
H           31.66983682330399       60.44881281710437       49.13201043228490
H           32.73055886694948       58.99829562774953       50.79123316836341
H           36.23103135810280       56.85449667665649       55.29446509214269
H           35.68026914196377       57.29849357179246       57.64181273108133
H           35.34826621895780       59.61886711871934       58.42105158056452
H           35.57699026442519       61.48585800962553       56.82348306694783
H           36.13160741825245       61.04432481547117       54.48099559200394
H           40.42104696785709       58.00560694118395       50.44635809082438
H           42.38857011682096       59.18061591216557       49.56990995211738
H           43.33545110862199       61.10936852838609       50.80332885584240
H           42.30956424181813       61.81269370590546       52.93024049936292
H           40.37254388678837       60.61166218452740       53.82731542041950
H           38.70413422769361       55.02820124757392       54.05080186255707
H           38.32927179660251       53.25035849916183       52.40604648971248
H           39.81022883775612       53.02374688764621       50.46010878724363
H           41.70607840153386       54.59274690047872       50.17020334596541
H           42.08016999906560       56.37890459364451       51.81954700403850
H           37.65771355567716       42.59904916317548       39.22938110974416
H           38.51258716686134       43.97507339929492       39.93601937147604
H           36.77065697219204       44.05869444537737       39.66983980306244
H           41.50318044072654       57.53299105529166       53.72824920050417
H           40.08154767290993       55.94462019212387       55.90102357268105
H           41.61998409070229       55.42678663106643       55.22967022319587
C           42.43618240835676       56.38161936133809       57.46350978880256
C           40.85546103994890       58.26833365733633       56.98649684213925
C           41.08034431604850       59.62013359354594       56.75234753758808
C           40.24239259655764       60.58422856333152       57.28486158586673
C           39.16771278055351       60.21028950081060       58.07267163014762
C           38.94366937875359       58.86828005351245       58.32816201294999
C           39.77843599391929       57.90743174743115       57.78850980553555
H           41.91472736231647       59.91908238317759       56.13241581749027
H           40.42626859487084       61.63033735783679       57.08326917451004
H           38.50768351758085       60.95903349232309       58.48613261668960
H           38.11098616301851       58.57062235115103       58.94878124917044
H           39.58636056523197       56.86393363578388       57.99483702431931
C           43.32533976118604       57.20811383346053       58.39728956605907
H           41.68132479050644       55.86004890381398       58.05557534810025
H           43.05721621321518       55.62476171066852       56.97980490611008
C           43.94823545648583       56.30833237162566       59.42492588717440
C           43.38600455766143       56.17315881849228       60.68714848765937
C           43.92827869055963       55.30364826503294       61.61749087592860
C           45.04269784553365       54.55004205815926       61.29255721720658
C           45.60850147818368       54.67234060875738       60.03435154686188
C           45.06533192370178       55.54411510573401       59.10843693103498
H           42.51372694940228       56.75867777885197       60.94603609083627
H           43.47897350470896       55.21515017113934       62.59639312338086
H           45.47079829462400       53.87132854069499       62.01662556324677
H           46.47406059471624       54.07847940844646       59.77696335850166
H           45.50950691195325       55.63744187487504       58.12737085712820
H           42.54365287228744       57.73678324910001       55.81134505433862
H           44.10274891598354       57.69642520260706       57.80604590105560
H           42.72565264600256       57.98020774143935       58.88461775566277
C           66.72533510791050       45.31575631373269       52.43583347572302
C           66.64196137065323       46.69619239036378       52.56282331408229
C           65.49951624371390       47.23815520707337       53.13851519783891
C           64.47163043432138       46.43064126531767       53.58709795521302
C           64.56923631285699       45.05640171197572       53.45972317092166
C           65.69547225270547       44.50237446109985       52.87665002115259
C           67.77008292121988       47.60230868372125       52.14197436324368
C           69.00827674282073       47.33126802945662       53.00329112084651
C           68.12913312028094       47.47767243932960       50.65321035698581
C           66.93366637590321       47.57651480226365       49.68851749230699
C           65.86852974773583       48.53966434694866       50.14634348257066
C           66.15981101952045       49.85502929969125       50.48698640310361
C           65.15741735735728       50.72090658793189       50.88808485616531
C           63.84252099519762       50.29012938870041       50.92363041817066
C           63.53892117631360       48.98720080821529       50.57074781002579
C           64.54559110827796       48.11857021243987       50.19194399617390
C           67.38520770511559       48.00628330006080       48.28154435066701
C           68.13857095234586       46.93633355507477       47.47728539843163
C           68.92584696291733       47.58885275998022       46.36534069935077
C           68.29766192827596       48.39156064146897       45.41866333560647
C           69.01318189112213       48.93467620802036       44.36828884945351
C           70.36976999431403       48.68749899310080       44.24349304556618
C           71.00787703819633       47.89948689827536       45.18486918101028
C           70.28881109466784       47.35651237793780       46.23601080679280
C           67.20271611061006       45.88712594487453       46.84525430336696
C           66.92410207334596       44.63806607814583       47.70803021622460
C           65.46975617256561       44.50676261728464       48.08287803637688
C           64.47148101923726       44.48157297584842       47.11496983089919
C           63.14335142151053       44.33313673283033       47.47396838728105
C           62.78830321565994       44.20901700723316       48.80690469054518
C           63.77495964001275       44.22263849052262       49.77699471256751
C           65.10205840674028       44.36660292310661       49.41455723797478
C           67.37603065694367       43.37618383984194       46.95578519984340
C           67.09231584605162       42.08373698101010       47.72716993454418
C           67.71435854096639       42.07448550156752       49.10146790695234
C           66.96056884088527       41.64750969765114       50.18877425284127
C           67.50259762014394       41.59960200137313       51.46063435384644
C           68.81348849410125       41.99385804690682       51.66863798054970
C           69.57726676753180       42.41604824675091       50.59355618429569
C           69.03485094702741       42.44791715710535       49.32030722415081
C           67.57785293090087       40.85424237405353       46.93994425260571
C           66.68451965770117       40.50108529272886       45.73774225948181
C           67.43836689334857       39.60569509162891       44.78709536348553
C           67.87061205983785       38.34201621901983       45.17201236699377
C           68.55870064908670       37.52885186960893       44.29068529403857
C           68.83115998891554       37.96655549031229       43.00577479310898
C           68.41640368471948       39.22727410783359       42.61352026954021
C           67.72849100907570       40.03805076581848       43.49905301097078
C           65.37613762126371       39.84449301184382       46.19471928203072
C           64.46726653771377       39.45644104263258       45.02060891998573
C           64.15593145211554       40.64895505197637       44.15063501184536
C           64.48123762361632       40.63098488985726       42.80027146634296
C           64.20562459086793       41.71717236181001       41.98680847523433
C           63.58549611330969       42.83788328040110       42.51153732767315
C           63.24772822347031       42.86358859850725       43.85400227271756
C           63.53323413252255       41.78074514888912       44.66588053987338
C           63.15755601774539       38.82185184296644       45.51770273502932
C           63.37648681384577       37.45076955133731       46.16891699441586
C           64.02177688698644       36.48843506062916       45.20168052092099
C           63.40604176103150       36.15281078582320       44.00070523590556
C           63.99890198184440       35.26716791966764       43.11993337850938