3795
 energy: -5103.659211469290 gnorm: 0.000968527393 xtb: 6.6.1 (8d0f1dd)
C          131.26225926012395      131.59054213205494      123.96292843192067
C          129.88608821287980      130.98754736371845      123.78744337042822
C          131.90026755599638      131.88579469481036      122.59962730982600
C          132.16176953298171      130.60234604775221      121.81890624625053
H          131.23850266571614      132.53951743850055      122.02837108807267
H          132.84259505275250      132.41120858089585      122.76038561363076
C          132.84863626844015      130.86706238317515      120.47756727801311
H          132.79382828116354      129.93892312755972      122.41292784522841
H          131.21622405019210      130.08091573459470      121.64648316120656
C          133.07220007503395      129.55398899673887      119.75213511690283
H          132.24693794810577      131.53445300989239      119.86100489647565
H          133.81986450901292      131.33127068804970      120.65838718551313
N          132.53822558670529      129.48379392604815      118.53298374110602
O          128.98802583167449      131.87949243844244      123.42818979472359
O          129.63595034397517      129.80985391508020      123.94552224875092
H          128.05917724536974      131.47511264063760      123.36500299916727
H          131.88177307835099      130.88998407924362      124.52276487846635
H          131.15411635580827      132.52000135231648      124.52146549425575
C          132.59966412726132      128.28125580641168      117.72310077805579
H          132.00044808851271      130.27057132031314      118.17976768085512
C          132.06760855811052      128.53759687174824      116.32007662766031
H          133.64141230335275      127.94945648913674      117.67962437928051
H          132.01818880913308      127.49538521519605      118.21885151740894
C          132.14375076487133      127.30083177211270      115.42357764489152
H          131.02948649999530      128.86910927454178      116.38598744272635
H          132.64978965768941      129.34377596562820      115.87061763528261
C          131.19942002225187      126.18444680689028      115.87355889724017
H          131.86169141300113      127.59734437614850      114.41155943628644
H          133.17271539996366      126.94065462248469      115.39418391750516
C          130.92543219715361      125.17018398076276      114.76408341585390
H          131.60250326610503      125.67032964795234      116.74798160798437
H          130.25062395866760      126.64159769595460      116.15777131439475
C          132.08263479664706      124.20560442098591      114.52254665485158
H          130.04308299320536      124.57639913968603      115.01250608428087
H          130.71170897075825      125.70970648678436      113.83888202322633
N          131.85222948411428      123.50400018838006      113.27726412573520
H          133.03482862661491      124.73678343168564      114.44214817086356
H          132.16288539243158      123.48995670585433      115.34980089448553
C          132.82390681229384      123.05448858918707      112.48529022092610
H          130.88218418023789      123.48189721759485      112.96695004495143
O          133.69145009156480      128.61929055747115      120.26263180056779
C          132.39060676531705      122.64853472331913      111.09077503285333
C          132.80759542613737      123.75073113403806      110.10747649378494
H          132.89720556761031      121.72440313649832      110.80771416369109
H          131.31537870125501      122.49055506124502      111.05235735684032
C          132.24628205286129      125.13018388110898      110.45314910674392
H          133.89790987504171      123.81486998678690      110.10751201987676
H          132.48567972942104      123.46699659822239      109.10451580205803
C          130.71662516191185      125.20090012670126      110.42736445182005
H          132.60090340657200      125.43504361239125      111.44037373358954
H          132.63952268417671      125.84904687449067      109.72983212219168
C          130.28513286531560      126.61925127219986      110.74725960346026
H          130.34403068193691      124.91828408471153      109.44377617532402
H          130.28513589712503      124.54414707613061      111.18061821433713
N          129.97427304596235      127.34500249759748      109.66752500644644
C          129.49342439875483      128.70724172826326      109.71655802143965
H          129.91376273237748      126.87579538196650      108.77276419374181
O          134.00341623668297      122.99328526511948      112.84235688344442
C          128.20403953032186      128.85680659507980      108.91299606695952
H          129.33194688477732      128.95444090026638      110.76905039996461
H          130.26151823729728      129.37765858684239      109.31355586932030
C          127.07158729049515      128.01544480588194      109.49519420430356
H          127.91612997904535      129.90866301890514      108.90166096768488
H          128.39358893294218      128.54633346838102      107.88333422080605
C          125.79720682523003      128.12863202928756      108.66098705584767
H          127.39654814173961      126.97510580204748      109.53819140099442
H          126.87005330929196      128.34922926539440      110.51355710194228
C          124.55197984001633      127.63598520249420      109.39400390511871
H          125.63506661292470      129.17484314858851      108.39394160365518
H          125.91989985255967      127.57098001691877      107.73135878550708
C          124.59036078486808      126.14596053661630      109.73051923351673
N          123.42126018066557      125.78764150670229      110.50144715015109
H          124.59327262556309      125.54136223084829      108.82210031375514
H          125.48617408400825      125.91269708473477      110.31448696047968
C          122.57631314171805      124.80810936010342      110.19894093756682
H          123.21522150394165      126.38241943737668      111.30163124734361
O          130.27126535663703      127.06425463957656      111.89169945739198
C          121.33706553256742      124.75412483094665      111.07280206927803
C          120.14192811030514      125.14352415014130      110.19821269713708
H          121.19763033062407      123.73617683352104      111.43973986125663
H          121.44134401897564      125.43228917368498      111.91830458824730
C          118.82269890946283      125.18770971318013      110.96184248608779
H          120.33075570148934      126.11764204139331      109.74054660649648
H          120.05926253772033      124.40925342750869      109.39366538091572
C          117.64682184419203      125.34824435866713      109.99556676042710
H          118.69501834213519      124.25994010999031      111.52412494511911
H          118.82320900960916      126.01324246396958      111.67517686420298
C          116.33047621852025      125.30701319662600      110.74733283013903
H          117.71845315700361      126.30335751807604      109.47275111788475
H          117.66513628595952      124.53649310722490      109.26758917974976
N          115.73517571707066      124.11085005143212      110.72725266343689
C          114.49252320050608      123.84668660726011      111.41775114979154
H          116.18714681243264      123.33119292238607      110.25536048181463
H          124.44428168365138      128.19279698147187      110.32738749881482
H          123.67482163182405      127.84334589972595      108.77587422640399
O          122.74839722557338      124.02076217300768      109.26469153132304
O          115.86475028425379      126.28292994964490      111.33067487589463
C          113.73951189463010      122.67760485398554      110.79709276773518
H          114.70247507487554      123.62164661196103      112.47207499106788
H          113.90256396338665      124.76565972815176      111.38409037446591
C          113.31461810602072      122.89613102983054      109.34501819226662
H          114.37983957384220      121.79563565949495      110.84154287609707
H          112.85732559073298      122.48643472802016      111.40942976614828
C          112.51027713559776      121.69484203265246      108.84635353974626
H          112.71945589797213      123.80731287366177      109.25805361074258
H          114.20738101366308      123.01882155244614      108.72941491804990
C          112.20782324667999      121.73891305670551      107.34969435755431
H          113.08199664784082      120.78913995740776      109.05805632132021
H          111.57395198687254      121.63200582252017      109.40338664190722
C          111.56968029986770      120.43362684369816      106.88232797273734
H          111.54544366000029      122.57554815346802      107.12313811560480
H          113.13574927775061      121.88585382216374      106.79446459782133
N          111.35222409735731      120.43829946879295      105.45066625660778
H          112.22789556735833      119.59577450928738      107.14563335424941
H          110.60402206013723      120.26891125890364      107.36665127914900
C          110.40624825899042      119.73058550486594      104.83755539890988
H          112.05139130702833      120.91216238244766      104.88409921521526
C          110.45685290922327      119.78600399483030      103.32539673196190
C          111.70170265514093      119.06045872996016      102.80659445732587
H          109.57065711497843      119.29247577287637      102.92426755568587
H          110.48207860559521      120.82814280808530      103.00707819225333
C          111.74215990586278      118.97681019823005      101.28277826082106
H          112.59745423401385      119.57298583676960      103.15894535157410
H          111.69886363684437      118.04514361598262      103.20770405413798
C          111.87582956978675      120.35138862764828      100.62781232234467
H          112.60105771746939      118.36814017068325      100.99155859545080
H          110.84637210704125      118.46730861405250      100.92313696471423
C          112.16998382060127      120.26595972575375       99.14394271966826
H          110.93920812142240      120.90650011046218      100.72615572192841
H          112.66276268706027      120.92693948878355      101.11604748929331
N          112.91871134246152      121.26005474548705       98.66402290031935
C          113.26277744336680      121.37891444798689       97.26159289905060
H          113.32846513861422      121.93876549678713       99.29762509848898
O          109.54550707748766      119.08631421594171      105.44579304594224
C          114.68404651017160      121.90601421049574       97.10978095621601
H          113.14492154395137      120.38893693424423       96.81418552036857
H          112.55868617617153      122.06409667097209       96.77166476746736
C          115.07305386933419      122.19589724827706       95.66067060853952
H          114.75029026865556      122.83553292644424       97.67968000551490
H          115.37930343644604      121.19804799609956       97.55893420859911
C          115.23827593318852      120.95756617410936       94.77874877304241
H          114.30597431792795      122.83502881438596       95.21566986588624
H          116.00633684576567      122.76072314172245       95.65569693560067
C          116.38859722425265      120.03018238919135       95.17429747545957
H          114.31057284265162      120.38290600835329       94.78819456816592
H          115.40499622082183      121.29504146347888       93.75311281721380
C          117.77420729818731      120.67538782252070       95.10198416681708
H          116.23993911573220      119.65696643579717       96.18733950658971
H          116.37301931642149      119.17477874770832       94.49717407320774
N          118.12205175833303      121.36773513256574       96.32427845038998
H          118.52768536727997      119.89848539715202       94.92136287608876
H          117.83478877823684      121.39967810669502       94.28555617707147
O          111.72283185233901      119.37235362958963       98.42494016813511
C          118.67737653662124      122.58159629697148       96.35931433973013
H          117.84547761918650      120.91667385641121       97.19245117065709
C          118.90045393522698      123.12889462902534       97.75899514623151
C          117.56817092165595      123.44941769736074       98.43912991449356
H          119.43803811581795      122.39134236884234       98.35717506299228
H          119.50694679907039      124.03203264446043       97.67514755324665
C          117.76901784426327      124.13838170090506       99.78576353968094
H          116.97356008571383      124.09064797740798       97.78384146192798
H          117.02038278784011      122.52079521831810       98.59787727812294
C          116.44052377735603      124.37062937198682      100.50541518935208
H          118.42327832087062      123.52407661204114      100.40318297341021
H          118.25756786482971      125.10327922489000       99.63430962395726
C          115.65735590054054      123.10131957260684      100.79924807949001
H          116.62649999682679      124.86890723922569      101.46014767070307
H          115.79548386865572      125.01924651865086       99.90915560666996
N          116.32676600638462      122.13284464859808      101.42479359354087
O          118.98848590749571      123.21279721842085       95.35023317103938
C          115.69372006403617      120.88481151058718      101.79748077274446
H          117.33507422739272      122.16871934231750      101.50994927172734
C          116.53031409633881      120.14497699416786      102.83258110432368
H          114.71025933631408      121.12317873943658      102.21414029332354
H          115.55083341970187      120.26984639146893      100.90146935840171
C          115.79578764955765      118.94112536364396      103.42138913515755
H          117.46807340303684      119.83018825095704      102.37278457402643
H          116.77138506315737      120.83989254727113      103.63982177742918
C          115.46765364628091      117.86838452038089      102.38590517584971
H          116.41612579263311      118.49908755238440      104.20392090874491
H          114.87208311769875      119.28836556746694      103.88751076107209
C          114.81577222986847      116.64795551246860      103.02680215067167
H          114.80012158151595      118.28433914579493      101.63163007124487
H          116.38483312961478      117.55112038987616      101.88840252986616
C          114.53824299048114      115.54178466462253      102.00683241132462
H          115.48609066165611      116.25658746061622      103.79108330143710
H          113.88969534314577      116.93275059601599      103.52680964401833
N          114.24297356687640      114.30469983214583      102.69405823304811
H          113.70596194010538      115.82193198683611      101.36207950598845
H          115.43316592074432      115.39979363976731      101.38872829005670
C          113.29699712890445      113.38744222531091      102.50636029732087
H          114.88571137895741      114.10539453154067      103.45365196519271
O          114.45847171897563      123.01016462722868      100.52603008228748
C          112.30682693622251      113.56351302809034      101.37734487726317
C          111.11122823856549      114.42450271798347      101.80225031188439
H          112.80140730316396      113.99955121783292      100.51014407512166
H          111.94808990090688      112.56747544924768      101.10978047555925
C          110.37683967206030      113.84740812771976      103.01143646307243
H          111.43447718244552      115.44325535345520      102.02026163063552
H          110.41393446404932      114.47677366170156      100.96295704335368
C          108.99377087081315      114.48523693138009      103.19399277128319
H          110.25217541030710      112.77279478912490      102.87139598286296
H          110.97550937180323      113.99353156253946      103.91290038543140
C          109.14621946801446      115.94600646539210      103.57761187937525
H          108.45827491646033      114.44677976132886      102.24330318034978
H          108.41959378546122      113.93713272469972      103.93818388955556
N          109.10581700866345      116.26399536762021      104.87807402442034
C          108.83176121436192      115.40375516641811      106.00873957838921
H          109.23394480433807      117.25317825599966      105.09322987913473
O          113.23195483926908      112.40841938251125      103.25603820292804
C          109.40972938369947      115.98686592611038      107.29627802561612
H          107.74633883753502      115.28053036608728      106.12279614307511
H          109.26415442601818      114.41562021979392      105.83858286064243
C          109.02895113266462      115.13061797815560      108.50435913863977
H          110.49712513203475      116.03204315728834      107.20858224671481
H          109.04383001680634      117.00637685636424      107.42647023965834
C          109.67196092602552      115.62740682315250      109.79856452947585
H          107.94390919767994      115.12514020678383      108.62451004126605
H          109.33857806255625      114.10142184432164      108.32373551262928
C          109.56593768591036      114.59865045362810      110.92902103142501
H          110.72733524497362      115.84520231722169      109.62268867712933
H          109.18857144224572      116.55710899139115      110.09736950133970
C          110.71937216826473      113.59829165906393      110.86375270238143
H          109.60532695309669      115.09218561987149      111.90081548494877
H          108.61362089894749      114.06878487123653      110.86651094717674
N          110.70288236378437      112.65800549062949      111.96042835983712
H          110.66191337290050      113.00872059541446      109.94679241810823
H          111.67192778599791      114.14158277326665      110.87301270939915
C          110.73581179512028      111.33226992404677      111.78627118014919
H          110.69890670576528      113.04668732510467      112.89643386495075
O          109.32376328957255      116.81093017792152      102.72480947870719
C          110.77814173018217      110.53393008032089      113.07660529300409
C          112.21500300865945      110.36478257511732      113.58815600660671
H          110.16985751511825      111.04194118497060      113.82492940739532
H          110.34980700579678      109.54996112551608      112.88040926057951
C          113.05517993637686      109.51735032279562      112.63510267773106
H          112.67012874879259      111.34846155504405      113.71910377346926
H          112.18355147584582      109.87378604743429      114.56287426866704
C          114.36121550791249      108.99209041335037      113.24638368415353
H          112.46626474598858      108.64774257124391      112.33967002954456
H          113.27308389182403      110.08804433559958      111.73215202838632
C          115.29547164451903      110.11923533333672      113.62777506757726
H          114.13176790367575      108.40156911500218      114.13186750300615
H          114.85218925259272      108.35352304764014      112.51002280625292
N          115.29728808371173      110.43073553325111      114.92153569247951
O          110.73811095518515      110.80441293899020      110.67631519872437
C          115.98710945001082      111.58398992438650      115.45548180072818
H          114.74999871806369      109.87518592857937      115.56670677961043
C          115.29275406522417      112.08388086240275      116.71278085829425
H          117.03182144190551      111.33778282734691      115.67958513188071
H          115.99311630173791      112.35286487872884      114.67983989880720
C          113.82258107906871      112.40357974722613      116.46014918891782
H          115.35290901704252      111.31159219751811      117.48133353878261
H          115.82206590442426      112.96176428124311      117.08772826562911
C          113.13832613151294      112.88451467688031      117.73160636744001
H          113.72487963289871      113.16018144093843      115.67807803711159
H          113.31809350758101      111.50232519365495      116.11109814852939
C          111.62015432218806      112.91497502606390      117.58759564372762
H          113.42745433594131      112.22000899877611      118.54769919338455
H          113.50271146296119      113.88350970884420      117.97354466100198
C          110.94531433474506      113.43090145367479      118.85255423150544
H          111.34642598397997      113.54805662138263      116.74318924999875
H          111.25344589939972      111.91033366935093      117.36720692914162
N          111.10293626851670      112.48874381743234      119.93822120976921
H          111.37099339734587      114.40062181167241      119.13295545812261
H          109.87086410728645      113.55469827140546      118.69682656241368
C          110.15396422966138      112.27003834106341      120.85507981129932
H          111.96390842224352      111.96300007930667      119.96425163863690
O          115.99449174028756      110.71501608413068      112.80457214012088
C          110.42726283546509      111.09884816799969      121.77518709882840
C          110.41054942214966      111.49454003743512      123.25071611764288
H          109.62132386674590      110.38031172292783      121.61163430062561
H          111.36993408118232      110.62344886135429      121.50814747065645
C          111.52717471979847      112.44854213980049      123.66932361724993
H          109.45499064706173      111.97619121743669      123.46620894666084
H          110.47968402320042      110.58349439944314      123.84682003454832
C          112.93048860514827      111.95325913495314      123.33110258704222
H          111.37052087943350      113.42693773496821      123.21399116278796
H          111.47028515212307      112.57987061768021      124.75100658199472
C          113.26409158265264      110.62648513914371      123.98452767740764
H          113.08509791866220      111.88324451531575      122.25557032579468
H          113.65428702926113      112.67508118686253      123.72134214925372
N          114.14510899661333      109.89028237879369      123.29326899348568
C          114.71229177834752      108.65161632618934      123.77197419653005
H          114.39246445152712      110.18242261260258      122.35899448442612
O          109.12652900097309      112.93787928824877      120.91502782857866
C          116.23522796381410      108.61455313944535      123.65785014400944
H          114.41468674954149      108.55246400125831      124.81817867392617
H          114.29180876152004      107.81428082348320      123.20310711002716
C          116.74487666470624      107.26922580990609      124.16954829849621
H          116.52896494080423      108.75415437302550      122.61727463009541
H          116.67307734009917      109.43151957343200      124.23426966286293
C          118.21732677434125      107.00759501563090      123.86053065560017
H          116.59020057869884      107.22555944189294      125.24906389373325
H          116.14471659520547      106.47583028779711      123.72116977371897
C          118.51138638468208      106.82847566370152      122.36360874353308
H          118.82400208367450      107.82343747593903      124.25361854863559
H          118.50971340579392      106.09292951175190      124.38098092955083
C          119.60680625235086      105.77887460620556      122.17568409476296
H          117.61760742340665      106.49513995752160      121.83416550105017
H          118.82516868756366      107.77128450189015      121.91399133155166
N          120.09048067633910      105.67678408914280      120.81784932384258
H          120.47052773144651      106.02860694924755      122.79425202075855
H          119.22667707888688      104.79921837899758      122.48501991699264
C          121.38158808463169      105.82512052522550      120.51296325282397
H          119.40978944610470      105.46909008257543      120.09550004329959
O          112.80512558462054      110.27246117515089      125.06510815373919
C          121.73114441071591      105.67994709594389      119.04768353666243
C          121.32787170254714      106.94768978482955      118.28890138874114
H          122.80624273763458      105.51609984577259      118.96926288248208
H          121.21296390018520      104.81583330156735      118.63126054942016
C          121.90255538382024      108.22186457037292      118.90855605752833
H          121.64552883096130      106.86307849751529      117.24700314548920
H          120.23943609170807      107.01484181252115      118.30554640942657
C          123.42175616870152      108.34695142810243      118.76065226512328
H          121.43838409456814      109.09237299458077      118.44463999726970
H          121.64690759158147      108.24676561582599      119.96919319502121
C          123.88965581656981      109.63184580493242      119.41266823650919
H          123.91999834803664      107.50193347443629      119.23177674709562
H          123.67878820866919      108.37698912333312      117.69979039600528
N          124.73752815768495      109.47343740766215      120.42451512181422
O          122.23751955723949      106.08127556175407      121.35834712758286
C          125.22478135356646      110.55398197269891      121.26000932211925
H          125.00475752142684      108.53543466182977      120.70666034087961
C          125.73201661396415      109.99838290870767      122.58688081102895
H          126.02593442166092      111.09736483146357      120.74535964639659
H          124.40076150807940      111.25509187017957      121.42901928014037
C          125.95643106242788      111.10566850242238      123.61270046761804
H          124.99874194437345      109.28749944984772      122.97183875239342
H          126.66437408017022      109.45819644594418      122.41016646713776
C          126.61871313128047      110.60189400574421      124.89376367921054
H          126.57691492058156      111.88244608026049      123.16417660312216
H          124.99244475874356      111.54650826679601      123.87185349204252
C          126.50193429004779      111.62228554813065      126.02525337413326
H          126.13796706986763      109.67259971534382      125.20474596319244
H          127.66973035720854      110.38053480738175      124.69441650383702
C          127.37916397540593      111.28988245494713      127.24141088360599
H          126.79813324944483      112.60886371322857      125.66069609202691
H          125.45969702127921      111.67405989588700      126.34529502114525
N          128.80360645271963      111.51992148744233      127.06217358993966
H          127.05988129082357      111.90638441056385      128.08627967340593
H          127.24334261246936      110.24155434975067      127.52379349949754
H          128.95960230522292      112.48052452800971      126.76703219801493
H          129.14852988551016      110.93119942554178      126.31155563624920
O          123.49070942380122      110.73719102519011      119.03038161262674
C          123.91723393638121      124.26425694535229      106.13508992148357
C          123.77404717262877      123.08090586618388      105.21457634238999
C          125.17669678275092      125.06362462597438      105.77190930031600
C          126.46869505169508      124.42370708786633      106.28065581014546
H          125.22112525619315      125.15971480759187      104.68447582120169
H          125.08310840917437      126.06673727023079      106.19086324972230
C          127.68347874305927      125.18117452364309      105.73290796977489
H          126.48385419307832      124.45040446778515      107.37230541096027
H          126.51872126027757      123.37930568996610      105.96704457037033
C          128.97232934203149      124.80477979445143      106.44032986004761
H          127.78336537472742      124.98216010050605      104.66605852933101
H          127.52946449900564      126.25129099717877      105.88372809304957
N          129.61844426292737      123.75323655435923      105.93065782804536
O          123.98160779975989      121.91914229213953      105.79513997950954
O          123.50208114104461      123.18904473716795      104.03544706189587
H          123.92032189565437      121.16066890524145      105.13976585172507
H          123.93659410036585      123.92406668655136      107.16958320575706
H          123.04397094989179      124.90248503458798      105.98647341907274
C          130.93447955515387      123.35008688520603      106.38113121069142
H          129.26986658639754      123.30928613055356      105.08889602577665
C          131.14993241724369      121.84378904965899      106.27810449705369
H          131.69248825487463      123.86420114282080      105.77618206935178
H          131.04019490514278      123.68948146902420      107.41467667914567
C          130.32790970458549      121.04917432585553      107.29121539030173
H          130.89653104526013      121.52231324075763      105.26632753987826
H          132.21037334901345      121.64309824418726      106.43901872334904
C          130.68931937474460      119.56347144017077      107.25601565537255
H          130.51841403230742      121.43967462006053      108.29346681440700
H          129.26921331031295      121.19001633964045      107.06912787283717
C          129.92434726352820      118.72160418620716      108.27958646241051
H          130.50334548503727      119.16670794235162      106.25623431579048
H          131.75764662074019      119.46610923814917      107.45618861717087
C          128.46839589404286      118.52466985083461      107.88119215069015
H          130.39625720281779      117.74117620949613      108.36273219534736
H          129.96872857563611      119.19838827093089      109.26004617805671
N          127.71098578409767      117.84381775525053      108.91528985542244
H          127.99851968389723      119.49549826500572      107.68228231877077
H          128.39908811971503      117.92912889582493      106.96522548691357