3864
 energy: -5104.215607405232 gnorm: 0.000747884433 xtb: 6.6.1 (8d0f1dd)
C           63.50869127126124       47.63199678479150       44.17423292875899
C           62.61475588200131       48.66619128361106       44.42898326296271
C           62.61722738918752       49.24198654978567       45.69184939743626
C           63.48303956370004       48.80000521154719       46.67634000682281
C           64.37911962669702       47.78142379771445       46.40389407116594
C           64.39212614827444       47.20209074689821       45.14678348735916
C           61.67852224974724       49.17958027721881       43.36366813166057
C           62.47791871745181       49.63626931848410       42.14330370322672
C           60.63576229786289       48.10903057583859       43.00527082671328
C           59.44080892153530       48.67162418385326       42.21954757164350
C           58.68691559081119       47.59131615803281       41.48423382846989
C           58.26266398071888       47.79473872350282       40.17592898786033
C           57.51043442686722       46.84437984335048       39.50688895591371
C           57.15926956131678       45.66887340180384       40.14597659800557
C           57.57631041623443       45.45090270525430       41.44911079657024
C           58.33390024745174       46.40097239777242       42.11099570376751
C           58.45807955349937       49.39731995248005       43.15280290048154
C           57.44165126745793       50.24953800457687       42.37533682578109
C           57.97898581804440       51.63033364669681       42.09967303049522
C           58.23856810826542       52.04155981986280       40.79787551096134
C           58.70614085722962       53.31677087199866       40.53354043253133
C           58.93205740769032       54.20201344650977       41.57260564515506
C           58.69973288503755       53.79901975585230       42.87610890695213
C           58.22567870052006       52.52594148558484       43.13320322796938
C           56.10557534855677       50.29378148241690       43.12686064304717
C           55.01654279339321       51.12435580675625       42.42380370332868
C           54.99927449991857       50.86851024402692       40.94088000859987
C           55.14808827275043       51.91761570128046       40.04169583819370
C           55.17266322934466       51.68812174841131       38.67654459015611
C           55.05160126202016       50.39876045639605       38.18711883719007
C           54.90551681067208       49.34469098066440       39.07314565848220
C           54.87814605673901       49.57890195636205       40.43502647627417
C           53.66815775423595       50.80286395017618       43.08899121031872
C           52.58682775656533       51.88352637658004       42.93671121225665
C           51.61595367327832       51.76839682745425       44.08605782344340
C           51.49007155649303       52.80018051394973       45.00659989336096
C           50.62160328960294       52.69388327983864       46.07823466878400
C           49.87827263771410       51.54205595997509       46.25539825878547
C           49.99684500079958       50.50318210810322       45.34849731232480
C           50.85673704824385       50.61805396443280       44.27140597911016
C           51.85832571911849       51.78837605594614       41.59189060599769
C           50.88013941793152       52.95502986314118       41.37624859287800
C           51.63991138949036       54.25670853587199       41.41918993046873
C           52.62691275256852       54.55027536327832       40.48475904695583
C           53.40039284947583       55.69031295231576       40.60417932647651
C           53.20784753144699       56.55490912954879       41.66728178709899
C           52.20839565430315       56.29095905132167       42.58665052987780
C           51.42584152527420       55.15742254914321       42.45525049120890
C           50.11979840844187       52.75477376709726       40.06114029847164
C           49.07242334838295       53.84356398411607       39.80076128909140
C           47.97561642588494       53.83937898242920       40.83427699695538
C           47.70542220904522       54.97974320545765       41.57857321492205
C           46.64682439469915       55.01315203293780       42.46943802002345
C           45.83238829383104       53.90507066007540       42.62219099180870
C           46.10126744808809       52.75547481024120       41.89764932147386
C           47.16596094874937       52.72342398631399       41.01659888039749
C           48.42728812670073       53.66818859287279       38.41495869188184
C           49.35179929893165       54.09711986300803       37.26966310274485
C           49.54823336043450       55.59071769271266       37.28670303013725
C           50.79722483601001       56.12886894514855       37.56933350383880
C           50.98421102580028       57.49762943793623       37.63497546627728
C           49.91904744416269       58.35183737379664       37.41472718440797
C           48.67068421331555       57.82841134202393       37.12253044664344
C           48.48695073745662       56.45979700027021       37.06324408706379
C           48.81159975935216       53.60102256558844       35.92338571178502
C           49.84621655169698       53.73286870056526       34.79563516280939
C           49.18748461653507       53.58837852307306       33.44723883286197
C           49.31934202853245       54.57731073863419       32.48164480240300
C           48.74980255946956       54.43122778131499       31.22855954795180
C           48.02818634278793       53.29096776978299       30.92244607266743
C           47.87623888363534       52.30304075001115       31.88092883040502
C           48.45247546295325       52.45091457596500       33.12910443238087
C           50.96048212507458       52.68509257374462       34.93377028337635
C           52.19507030683339       53.03105996929380       34.08936661295265
C           52.88613751013642       54.23780282706228       34.67275240768930
C           52.88872617399414       55.44749486922694       33.99127173580573
C           53.48293672789324       56.57162066391689       34.53766889275663
C           54.09847577037546       56.49852998353859       35.77421108594909
C           54.12131448240694       55.29408235999777       36.45575875768370
C           53.51513330778258       54.17685674114589       35.91110517891998
C           53.15488097391339       51.83363194388314       34.00733131545458
C           52.65921434496823       50.76486328605417       33.02312119802421
C           52.71652175245119       51.30356012007270       31.61525454090367
C           53.92938811994470       51.59144565233529       30.99953611094947
C           53.96669498836641       52.10069658619025       29.71443166732513
C           52.79023162291372       52.33791811296980       29.02287984247642
C           51.57670027003971       52.06154594734397       29.62759824860511
C           51.54338429816491       51.54670216915848       30.91141500058902
C           53.45890428068961       49.45631335473454       33.13123950826076
C           53.25335099952554       48.70253075842407       34.44962807190772
C           54.21207653924878       47.54571830624828       34.62624975825919
C           54.44245940425498       47.08239248748546       35.91884868797241
C           55.33119954823748       46.05480248723065       36.16548545919927
C           56.01211497288597       45.46020151268031       35.11669250816431
C           55.78107985590285       45.90021349490615       33.82655442583395
C           54.89498588080424       46.93653975009886       33.58344863730245
C           51.79925762625396       48.26209628312647       34.71226046540956
C           51.16322047430504       47.34914612400909       33.65773967302378
C           51.81367943721999       45.98975231569533       33.59413492232273
C           52.31792512789166       45.52100358064101       32.38696349742374
C           52.91198070374358       44.27527518652291       32.29531674528349
C           53.00914864257432       43.47094181229863       33.41662817276235
C           52.49559456985352       43.91743107662192       34.62126858556102
C           51.89924611502454       45.16119623148278       34.70471480645327
C           49.62748131471552       47.20988403808017       33.83161885557655
C           49.08668873596820       47.15646891889263       35.27821862006360
C           48.13985304924271       45.99931788394247       35.47714346336459
C           46.95657619101343       45.89355054993107       34.75497463844059
C           46.09851023326976       44.82718467633340       34.95704186531209
C           46.40739415310069       43.84490218131612       35.88266900017678
C           47.58276447800766       43.93900211165550       36.60610562315025
C           48.43683807233523       45.00789532601166       36.40444457562342
C           48.40441573739624       48.48429394288151       35.63998970456969
C           48.00311531402556       48.56785263950168       37.11802261449533
C           49.21023874628101       48.41466574022144       38.01086552413928
C           49.30766218194543       47.33803649106184       38.88401225502415
C           50.42253775840073       47.17224521568125       39.68743079874526
C           51.45430348911103       48.09237783110258       39.63403698430492
C           51.36165042307960       49.18066527733287       38.78359764751233
C           50.24819526576745       49.33979042748106       37.97875524573519
C           47.29739269463352       49.90201391502295       37.40751678923644
C           45.83063207876296       49.95534291058654       36.94333353398782
C           45.41952067965216       51.39777921445692       36.79363234591531
C           45.35265927612127       51.97037172516578       35.52912010513155
C           45.02980381568821       53.30575703277854       35.36650123711930
C           44.76325267492534       54.09334081845579       36.47277188883106
C           44.82577698531020       53.53332044625361       37.73718474152061
C           45.15550047672227       52.20004705994427       37.89621824801612
C           44.94761813814077       49.17064224286588       37.91578744198705
C           43.44433753194502       49.24099120487301       37.61493011097300
C           43.15436470742460       48.93368825863199       36.17058745259303
C           43.44928701311770       47.69515728850902       35.61242213838644
C           43.17006421709109       47.43455020082870       34.28321205412833
C           42.59652329663106       48.40979365629731       33.48533143373234
C           42.30848145552226       49.65061390586945       34.02743571242021
C           42.58612091494726       49.90715191271396       35.35800137827312
C           42.72641242603667       48.27892479806147       38.57116954537697
C           41.22079805344386       48.12706300009927       38.31851683051643
C           40.51922656401020       49.45950166097781       38.33904054058039
C           39.85052283048026       49.91723381002345       37.21028814627876
C           39.23652766768521       51.15774723358364       37.20204835921658
C           39.26789054635218       51.95535271819494       38.33297211412754
C           39.90969368281646       51.50061834597880       39.47157513447009
C           40.53609892024484       50.26798552834180       39.46934516511843
C           40.64940649146629       47.15794564575735       39.36334844825577
C           39.20175684314823       46.74947974308220       39.08363082531169
H           61.15543896719166       50.05229842205669       43.76879241246841
H           61.11862984745473       47.32791989886995       42.41433231170776
H           60.27923945275213       47.65678864801926       43.93387204280570
H           59.81008439075102       49.39252097542989       41.48374616103971
H           57.92763642711604       48.64759554818328       43.74058815960470
H           59.00960631312101       50.03120380051877       43.84711968352382
H           57.25353241566317       49.76105377517023       41.41505864125092
H           55.74825476874293       49.26856135682477       43.24624060837031
H           56.25478716587060       50.70124352499865       44.12853313113985
H           55.24381065472419       52.18454412462349       42.57675013286081
H           53.85042096528493       50.65505580455987       44.15612756220488
H           53.06791062977301       52.86697082628038       42.99321966779944
H           52.59637011283806       51.78400960602181       40.78888801295445
H           51.30549227520795       50.84807361993978       41.53888036741531
H           50.15253214530632       52.95271562724135       42.19688723712321
H           50.83603792203889       52.74021708658045       39.23903961006239
H           49.63299146053676       51.77746358068818       40.08387005788558
H           49.57188695424635       54.81923192299004       39.82930426393459
H           48.14913828460760       52.62196428455604       38.28316251694266
H           47.50627413828966       54.25310835135328       38.36835403166746
H           50.32878519404038       53.63575954559546       37.43333564883328
H           50.29315555470901       54.73130245790792       34.86319606855709
H           51.26706430025014       52.60461911712689       35.97679655995285
H           50.56602160427617       51.71581222106162       34.62647970494816
H           51.86600663279059       53.27852481124665       33.07367217368874
H           54.14046662519539       52.18139484577714       33.68963736782215
H           53.26143067828004       51.39940844682433       35.00098884172247
H           51.61114510197104       50.54318657266329       33.23765765752791
H           53.18064600490778       48.82083571308264       32.28838320914165
H           54.52134983831058       49.68546704899067       33.03402716181689
H           53.48367498947876       49.40169676693738       35.26340863991997
H           51.78856488854137       47.77033321821895       35.68466133813781
H           51.18643485593375       49.15922320337034       34.79801437684932
H           51.30549803943605       47.81674040725328       32.67749905446421
H           49.15379890655716       48.05045211136806       33.31883392435481
H           49.32234472988326       46.30490606789220       33.29941805506714
H           49.91412325057470       47.01355017879624       35.97378644254855
H           49.08680464481935       49.30495145310064       35.41250338306804
H           47.51519147743067       48.61165611547155       35.01925188310887
H           47.31613130113799       47.74251588817997       37.32912323184399
H           47.32694952043550       50.09867437390167       38.48191048459348
H           47.85007765451485       50.70281051084950       36.91139449936189
H           45.75217877841202       49.48463328192841       35.95755968021402
H           45.25820610446375       48.12527307171879       37.87956631039755
H           45.11014248092189       49.52400388088247       38.93567407504745
H           43.09230264181706       50.25883922919012       37.81471093696717
H           43.17907350428794       47.28854088678433       38.48995033488544
H           42.89080579399454       48.63293729185258       39.59087046567106
H           63.52796673455238       47.15659894373771       43.20479531546323
H           65.09334658818635       46.41084408881615       44.92812288933111
H           65.06835658964664       47.43342600928481       47.16137639494588
H           63.46249875359685       49.26400683050019       47.65084063835281
H           61.93635621397704       50.05317459864366       45.90666295704868
H           58.51557936815930       48.71907009363100       39.67315134838434
H           57.20087807711164       47.02356716626817       38.48707420424590
H           56.56444891382655       44.92472421577990       39.63437931807068
H           57.29713001448741       44.53464227335249       41.95030785451936
H           58.64759078257605       46.22041644102043       43.12829801305821
H           58.05450042513836       51.35932669746936       39.97847214222396
H           58.89009270727206       53.63106430857531       39.51638437305500
H           59.27380213860159       55.20445739696574       41.35738554693390
H           58.87753008206191       54.47676601001461       43.69950228069987
H           58.03587922586082       52.23816894977474       44.15629227462592
H           55.25250721194571       52.92754383338554       40.41440316357196
H           55.29986248936773       52.51746570893704       37.99380774331553
H           55.08014959380019       50.21479726918966       37.12242186470471
H           54.82193458546614       48.33442602692369       38.70092276972345
H           54.78061747940974       48.74519065905022       41.11341817753188
H           53.28893898231402       49.85997651897107       42.69796559116273
H           52.07985681056865       53.69889963252906       44.88274169433121
H           50.52515531006120       53.51326487652810       46.77639377006714
H           49.21063911987324       51.45768676291701       47.09781317995689
H           49.41780968562279       49.59994652325236       45.48825382488245
H           50.94426727678911       49.79819219328800       43.57349731061301
H           52.80972069609761       53.87248082192084       39.66331483465419
H           54.17246699091894       55.89956751433905       39.87620968375104
H           53.84112441589366       57.42171275054282       41.78664820903962
H           52.04949541102165       56.96465103363293       43.41817156508656
H           50.64757057592431       54.95313991094615       43.17816819892062
H           48.32823302501409       55.85573946461183       41.45737339704522
H           46.46599225977346       55.91230737607926       43.04246059479856
H           44.99640827101542       53.92783981034391       43.30671763871742
H           45.47914055635191       51.87965357398430       42.02310297155160
H           47.36303058277667       51.81954262356341       40.45934844930041
H           51.63696543106676       55.47238643034313       37.74408107536173
H           51.96053897892902       57.89934485709800       37.86459425552655
H           50.06162373355379       59.42048368957464       37.48030288361112
H           47.83414031484507       58.48962368047199       36.94489113997945
H           47.50386853702796       56.06593243942356       36.84529822007656
H           48.51463831181893       52.55530682968317       36.02195709607443
H           47.91347972658482       54.16091687806881       35.65595451775350
H           49.87355742162973       55.47612111910657       32.71531339961741
H           48.86998158693972       55.20974575388210       30.48789830923634
H           47.58378573149038       53.17366095589503       29.94413237521529
H           47.30748889950686       51.41283987020585       31.64981082953729
H           48.32021558277182       51.67097754208967       33.86464327965695
H           52.41932154368799       55.50887777678039       33.01824766217346
H           53.46466056103063       57.50713149894556       33.99579994615131
H           54.55846312126898       57.37830055343474       36.19955444465390
H           54.61156161693736       55.22949648649720       37.41696831920666
H           53.53309585121016       53.24482783140822       36.45643001099690
H           54.85732557614043       51.42266782838127       31.52680883769659
H           54.91821653366928       52.31799560548852       29.24971321255822
H           52.82067840645226       52.73849697412840       28.01968542499745
H           50.65156594825676       52.25031805326859       29.10165135071271
H           50.58709208348954       51.34335147685261       31.37340789173411
H           53.91760068196365       47.54667370582953       36.74277985233446
H           55.50860384916214       45.72037593715125       37.17710677659149
H           56.72769294770445       44.67358130913649       35.30721588802081
H           56.30152449737228       45.43930035288918       32.99762979492674
H           54.74520020045775       47.26115710174685       32.56530739187300
H           52.24828927945509       46.13979023410027       31.50152265251031
H           53.30132406309111       43.93266715855284       31.34611509293988
H           53.47677238618363       42.49825989041342       33.34948816290353
H           52.55937257569614       43.29009860367698       35.49753299995385
H           51.49051469394730       45.48554698398567       35.64787945993869
H           46.69981139117029       46.64729125975832       34.02391367597223
H           45.18313112935151       44.75823342627946       34.38585252845733
H           45.73490627742012       43.01323835175170       36.03966250135672
H           47.83683351868059       43.17481998792536       37.32725779648821
H           49.34752688032940       45.07451285708763       36.98189321876174
H           48.50465161620160       46.61459440986605       38.92689724873922
H           50.48955826675265       46.31944758363905       40.34758893403442
H           52.33047470876389       47.96211522748397       40.25019740677612
H           52.16377403642907       49.90356200461697       38.74782695610802
H           50.18820003191859       50.19388891057847       37.32055512139138
H           45.54985341255753       51.36229249743842       34.65633108870439
H           44.98342184342032       53.73151499159077       34.37308249664666
H           44.49793065089010       55.13368125655141       36.34711801715854
H           44.61739265218920       54.13788634576166       38.60628263408870
H           45.20474588663593       51.78807104296001       38.89239007999408
H           43.90349199153516       46.92265232917661       36.21504181002798
H           43.39900524589347       46.46524919051664       33.86305372646438
H           42.37615462295862       48.20422953113992       32.44719931346653
H           41.86325182491677       50.41935313225154       33.41078507885647
H           42.35672239363307       50.87819118273125       35.77550166817932
H           41.04306926523326       49.94163187032147       40.36419738121124
H           39.92143786734933       52.10557338632525       40.36621587216715
H           38.79713663098365       52.92758176159118       38.32781418613013
H           38.73431084153879       51.50333504190819       36.30871278479085
H           39.81736758812947       49.29633378339420       36.32452941963245
H           61.82892715394529       50.13288399144123       41.42601649742653
H           63.26178769904065       50.32923007654187       42.44435887880579
H           62.95354380180927       48.79173484339138       41.65109891650854
H           41.08113100434150       47.68445502308263       37.32556720168799
H           41.29223093318074       46.27757895611661       39.39353945039753
H           40.68177639142738       47.62673942630967       40.34834001961497
C           38.63906679011910       45.86664941899414       40.21761466581972
C           39.01925009393323       46.08379134429569       37.74259676804638
C           39.92824287176975       45.16368496623087       37.23230966992131
C           39.71475623516730       44.56206005804243       36.00471663183028
C           38.58665928758327       44.86579915431535       35.26285154036714
C           37.67275025758399       45.77924022390648       35.75959785376298
C           37.89104118889021       46.38031803565114       36.98619434788797
H           40.81722884063150       44.91135188856587       37.78903591564601
H           40.43440462389070       43.85130688766531       35.62293925457793
H           38.42111441676526       44.39658528866672       34.30369911581115
H           36.78940699436235       46.02643615846045       35.18776287547131
H           37.17419650867417       47.09785313402563       37.36239664312998
C           39.36127951604958       44.52766139433814       40.40151209644391
H           38.69510603386411       46.43081377133306       41.15137485026710
H           37.58263754228130       45.66962513662178       40.01621751569034
C           38.84179476882207       43.78257128111237       41.59910149613080
C           38.03238398068571       42.66458360233999       41.45428668442002
C           37.58240347477931       41.96966981086719       42.56412985460170
C           37.93259507271065       42.38674073753995       43.83530820264103
C           38.73259864016578       43.50483410747681       43.99125735170672
C           39.18072071840145       44.19663317437147       42.88294487121266
H           37.75843618773432       42.32940163510673       40.46246852012279
H           36.95774175411874       41.09659030076726       42.43305348152808
H           37.58926294661975       41.84359114610613       44.70275174403105
H           39.00895743428017       43.82445975277501       44.98576536335285
H           39.81399382905945       45.06299258189335       43.00623921582262
H           38.59896661509286       47.66704823185766       39.07578989417298
H           39.23075377668487       43.92079741426733       39.50368608452675
H           40.42930871618812       44.70665813786684       40.54126387400149
C           57.97543713485496       35.73301247384013       46.36851918635587
C           57.05448589949677       35.21154476441189       45.46705605171580
C           57.17806075780139       33.87871462496953       45.09408333534367
C           58.20957897766542       33.09928300386594       45.58710580808360
C           59.12985721289496       33.63485754453724       46.47175985084981
C           59.00334119139166       34.95488661820809       46.86978660699378
C           55.93316329672272       36.08184077057470       44.95256687098368
C           55.68203015517881       35.88245120941358       43.45806634525125
C           54.67775928198157       35.80368172792645       45.79487586612043
C           53.50322799268718       36.75215562643395       45.49337572368422
C           52.52035559784078       36.15485180519622       44.51644457569202
C           52.25091199082097       36.77796648771876       43.30427739190161
C           51.32046249393177       36.25327706088589       42.42422452396170
C           50.64020296453389       35.09150282976467       42.74505215776889
C           50.88907976944227       34.46732948373435       43.95590940897526
C           51.81707971565520       34.99786353550306       44.83245198991067
C           52.74429691324756       37.14804645625477       46.77426631156911
C           53.37764657175660       38.33080357095152       47.52078305284331
C           54.58790704244330       37.93800306711734       48.33105510119446
C           55.83271505683751       38.49021203061884       48.05551102007208
C           56.93489434827978       38.18059200809332       48.83312117929801
C           56.80660804782662       37.31273449110577       49.90118536422991
C           55.57044462447332       36.76375696807898       50.19015986449030
C           54.47259501308849       37.06968393438260       49.41044541857940
C           52.37614052014534       39.02749662068841       48.45996238841108
C           51.15490562682660       39.67455890199049       47.78306407377303
C           50.39643637315718       40.47617149345422       48.81260973210142
C           49.08174659234169       40.15358811961893       49.12141049625193
C           48.37961404784770       40.86568536524854       50.07806067188530
C           48.99004233291855       41.90373242315474       50.75884217783018
C           50.29681837176147       42.24132159091325       50.45311293663797
C           50.98943736211314       41.54203925033163       49.48172794298160
C           51.54641359482150       40.54413360557187       46.58292411548465
C           50.34108382593853       41.20041131060630       45.89560111207548
C           49.32526527156884       40.15865086304708       45.49220394000793
C           49.67789370631851       39.05766154826525       44.71859785425945
C           48.74739327891383       38.08481221804838       44.40103749710931
C           47.43694661614351       38.20747507853991       44.83151757049245
C           47.06517163165328       39.31286613772633       45.57678014133779
C           48.00344751955032       40.27543486604489       45.90602132321694
C           50.79958546424441       42.01038484513694       44.66350686329456
C           51.03639557819384       43.52912044426622       44.85202488706590
C           49.77334704381181       44.30965820092327       44.57567255540911
C           48.64252174771257       44.21222300906297       45.37671196071236
C           47.50051235646800       44.93638455147637       45.08326104005057
C           47.47645729713901       45.79545184031633       43.99924309618147
C           48.59308174398547       45.89733803345045       43.18830069299430
C           49.72267997259051       45.15035978109319       43.46885220313456
C           51.65084340105156       43.89097307535204       46.20909535328954
C           51.91929356350904       45.39685713075232       46.37563882467509
C           52.91837512423931       45.86793239384248       45.35173021104420
C           54.22515334848770       45.39469400269095       45.34252120198354
C           55.11043998986568       45.75715933010419       44.34448976474393
C           54.69878460904008       46.59201365837617       43.32016289094580
C           53.40354517248659       47.07962382256956       43.32523148774187
C           52.52904519460444       46.73479121479226       44.33940368081240
C           52.36097053819216       45.67506795675725       47.81900353321681
C           52.16264876344496       47.13553707609408       48.23667606331518
C           53.26933169945556       48.06048750583994       47.80425754692497
C           52.96628560547744       49.24784144049919       47.15159502820211
C           53.95130243998308       50.18196496764329       46.88235833116294