3536
 energy: -3716.248190105292 gnorm: 0.000664533371 xtb: 6.6.1 (8d0f1dd)
C           51.36072955328596       38.31070368686392       50.46126976846031
C           50.22217564472199       39.28578428268955       50.15904688842783
C           50.40756440700404       39.87723383634900       48.76375295799911
C           50.18464579559090       40.36948506717914       51.24266848731299
C           49.07087411709857       41.41844838587983       51.12221607408184
C           49.32896018478264       42.52391114181839       52.14372780504829
C           47.69286581364754       40.77479480140850       51.31244196589248
C           46.48457953176743       41.72412018607098       51.28509863156859
C           45.21259456062588       40.89752311854931       51.47747644736680
C           46.44982430971267       42.52346635775914       49.97732693452325
C           45.23467548803631       43.43554141458197       49.75930367895135
C           45.31835449130460       44.01994313856689       48.34952871337536
C           45.17857926836425       44.55449158962108       50.80574599281979
C           43.83988740163403       45.30445963253892       50.88507880279946
C           44.02801309133579       46.59055154701991       51.68696855962281
C           42.76248812975422       44.40765705943637       51.50812690911921
C           41.38041053645399       45.03910653188366       51.73197801259315
C           40.49470347764684       44.02092341059514       52.45145610785607
C           40.74905586361351       45.49232651283013       50.41323065916824
C           39.42329780897009       46.25816111491161       50.52964995847444
C           38.86782165793367       46.48004668889234       49.12062732205050
C           39.57598549407840       47.61116036394095       51.24921245157200
C           39.18653454170013       47.62581812602560       52.73318661238186
C           37.67887108699640       47.42953696154135       52.90226753977110
C           39.56844856272048       48.95920373828122       53.39229954996962
C           41.06267644786604       49.28992763528153       53.49364959912925
C           41.81549509775918       48.27803142031264       54.35308734432255
C           41.22789833227102       50.68815136067354       54.10629378441703
C           42.49182987204860       51.44133933903039       53.66650939217030
C           42.86291533721564       52.45100091012639       54.74828096868422
C           42.23429264955866       52.11790086361365       52.31437841718449
C           43.40719877175406       52.87316019308142       51.67146303792136
C           42.92382270403390       53.51776960676609       50.37189194827099
C           44.59835322505963       51.94178288958810       51.42149307754050
C           45.75928715901670       52.52940027992254       50.60395249176934
C           46.82862586207554       51.44964700713372       50.43881592907186
C           46.33154458814026       53.78294731874229       51.27609515433635
C           47.48344054569973       54.47815768282820       50.53628774362445
C           48.10027755540734       55.52971424740789       51.45717635655813
C           47.00238337491816       55.11518984302314       49.22858348576399
C           48.10455518647914       55.55818211788960       48.25686560441003
C           47.45259792870807       56.26288701221690       47.06805748860796
C           48.94866139770632       54.37584565386049       47.75568014380102
C           50.30055173827981       54.17984055433303       48.45935591714067
C           51.30347649073945       55.22800927115817       47.98289186954896
C           50.79020374251820       52.75810914350610       48.16205158614743
C           52.08622419783851       52.30741231858814       48.84847065445720
C           52.54063451437730       51.00438597149479       48.19268775289831
C           51.87808068595367       52.12420438403974       50.35506712406936
C           53.15117105535549       51.78770805471582       51.14343098314375
C           52.76708402727250       51.28508223945089       52.53425745334676
C           54.10860908547101       52.98994730249084       51.24827003243774
C           55.55744061782176       52.67653234556439       50.85784383832409
C           56.14254074797163       51.54935629489562       51.70904402481658
C           56.46591246122927       53.90457376338254       51.01980710687641
C           56.11202134587381       55.14831742356488       50.19839007735284
C           56.06680028238689       54.82983433061670       48.70504397881535
C           57.13754354505907       56.26983810542657       50.42914832361123
C           57.21656635179257       56.84939684425190       51.84483270190146
C           55.89336535049344       57.49242693146159       52.25142588156632
C           58.31882242494901       57.91398335618319       51.94104300418359
C           59.76980026734750       57.41772930463989       51.87488314324445
C           60.11224403340446       56.55779862377864       53.08794795728583
C           60.67551617695757       58.65442185358734       51.76980730300517
C           62.19431417927576       58.43571925495156       51.83910702034895
C           62.87954042918704       59.79246233285762       51.68004849042502
C           62.67652787511106       57.44470912187106       50.77790780152207
C           64.17684122179061       57.11127003920653       50.77774643445430
C           64.44884884804213       56.19654754012896       49.58326134430436
C           64.61328048285874       56.49449742360977       52.11647368222683
C           66.06287843597374       55.97787191644118       52.14544352928183
C           66.10664685571228       54.46451043847185       51.92153272708283
C           66.78657372786704       56.27481125709726       53.46819704501849
C           67.08072055676325       57.74441469655952       53.81322819324188
C           67.46071926371157       58.56931870279855       52.58488007613126
C           68.24163442372847       57.82742668840234       54.81890017577154
C           68.03798945557963       57.12585351210266       56.16822608600013
C           66.92958010548496       57.80117105880770       56.96925747806340
C           69.35820032265387       57.14967513595064       56.95378823921107
C           69.44832846463979       56.16745421676910       58.13271637129446
C           70.65317366363524       56.53672193499507       58.99692115699315
C           69.55380874720449       54.72540876652738       57.62130046151606
C           69.69185997749558       53.61901103357162       58.67877818388980
C           69.82773593340490       52.27944623920786       57.95294056086890
C           68.49962591435617       53.61744976682559       59.64209511068067
C           68.49698274710890       52.51278897447593       60.70651188861066
C           67.21240041329003       52.60742309454000       61.52819933926106
C           69.73444057588158       52.51743977588805       61.61576138047587
C           69.92839608103985       53.77790031624674       62.45463808302956
C           71.19324291824131       53.69143823184697       63.30065151668034
H           51.24075700242808       37.86876207313750       51.44831491067404
H           51.38410966446416       37.50719909941642       49.72820410212176
H           52.31862697459594       38.82642197402492       50.43134652202195
H           71.14477676492768       52.84172508998097       63.97956753069749
H           72.07108036776646       53.56948271752103       62.66860904708393
H           71.32288938807628       54.59460010877122       63.89316178757901
H           69.65967624956548       51.66350511790724       62.29488782402667
H           70.62728840939545       52.36027651354564       61.00572691577154
H           68.44980128792922       54.58103301076286       60.15098347500088
H           67.58340820950359       53.51555502278037       59.05300759702006
H           70.61176320095268       53.79017205384424       59.24578433536078
H           70.08911476083483       51.48000848012746       58.64168452953608
H           68.89620052405910       52.01842351270603       57.45546213999360
H           70.61072203030164       52.33627298554977       57.19897303310673
H           68.67139350413005       54.49970401080019       57.01871784882890
H           70.42226411449921       54.66666129418892       56.95916859375322
H           70.18800642214174       56.93656157267612       56.27421552085629
H           69.50696814248575       58.16551105581508       57.33018471069304
H           68.48656944052580       51.54394891209339       60.19348388712366
H           66.34374592209956       52.46149758482422       60.88994767225157
H           67.19964939937972       51.84840388578939       62.30715316022498
H           67.12207118928771       53.58256268770756       61.99783041481041
H           68.54491438018074       56.26774539973509       58.74164516186250
H           70.71724763821202       55.90411350206229       59.87856052740718
H           71.57604483237979       56.42167471582047       58.43165463880622
H           70.58074663218800       57.57044789045444       59.33160440936177
H           67.75763376086000       56.08545494614308       55.98362855065029
H           65.97392303917707       57.70555431834794       56.46301395861957
H           66.82801734099530       57.35262742509043       57.95428621038660
H           67.14567504761719       58.85962387659612       57.09443523680057
H           69.12574593206588       57.40240802823055       54.33441449544461
H           68.46040027191560       58.88013401705726       55.01505353359476
H           66.18917268668217       58.19974993121544       54.25654730615884
H           68.27836130063324       58.09545608578567       52.04627446201600
H           66.61695175585098       58.68293959924335       51.91097948530270
H           67.78452350512332       59.56319762392351       52.88609360276485
H           66.20621102829963       55.83185130920882       54.28176008503164
H           67.74512953253654       55.74818269838394       53.43240984028645
H           66.62321555628991       56.45548895479302       51.33733537269460
H           65.55909749323521       54.17970110978106       51.02848238004685
H           67.13195587283541       54.11857816560954       51.80951428003186
H           65.67039969774444       53.94723554334973       52.77483887259854
H           64.49789737422824       57.25420336184973       52.88954880719204
H           63.93694369099999       55.67291423480801       52.36518910990934
H           64.74839548831382       58.03388385513452       50.62181656015294
H           63.90534194575412       55.25923877110602       49.68466006268245
H           64.11932056275721       56.67720846654722       48.66495830753633
H           65.50672306391645       55.97502076648633       49.47589594519881
H           62.13260534450465       56.50599274600777       50.89767564263844
H           62.41531487638694       57.84747173046355       49.79509369991811
H           62.44045048604487       58.04381899076473       52.82893255593929
H           63.94545169082224       59.72833022278054       51.88460297179051
H           62.74030856942541       60.16971677472913       50.66856357623769
H           62.44776438409164       60.51860352035309       52.36643931040134
H           60.44321954123998       59.16303425261416       50.83019003517416
H           60.40612261675278       59.34033337428730       52.57932912024962
H           59.89729811004614       56.81575100473218       50.97131639801924
H           60.02105131074285       57.13486527045777       54.00553302418552
H           59.44518732726262       55.70183857488239       53.15616451966847
H           61.12797087744053       56.17794793391776       53.01471095400995
H           58.16026618697848       58.64147633339499       51.14029998496805
H           58.19716248588718       58.44623461600784       52.88896320349497
H           57.44209871322303       56.04759511552133       52.55313396925654
H           55.63961977407238       58.29276595132566       51.56129399883763
H           55.08402793969834       56.76795711813548       52.25564091457283
H           55.97079708569238       57.91173514921744       53.25238399705052
H           58.12040950259141       55.88921944110574       50.14938626979404
H           56.90315117284131       57.09084238137216       49.74633296875412
H           55.12343547613159       55.50801404322480       50.49743661384505
H           57.00691569942168       54.38692695320939       48.38199323967847
H           55.26370648466539       54.13568815348241       48.47402297821181
H           55.90384212329335       55.73572719803583       48.12452076733981
H           56.46649195374393       54.17174733171039       52.07808938763890
H           57.48422433747896       53.60609470715662       50.75658152057887
H           55.57279947690264       52.34985273220556       49.81207858832989
H           56.13878167574622       51.82830669134832       52.76149734640101
H           55.58164568820175       50.62573647173821       51.59484325393771
H           57.17102116365155       51.35198593207354       51.41090574247361
H           53.74661997555847       53.79060668845039       50.60309151532318
H           54.09927553639803       53.37406996645695       52.27053816079048
H           53.65772601541970       50.97131245564316       50.62350310951751
H           53.65362147547314       51.05994428127426       53.12118616366190
H           52.19021690257120       52.04253381493449       53.06185733329370
H           52.16532632374990       50.38017131750451       52.46853310952290
H           51.43971985003920       53.03262793534459       50.77427911738246
H           51.15429869916657       51.31651418314375       50.49992678017437
H           52.86005920759290       53.06237204525628       48.68168665410120
H           51.83707747393175       50.20393130719482       48.41206336292193
H           52.58750876115787       51.12684282602903       47.11335491173414
H           53.52488150756390       50.70239126454949       48.53728619827498
H           50.00255011048120       52.05136636122045       48.44208389563905
H           50.92397070368600       52.67581263278210       47.07925569549311
H           50.16605913554854       54.29946653331925       49.53730044157478
H           51.56358024328544       55.06040775871608       46.93923658774321
H           50.87966833754506       56.22602604661120       48.07104987297991
H           52.21446155896421       55.20159330217878       48.57539415544095
H           48.35466068656914       53.46403322955919       47.85189670559819
H           49.15197399014583       54.50778740300379       46.69037070177893
H           48.75479438556086       56.27909350546955       48.76096248767156
H           46.78524919862410       55.57777002590843       46.55051426317455
H           46.86891609823967       57.12104638193424       47.39349932886176
H           48.20385061403035       56.60984792530458       46.36270540772725
H           46.36417238951868       54.40640371280195       48.69692427565089
H           46.38448964277219       55.98397042283520       49.47688944377357
H           48.24780889624096       53.73291903630572       50.31050665474240
H           48.48173007864761       55.06486610411843       52.36410398269735
H           48.92588138175968       56.04097039635191       50.97065150500143
H           47.35915440292266       56.27458491887800       51.74207214390716
H           45.53241358976187       54.51462520672553       51.41256872143732
H           46.68751726505733       53.49634561450704       52.26827106014024
H           45.38437904791021       52.78432524311424       49.60858756145466
H           46.38337596832613       50.52741196398586       50.07106444516365
H           47.59367239477009       51.75599398739503       49.73033557476834
H           47.30670900830707       51.23779277790166       51.39310010496973
H           44.99414744699114       51.61016235422324       52.38330974172278
H           44.23077645488448       51.05555768878435       50.89516159743869
H           43.71306998568718       53.67329487349664       52.35224862763830
H           42.76751998575428       52.75928466249128       49.60767433665119
H           41.98350908331195       54.04143336574246       50.53131540105168
H           43.64629155175771       54.23674608503731       49.99639799397835
H           41.89210473121956       51.35399294428719       51.61063812314343
H           41.40971183866576       52.82589819175159       52.44696535475149
H           43.31123288549764       50.72456882856526       53.55983902461582
H           42.02380472475265       53.11311982800036       54.94600071031588
H           43.12284514345026       51.93733334044951       55.67196436943740
H           43.71248535505575       53.05442281996467       54.44818709206287
H           40.36051824984801       51.30531999020611       53.85836512232349
H           41.24422242134634       50.57530042487050       55.19173205413740
H           41.49654863724763       49.29430065722519       52.48894835578036
H           42.85443735537059       48.57944433950886       54.46602229868408
H           41.36608243800804       48.21972646976585       55.34205781155173
H           41.80077371970290       47.28530076900845       53.91311833378001
H           39.07715075692246       49.75945993606449       52.83111004086295
H           39.15314823409535       48.97328577848295       54.40386162360046
H           39.69208010920340       46.81005366425937       53.25433573484346
H           37.41545932448408       47.39941633465390       53.95761802182467
H           37.13499152928940       48.25092844362253       52.43873274683527
H           37.34159513830833       46.50127747526427       52.44787116309165
H           40.61022348449490       47.94125866843939       51.14399046792494
H           38.95277047511061       48.35417679924997       50.74413630276660
H           38.70549995955324       45.63561965485562       51.06933669189070
H           39.54670644538095       47.10205718891018       48.53919099556161
H           38.74319531503085       45.53310338234463       48.59865104838902
H           37.89925040760525       46.97443326043629       49.16010047581774
H           41.45650950589934       46.13352680870869       49.88325347806322
H           40.58300560215176       44.60655487405738       49.79370524492225
H           41.49915681407523       45.90739410826601       52.38191315931836
H           40.97890233139793       43.67210544725578       53.36200751374472
H           39.53636189257002       44.45270805863722       52.72740669170851
H           40.31015828285109       43.15778446896717       51.81396906288312
H           42.62784177468382       43.52545512550493       50.87741719836246
H           43.13199818647194       44.05967568974933       52.47786261834366
H           43.53475032802704       45.57577541385862       49.87139896104723
H           43.14235030499987       47.21774021335693       51.64254770252527
H           44.23810257044978       46.36330918566414       52.73029644058643
H           44.86247580610652       47.16265137959046       51.28682047646389
H           45.39008041414269       44.14148608826791       51.79340789107649
H           45.97224109125304       45.27015854139623       50.57632435873909
H           44.32591458025631       42.83189738216751       49.81882481904447
H           44.50380550106052       44.71483067998704       48.16549826432622
H           46.25700532097659       44.55408193594528       48.21976554912538
H           45.26607313794517       43.22892471991334       47.60366860516408
H           47.34133511494425       43.15021902645567       49.92425172746289
H           46.49524041668404       41.81345633327433       49.14612898717115
H           46.56778336995964       42.41141317862348       52.13147857454187
H           45.31235155389856       40.24652540133285       52.34409938479331
H           44.34930789422790       41.53720499564861       51.63890227840511
H           45.02494367750255       40.27506752119164       50.60435775497669
H           47.54703497523522       40.02649147327976       50.52983268996525
H           47.69065883478178       40.24834110942279       52.27163442325861
H           49.12414490618313       41.86059163262185       50.12460181246001
H           49.28305269428887       42.12455066300141       53.15558053785265
H           50.31760811410655       42.95126176302592       51.98811341593618
H           48.59855466057414       43.32294402315055       52.05184242970906
H           50.09845044350973       39.88230180067649       52.21842302450580
H           51.14426936635046       40.89314468050660       51.22611717667506
H           49.28295800196007       38.72256536891157       50.17968887514225
H           49.54505975675909       40.46708925088273       48.46567429089880
H           51.28943610448152       40.51321208322042       48.73544073214366
H           50.53748218085496       39.08131826860062       48.03372334433340
H           69.99699929984074       54.65092428476825       61.80500201295428
H           69.07134133796876       53.91785748699457       63.11509315348138
C           50.48279423651508       61.88760706711219       70.07746300099446
C           51.69743855548112       62.81580277712329       70.06838177565683
C           51.72673064785600       63.62219688929266       68.77371241234971
C           52.96975013686748       61.98280579991002       70.25659201060400
C           54.30243595237212       62.74649139324200       70.30027358265289
C           55.41595076395739       61.73247464538035       70.55500970307227
C           54.27362670159407       63.83926077960793       71.37637415132004
C           55.59906705481713       64.55605251165943       71.67572217836543
C           55.37768897220270       65.50146914537301       72.85752030969105
C           56.12866602123182       65.31819802493875       70.45539204902093
C           57.53261212631833       65.92365057512009       70.65747201674209
C           57.46768634564054       67.45184414352522       70.69195857625368
C           58.51533059914576       65.48587864938651       69.56193330347513
C           58.90972084480413       64.00551363111114       69.58861529203426
C           59.72373447596394       63.66354848511317       70.83733600448763
C           59.73479400399903       63.62737178003034       68.34983774220805
C           59.04353938316873       63.77405211356294       66.98805025153095
C           57.66609723812945       63.11015095527434       66.97288645821673
C           59.89653586853658       63.13521024134734       65.88284756417673
C           61.28504253961771       63.73530248822996       65.62976406129226
C           61.18706515509907       65.20892137814171       65.24645932055978
C           61.96836748665502       62.93239842529559       64.51170981602074
C           63.49641756451636       63.06819401558197       64.43578840451865
C           63.97706201675035       62.55494918270805       63.07876373433439
C           64.15858147974119       62.28071046410633       65.57458371077045
C           65.65730938905078       62.55199755530416       65.79127601136726
C           66.37280116581171       61.24829688685374       66.15051464375871
C           65.92173922431392       63.57548209629896       66.90374530167568
C           65.45772131334350       65.01384409335186       66.63744195788924
C           66.25600900991954       65.63854366833105       65.49638507470917
C           65.61470386020888       65.81969206096453       67.93479947207531
C           65.07636102213787       67.25813479245357       67.92886206723580
C           65.53008228664541       67.94585790606419       69.21792330958606
C           63.54796322428614       67.28901610828547       67.80922374190406
C           62.95858406357572       68.69408078138689       67.57611716249430
C           61.87781890449943       68.99648129881351       68.61609465881951
C           62.35361470630063       68.85523297935420       66.17508233189942
C           63.33191283471837       68.74302504656185       64.99658423260475
C           64.28489361880332       69.93488043434439       64.95770932296794
C           62.50944445067635       68.64224363166571       63.70391216636953
C           63.28202578288323       68.54682639102197       62.37889167755555
C           62.26268724378567       68.44982179930912       61.24342167425112
C           64.24191709408834       67.35060232499657       62.37839552323903
C           64.92984287502517       67.02161945640050       61.04284273772212
C           65.83467829886121       65.80714362655723       61.25199293785533
C           65.71764135697616       68.22742306281532       60.51329327262972
C           66.50748955650121       68.02742090050221       59.20621439727795
C           67.35855901795210       69.27566852815875       58.97111899620239
C           65.55996783184843       67.74460717401683       58.03110738111719
C           66.12833980221332       67.06484747178696       56.76636006326846
C           67.03661384936576       65.88795707095319       57.11160062935232
C           66.81580095741718       68.04120411385033       55.80474129105034
C           67.10869749880554       67.49037995775234       54.39842789331031
C           67.98530295930915       68.49803584390456       53.65347913564582
C           65.82939496652519       67.21917189263080       53.59813748574377
C           66.00236934296981       66.26199435542969       52.40890492980898
C           64.83677713909144       66.45548488403479       51.43982949178295
C           66.07060118322318       64.80327369342908       52.87893913419006
C           66.63946843105927       63.81357840225781       51.84800358574314
C           66.20162955651654       62.39601005219374       52.20970601626269
C           68.16743517676873       63.93272042526139       51.78726712945596
C           68.90328176537274       63.01810955403565       50.79496895445393
C           70.40602296542215       63.25489184782917       50.94595434106324
C           68.46798239992948       63.26278638432861       49.34613321297450
C           69.07002943903466       62.27182175963848       48.32967861351144
C           69.94257643005265       63.00816602379583       47.31238725690888
C           67.98952808235826       61.47139421688317       47.59046451188556
C           67.21955296858836       60.47312004192651       48.46105094338522
C           68.13585171749624       59.34857134789463       48.94400255227220
C           66.04489719552635       59.85295583399484       47.69119928728894
C           64.93801753948888       60.80988972441738       47.22847058417263
C           64.45763658157556       61.71279454722308       48.36488322545789
C           63.73072879682474       60.02529250327131       46.69085019723923
C           63.99652298389965       59.08077308040261       45.51314793580437
C           64.48596784749259       59.85346806505552       44.28836563710960
C           62.72455388457900       58.30006921601982       45.14677144708609
C           62.34533867996828       57.17174078504509       46.11225033196060
C           63.28536646729181       55.98137618434674       45.92903414955283
C           60.89914633224802       56.70507417072617       45.89084158006008
C           59.80056250603782       57.67141075272956       46.34615903617619
C           59.80703819164141       57.81365894045378       47.86617046396087
C           58.41795122018307       57.17803877353862       45.89392264104654
C           58.12485321773332       57.33816122382351       44.39751104047873
C           57.81311357820995       58.79655359921970       44.06440110753574
C           56.93613111700066       56.46485410572224       43.97412422886816
C           57.22819800781684       54.96278748344407       43.88392811166845
C           58.00496520938950       54.63901081186521       42.61015361771836
C           55.92576794744899       54.15192393550078       43.91829306323810
C           55.30802217886177       54.06741791064220       45.31085188590787
C           54.02490876760810       53.24957777919655       45.32306348353114
H           50.45271181617930       61.29914399371659       70.99259430528343
H           49.56134835764489       62.46223347490481       70.01365622436244
H           50.52038096348863       61.20527095494005       69.23100099445254
H           53.61171281720701       53.20814494948154       46.32726531190750
H           53.28029364286187       53.69550658122500       44.66652275966205
H           54.21880685215834       52.23250023147067       44.98766734388320
H           55.20896712382003       54.59779955512614       43.22364499693798
H           56.13082545750336       53.13616856815091       43.57065259487945
H           56.12642381208646       56.63715356192655       44.68552441194761
H           56.58210485570063       56.79826090544366       42.99534554158489
H           59.00569692784097       57.03605189047131       43.82316755525513
H           56.90083937983759       59.10624235133397       44.57106323185415
H           58.62080489592827       59.45361982656514       44.37590776096837
H           57.66880698577320       58.92509004532346       42.99312220444509
H           58.32384659713946       56.12749185288540       46.17603696029574
H           57.65141833763472       57.72965254553151       46.44498633264276
H           60.77638693903852       56.48901976331145       44.82700391710812
H           60.75474340619261       55.76806805909293       46.43502601037989
H           57.84091850733268       54.66175604171947       44.74065538307534
H           57.39897088334023       54.85753664196580       41.73314098430890
H           58.91730320867218       55.22577744806313       42.54602997884393