3258
 energy: -3427.654129209001 gnorm: 0.000672000561 xtb: 6.6.1 (8d0f1dd)
C           97.77087788089679      103.95253188072284       97.10732053621425
C           97.34461055139892      105.36651049696252       96.73360180743927
C           97.71488898455584      106.37405453592585       97.81823380708416
C           97.24133496898476      107.78655128060620       97.48686784979982
C           97.57248247089773      108.77304187835412       98.60290804237758
C           97.06449931100933      110.18156802870851       98.30774400335608
C           97.41811978437148      111.15601092298064       99.42805866661253
C           96.87246430314420      112.56037122744097       99.18076111698913
C           97.09820724744641      113.47816565749858      100.38044617171791
C           96.47764806585091      114.85873364435329      100.17614000582606
C           96.62692446358189      115.77533856315382      101.39207254742105
C           95.77859246243523      115.33730106168217      102.58328290762989
C           95.90253768699216      116.29117942499569      103.76997539971406
C           95.21665475054830      115.72482392595120      105.01219048359971
C           95.47517712117954      116.55363779468567      106.26821503528082
C           94.79030532058678      115.94145262223044      107.49006242548282
C           95.17451028203253      116.60602289964696      108.81221165670907
C           94.74106814339990      118.06647633022631      108.90250867143308
C           95.03941950476096      118.67097790313059      110.27176413348526
C           94.72361418796224      120.16369109628150      110.31439117707798
C           95.06026557461085      120.78077953065727      111.66887500854712
C           94.69340806108801      122.26246099063265      111.77188172051659
C           95.40944227716126      123.17685170912237      110.77466206878947
C           96.92932220686305      123.14297082583283      110.91007995175053
C           97.61068134258410      124.17288797606048      110.01016225645589
C           99.13536940299507      124.05643455008813      110.03440368616933
C           99.75290727807381      124.53303465913336      111.34785054581987
C          101.22986321051350      124.16309640186606      111.44918676553579
C          101.83210645483945      124.55173710410047      112.79910920783709
C          103.13709236344550      123.81880070904306      113.11245113112631
C          104.19769582760358      123.98761151681174      112.02819557856824
C          105.55490978576938      123.44706270649314      112.46925529530296
C          106.59592937824191      123.43370183978402      111.34927482887814
C          106.81178225876967      124.77979162172790      110.65896841236325
C          107.32960616599695      125.88082219409898      111.57985458340694
C          107.36216328518348      127.22802077981392      110.86453819882432
C          107.90948418945904      128.34791903642261      111.74384249647392
C          107.73573815922154      129.72068046177930      111.09896996714022
C          108.39375692935839      130.82923754398846      111.91653489827517
C          108.14420275234316      132.20857040594262      111.30999297740338
C          108.87487492826452      133.34326575148728      112.03368379117133
C          110.39977820823846      133.28345123201007      111.91996406579369
C          110.91452704657659      133.56476267592214      110.50846837133237
C          112.36600908691508      133.12902884317700      110.29538537730105
C          112.60693922944770      131.62364254086884      110.43023354460112
C          111.79490626843869      130.77111363744677      109.45869119906919
C          112.06687857210056      129.28178088386866      109.65499762575421
C          111.17615625046875      128.40945064792461      108.77525822923248
C          111.34858045968785      126.92255413537224      109.07424514672063
C          110.42794419694022      126.05539523516454      108.22147230218512
C          110.51392793211100      124.57635395560008      108.58754309071381
C          109.56257318750518      123.72914530525600      107.74778693604840
C          109.57383245143048      122.25779017848519      108.15142450069513
C          108.65467028028046      121.41065168787431      107.27458790249658
C          108.66668267208523      119.94072647632669      107.68415775009782
C          107.82590549038943      119.06748858039238      106.75629520112714
C          107.86071996726342      117.59980263939102      107.17496708339679
C          107.15228731879363      116.68710006275904      106.17808969552917
C          107.20542039943673      115.22428221719379      106.61051664030821
C          106.59707301715156      114.28542146314368      105.57297381286348
C          106.63801048711851      112.83010789347624      106.03033270446863
C          106.11152662581745      111.86833432580208      104.96947297660850
C          106.12589254200228      110.42164791677459      105.45407409589539
C          105.66376833812878      109.44261904261616      104.37946291961919
C          105.65788495120023      108.00234718414491      104.88145430255892
C          105.20651191384793      107.01782536378228      103.80769437471209
C          105.14153161615985      105.58593669282440      104.32983354340568
C          104.66122303531964      104.60780239529417      103.26288334018994
C          104.50938544763487      103.18842678921857      103.80064778308143
C          103.96966749120071      102.23445459656477      102.74041133735160
C          103.77730870993382      100.81797645812668      103.27156916881366
C          103.13999261297887       99.90284956559174      102.23139301477066
C          102.94234935351149       98.48229080994929      102.74982515191469
C          102.15499455677750       97.62285653835751      101.76615509658023
C          101.88825106554498       96.21730315954574      102.29644173163128
C          100.98644750500488       95.42640387827581      101.35137345529262
C          100.77998916755317       93.97294512557428      101.77706845509302
C          100.01688836447973       93.82415485753697      103.09141815196503
C           99.75940707989407       92.35762969791642      103.43063153093281
C           99.20212661208917       92.17572334082703      104.84070824425822
C           99.02195571584957       90.70060250477310      105.19185340133676
C           98.43050784789511       90.46897774525789      106.58322241667773
C           99.33262558634983       90.96951314105232      107.70986733761346
C           98.85929749294034       90.48345821015232      109.07878682981402
C           99.57633383984017       91.16297726525809      110.24699229980961
C          101.09075727280856       90.96871217760466      110.22224422462281
C          101.75868744995047       91.47090548974067      111.49998065139401
C          103.27690630673025       91.28611897741160      111.47693950456991
C          104.01849633879358       92.33698177157636      110.64422636213553
C          104.34911510612534       93.59512706706310      111.44252955151104
C          105.07920375226719       94.64211654894743      110.60428276919258
C          105.50678412783159       95.84144892019599      111.44567896141183
C          106.10855273878991       96.96867736133025      110.61139085529521
C          106.62863281712441       98.10366282905122      111.48950101876272
C          107.11613758701415       99.30473668207092      110.68478535689432
C          107.68385841992691      100.39944952196143      111.58276949367368
C          108.09273812511287      101.64583603779550      110.80318693959052
C          108.70521113446266      102.70589736684053      111.71374660683907
C          109.01851203345585      104.00516367491933      110.97811007350586
C          109.69465165319239      105.02361768391097      111.89123887212459
C          109.93876919273765      106.36108880727846      111.19931284419978
C          110.69903175961515      107.33516133841930      112.09449948220579
C          110.89728330139293      108.69696742964065      111.43625527064177
C          111.75456214323209      109.62774129636088      112.28868681490290
C          111.92558583170410      111.00164399074826      111.64793505406932
C          112.87901578633196      111.89373933113899      112.43718025639919
C          113.04586586747766      113.26536863065870      111.79029678615203
C          114.06604888638005      114.13372583502044      112.52088460599839
C          114.25343114952845      115.48024381079352      111.82827528290925
C          115.15170930513112      116.44849250102038      112.59485134499631
C          116.60876042950234      116.01309090202649      112.75053086362163
C          117.36489933613393      115.86550334460600      111.43213608659551
C          118.86915348118043      115.74726611481748      111.66414835564666
C          119.64530429212832      115.42624950877081      110.39104859666752
C          121.15679470525019      115.48951667668467      110.60531409900742
C          121.95681793563371      114.93637019326299      109.41746643855252
C          122.52316216975251      113.53663877453111      109.66569578825111
C          121.45585920472190      112.47352771610359      109.91178031845594
C          122.06570464855808      111.08780679236850      110.11024544589809
C          121.00326177171543      110.03922727705385      110.41663600174866
H          122.61404433047315      110.79925749210111      109.20932493807425
H          122.78538454020882      111.12474566456711      110.93251123981528
H          120.88001490017459      112.73107634479062      110.80246911646843
H          120.76988887123973      112.44602630667001      109.06250163849204
H          123.12241022641943      113.24155870360190      108.79903230866429
H          123.19682519871479      113.57246967046467      110.52702704585111
H          121.32274964949738      114.91418195468634      108.52874143423496
H          122.79551718463924      115.60212777113051      109.19877728896601
H          121.43490585113292      116.52962455060441      110.78570189243567
H          121.42088025488850      114.93021696775112      111.50593522189047
H          119.36678532399898      114.42860833299653      110.04555654130964
H          119.36993925147510      116.13675826962216      109.60736187491570
H          119.24274878679553      116.68266814926474      112.08662864711056
H          119.05393670248445      114.95790587651845      112.39331670526465
H          117.01608825278221      114.97789566450112      110.90192926117817
H          117.16600985136517      116.73388623253361      110.79890983099233
H          117.11950059493462      116.76683897987672      113.35718175246573
H          116.65727878593826      115.07049754511974      113.30071466693417
H          115.13242954722888      117.41289332527782      112.08099434116662
H          114.73036736596826      116.59928079396001      113.59131497364633
H          114.65645819187665      115.32015769903539      110.82590625356485
H          113.27247520383199      115.94942039782441      111.70814383879555
H          113.73299815337801      114.29727614970923      113.54867850800373
H          115.02051449200880      113.60252817759094      112.56095243285624
H          113.36266187931852      113.13697746007063      110.75164014889539
H          112.07990551153503      113.77689813564189      111.77476453549258
H          112.50575490131497      112.01532630504639      113.45656615739986
H          113.85628434973324      111.40439267613525      112.50191930350213
H          112.30843340568589      110.87993789132130      110.63131721723786
H          110.95059402577411      111.49024447701431      111.57539515946071
H          111.29925555022237      109.74140882733685      113.27483439349909
H          112.73959674291729      109.17320720381446      112.43440088805654
H          111.37314589747905      108.56223648125575      110.46153861048502
H          109.92180530808167      109.15988930590792      111.26652821914847
H          110.15603036489128      107.46365602681895      113.03319830486681
H          111.67615913559084      106.90814235654727      112.33951252925890
H          110.50626473472744      106.19685150716282      110.27955417829565
H          108.97752426754001      106.80183329994126      110.92208102767698
H          109.07204220681082      105.18476460169845      112.77378898480349
H          110.64957270564106      104.61714068754711      112.23662052308453
H          109.66876370455182      103.79426833821394      110.12486948576307
H          108.08833322102191      104.43006621715431      110.59083758821808
H          108.01369723154609      102.91746515413865      112.53192327460586
H          109.62361749820342      102.31141378872869      112.15721488698603
H          108.81350623572534      101.37279053656248      110.02726736545054
H          107.21157194477402      102.06244743436322      110.30692582762198
H          106.93458600743752      100.67565795537556      112.32711911052562
H          108.55134155075345      100.00850156895335      112.12136794803270
H          107.88830913152799       98.98382887182775      109.98101019829252
H          106.28364501336318       99.70980925383856      110.10243350535590
H          105.82885556626759       98.42909814712493      112.15759383532153
H          107.44527832951799       97.73039800715364      112.11307064106411
H          106.92432565499381       96.57345106307243      110.00212463296693
H          105.34788630310665       97.35794943937731      109.92962790658464
H          104.63782069492088       96.22545603770720      111.98339462058635
H          106.23641912600961       95.51428805319384      112.19084902002162
H          105.96189423841783       94.18842734516544      110.14545072548889
H          104.42662500383908       94.97869884474591      109.79532169054733
H          103.42918832149746       94.03051918252591      111.83704929954818
H          104.97599405181231       93.31997277849834      112.29496324463328
H          104.95561003696230       91.91059499120473      110.28019542484465
H          103.42381400454572       92.60612070839917      109.76936381067640
H          103.65554545078798       91.32235536606593      112.50135686670677
H          103.48933004606145       90.28879033311584      111.08432684436836
H          101.51662385505770       92.52520747001138      111.65116163801457
H          101.34481713136572       90.91622851978165      112.34620532837606
H          101.31182652094328       89.90479855114809      110.10247864903997
H          101.51197110314945       91.49311513407083      109.36358630514439
H           99.34676648847129       92.23136600066000      110.23812980826563
H           99.18046879257470       90.75388158802770      111.18098441273386
H           97.78686432806383       90.67586157492055      109.17090323711570
H           99.00377753213337       89.40165214072013      109.14610162485407
H          100.34892423436590       90.61595091416612      107.52745117684003
H           99.34873803398555       92.05963744223368      107.70757477363864
H           97.45656624548209       90.96025557763357      106.65197002307340
H           98.26604906627931       89.39576598073229      106.71356891271431
H           98.36534062642343       90.23841667598474      104.44965316290121
H           99.99086698010510       90.19875285485874      105.12996079925513
H           99.89033671602871       92.63701105699691      105.55101351094285
H           98.24065388637437       92.68951282571396      104.92157915222043
H           99.06550993645625       91.92947973512149      102.70273726792402
H          100.69897323983189       91.80476977034895      103.34632303648633
H          100.59435450566845       94.27729375408515      103.89900503675783
H           99.06484598190839       94.35656567007425      103.02393058713574
H          100.22882991318225       93.45106060666383      100.98989765674025
H          101.75383199067605       93.48622330267163      101.87390740974568
H          100.01513425693575       95.92313204660803      101.28167931975737
H          101.42915078131648       95.43621494676447      100.35158165396599
H          102.83501158815196       95.68828480736244      102.42637438120228
H          101.41335108791462       96.29465609796610      103.27509151092120
H          101.19834155314128       98.10827593216433      101.55743519827939
H          102.70294923304961       97.55400323183270      100.82193579167044
H          103.91323429741297       98.02231211537404      102.94009418092739
H          102.40571300314733       98.52115579071352      103.69910184923398
H          102.16909579255365      100.31571185090614      101.94440488798952
H          103.76541556998080       99.87816955063269      101.33508887745408
H          104.74376679802486      100.40732737567795      103.57340868105589
H          103.13822199664740      100.84902944124059      104.15688447340708
H          103.00847596271909      102.61262959760630      102.38030377839604
H          104.65533855304906      102.21218519826498      101.88986690018618
H          105.47805799885577      102.82645360491135      104.15595040173868
H          103.82603966031552      103.19886653316317      104.65312362019144
H          103.69432283634502      104.94652586309412      102.87948197647391
H          105.36479632569149      104.60758522236472      102.42674484825798
H          106.13178196552650      105.28174613317789      104.68016578728189
H          104.46087951962512      105.54733964381113      105.18369955744315
H          104.21674217960467      107.31076631710147      103.44630422137540
H          105.89217697025653      107.06547419175193      102.95826533964222
H          106.66376595467146      107.73268972502831      105.21484914890684
H          104.99161287405094      107.92546307984911      105.74370347134864
H          104.65664686555108      109.71435898352648      104.05165924930694
H          106.32045099392035      109.51821258602818      103.50961469310627
H          107.14011974819266      110.15671659216491      105.76621931244266
H          105.47969622277402      110.32929500168707      106.32943372091124
H          105.08974333312682      112.14899008360537      104.69929232224844
H          106.72096691889540      111.95545097277167      104.06638126313227
H          107.66927283793056      112.55995100212193      106.27481388487122
H          106.04697597860094      112.72203554971098      106.94190461974100
H          105.56094223907930      114.57779456362790      105.38085358882630
H          107.14214617146658      114.38558929972325      104.63104140444160
H          108.24741365543974      114.93821012635621      106.77978126558735
H          106.67627245159774      115.10763337881092      107.55862906778384
H          106.11011339793222      116.99898681172436      106.07303313000688
H          107.62207476082480      116.79246395007712      105.19701417495550
H          108.90287351774674      117.28097970107301      107.26767740852081
H          107.39756887673380      117.49238650964121      108.15850073295262
H          106.79226122391731      119.42375695022999      106.75501916052698
H          108.20170960798731      119.16162499702064      105.73436111872617
H          109.69779922742222      119.57607159189072      107.67751772914310
H          108.29252654217879      119.84779045479414      108.70616027363263
H          107.63349278163408      121.79367825503994      107.33958619214926
H          108.96756558387219      121.49953702418046      106.23104038542796
H          110.59474187398462      121.87248335956220      108.07859898815077
H          109.26072559448582      122.16853746995535      109.19417355470154
H          108.54943527292376      124.12272073853073      107.85807410333489
H          109.83138397648626      123.81996349938649      106.69206943854890
H          111.53932118670863      124.22485396443177      108.44449286465516
H          110.26601192674593      124.45441883142725      109.64454502818353
H          109.39746289268793      126.39507469631762      108.35171426427360
H          110.67895176726917      126.18657852951279      107.16547539765334
H          112.38829964928941      126.63300217221008      108.89871594933793
H          111.12871824870656      126.74563389818844      110.12979866917185
H          110.13179821033792      128.68609069095200      108.94050867027345
H          111.39959200029966      128.60329574535967      107.72228412538985
H          113.11690003878402      129.06693724116181      109.43797090576059
H          111.88827394417089      129.02597789269385      110.70239908069681
H          110.73026981711040      130.94627378893989      109.61809656135762
H          112.02976695693161      131.06133403382589      108.43149320798062
H          113.66973412597670      131.43461367068622      110.26306281949401
H          112.38441597130095      131.30745164294726      111.45009241870886
H          112.67705185642957      133.44731985384655      109.29642152045000
H          113.00153307449051      133.64741982851865      111.01873635752304
H          110.28630867799021      133.06079452358853      109.77508454265059
H          110.83749134880493      134.63733186578378      110.30962565187620
H          110.83536352752215      134.01701162976761      112.60402246117083
H          110.73761058915451      132.30099976555206      112.24508549572516
H          108.52712263293516      134.29861326260146      111.63111528974396
H          108.60035310244506      133.31371740518878      113.09149051961077
H          108.43483751947304      132.19497697370647      110.25747279142760
H          107.07075412153473      132.41587166660662      111.34034488845177
H          108.00608557434367      130.80959228156624      112.93787323089838
H          109.46589521308272      130.63152369081723      111.96323164802635
H          108.17173475741171      129.70810158916527      110.09597715850281
H          106.66922406165500      129.93517650528190      110.98587191649386
H          107.39330510251409      128.33828656202022      112.70699409270409
H          108.97114722292814      128.16948675610462      111.93299035011610
H          107.97965282092422      127.14501729512070      109.96705338729242
H          106.34758291605867      127.48459151189621      110.54630782065063
H          106.68976155208972      125.96874480397523      112.45941087005576
H          108.33444844496891      125.62421385000241      111.92392452869487
H          107.53005716582419      124.63836541604215      109.84829171013742
H          105.87372495484604      125.10650399975768      110.20571394561047
H          107.54683542070646      123.08833854332727      111.76300147330122
H          106.28757948399488      122.70819421717303      110.59183581868000
H          105.92400591224703      124.04235402919301      113.30641235059254
H          105.42975354940118      122.42274521213152      112.83089412467902
H          103.88297032452297      123.46833756259163      111.12088513091746
H          104.28728067527463      125.04921791007793      111.79083877039884
H          103.52779992589626      124.20130841976790      114.05972042904271
H          102.92768116956105      122.75559074855973      113.25130021939201
H          102.00470819236487      125.62986121192179      112.82111343288074
H          101.11143644555455      124.32178931504215      113.58958836661724
H          101.32428279375014      123.08376992638300      111.31142558847702
H          101.78036604498200      124.64987441300242      110.64241256759270
H           99.63268197977698      125.61620169391591      111.43789003167302
H           99.22124656429303      124.07623882674204      112.18508009250016
H           99.40947844274015      123.01199558527567      109.86742145802233
H           99.55481263371711      124.64049399211216      109.21097896109605
H           97.26091710788029      124.02483461920012      108.98461968579626
H           97.31495537772707      125.18068660779392      110.31328569134803
H           97.19210525325742      123.32952277132479      111.95307023206632
H           97.29993804522228      122.15226634384534      110.64390478357205
H           95.12780875073649      122.90522629942717      109.75553643160301
H           95.06206757380916      124.20026270403550      110.94280762508181
H           93.61493149680521      122.36871467067668      111.62651085700281
H           94.92145266534821      122.60454241987252      112.78533408167958
H           94.51570177312649      120.23974600659449      112.44812017700586
H           96.12466439303066      120.65076423827531      111.86977672988354
H           95.29727426353752      120.66367457036729      109.53221415666890
H           93.66290065452068      120.31770622360763      110.09922837879013
H           94.45958847958508      118.14902782672840      111.03720550651482
H           96.09610383225929      118.52305616001625      110.50492268852564
H           95.26337667771197      118.64913628008334      108.14153905552851
H           93.66968548798579      118.14155655176994      108.69862222255965
H           94.71151721308740      116.04893539218610      109.63117856556264
H           96.25667247544234      116.54441209153028      108.94589593644542
H           93.70641928425894      115.99711735578805      107.35956487177494
H           95.05832812715099      114.88287965166174      107.54473257805982
H           96.55222504050565      116.60655461158946      106.44732285120003
H           95.11409480347682      117.57098622702760      106.10752971854949
H           94.13989699783363      115.66101314379533      104.83508267234517
H           95.57916128159390      114.70762721401412      105.18269575828644
H           96.96047716572482      116.45695054215237      103.98394133521467
H           95.46461813240521      117.25947129462364      103.51559182617061
H           94.73108535692835      115.26848064406229      102.27874689536169
H           96.09637818964748      114.34463669884391      102.90462776083960
H           97.67642672982379      115.80403749052086      101.69392432310524
H           96.33535479802019      116.78966593314495      101.10599174438869
H           96.95199995344687      115.33387968630424       99.31299773334804
H           95.41585522559001      114.74498837113723       99.94237453932365
H           96.66037465955773      113.00771167870094      101.26250228168173
H           98.17085180019492      113.58784474522464      100.55935630062659
H           97.34637283429419      112.98831056316995       98.29347427265745
H           95.79975137301541      112.49672518515639       98.97926125698287
H           97.00463206374370      110.77688496525653      100.36631675874104
H           98.50436668971625      111.20249008267311       99.53640328367844
H           97.49206630958608      110.53322251626717       97.36615827569223
H           95.97856155125623      110.15360452418591       98.18379404296317
H           97.11739301719629      108.42051103413456       99.53204562348596
H           98.65409961787348      108.80088899332713       98.75173262537862
H           97.70614657386955      108.11857572276328       96.55440953698245
H           96.16010558195792      107.77522821270009       97.32460788373957
H           97.26218842023717      106.06068207121751       98.76276211728506
H           98.79873467655328      106.37667183520314       97.95558215215745
H           97.82011847509844      105.65659569927479       95.79296554081648
H           96.26356122494202      105.38921685675115       96.57290792000934
H           97.52997159073800      103.25226917014490       96.31071635203647
H           98.84204862746432      103.91342377996301       97.28795359537754
H           97.25986157038824      103.63013621908902       98.01259844356893
H          121.45547408310911      109.05767933161869      110.54078474339903
H          120.47624614052353      110.28988458380353      111.33516460030893
H          120.27890443109462      109.98373967994189      109.60734417175136
C           99.70268723319903      101.46570793570483      113.89908368424150
C           99.61866162552289      102.66560652524194      114.83043485972634
C          100.76926958694395      103.63242089839035      114.57908892816853
C          100.73072972573051      104.84957132533124      115.49509392544884
C          101.90017454297762      105.78460026267655      115.21005438857436
C          101.88157585019096      107.03449555892647      116.08082835571089
C          103.06933969426323      107.93937513360432      115.77533294265402
C          103.05295837726578      109.22017761311520      116.59999497365288
C          104.27079989284940      110.08848842236043      116.30934011394442
C          104.25354541494592      111.39267894544750      117.09680460632875
C          105.51060425618178      112.21499183413577      116.84360592452227
C          105.50393871514549      113.53846019765621      117.59863108774294
C          106.79217321780142      114.31617174757477      117.36154594456309
C          106.80717412725346      115.66595979896123      118.06859641506036
C          108.11089821327356      116.40773581007734      117.80021103695749
C          108.14838105884365      117.80037498998325      118.41851103889312
C          109.47353969276567      118.49011703750200      118.11529186884243
C          109.52672787691833      119.93837713786189      118.58826908880371
C          110.87051251685050      120.57040779342779      118.23813584502487
C          110.88942552194386      122.08426562721539      118.41754748486044
C          112.24783014930834      122.66758084020434      118.03418770931373