3258
 energy: -3427.556185148760 gnorm: 0.000872320750 xtb: 6.6.1 (8d0f1dd)
C          125.40239511788137      124.25657618385742      101.14503547010129
C          124.90889313878685      122.98618491661048      101.82603062412784
C          125.87430735910294      122.49914100189807      102.90414249972363
C          125.38821662062547      121.21530395845805      103.57168140680822
C          126.30585583569579      120.76766211275515      104.70632088521835
C          125.80792227246150      119.49094539394284      105.37979798251563
C          126.61829492001476      119.14414075023784      106.62571563108230
C          126.05188069254393      117.93841816744737      107.37184585884350
C          126.80271453529058      117.67600106879496      108.67481889767237
C          126.21690217994332      116.51091951792654      109.46860909659885
C          126.92680377311009      116.32832359828949      110.80809788528266
C          126.35091537497868      115.17630511517648      111.62767560553750
C          127.03169583069807      115.05221264657311      112.98904358472900
C          126.47590231433693      113.89677911881829      113.81777537225879
C          127.15889130936682      113.78866670436039      115.17936378551926
C          126.64023439629742      112.60992146856437      115.99956707570053
C          127.37909162663601      112.46581677687686      117.32812478470227
C          126.89274380300205      111.26513943750921      118.13673173729752
C          127.70829534014904      111.06105772913783      119.41218319892019
C          127.27673114945233      109.81407411475864      120.18222383144881
C          128.21866145831922      109.50487462366655      121.34461591394249
C          127.77825098273726      108.31208213111641      122.19671117631661
C          127.67940488976556      107.00905656011442      121.40576350104455
C          127.47139263652898      105.78747763498666      122.30094412027520
C          127.00884919664024      104.57649347554755      121.49292754139096
C          126.75290568916782      103.34924855641232      122.36437916760546
C          126.28515670374915      102.13493860403568      121.55860298203676
C          124.82323743798815      102.22106796786436      121.12506687335727
C          124.43138305397595      101.07105841538512      120.19897960283041
C          122.95304276550554      101.11870682381750      119.81606596962732
C          122.60881751989223      100.15065526126763      118.68653683648516
C          121.12948299613856      100.21650228433917      118.31363616775012
C          120.77971047335727       99.35115147681384      117.10159324222087
C          121.11806036157846      100.00614889084933      115.75948020932050
C          120.05647008576733      100.99786403356735      115.28645409037156
C          120.42514269895558      101.63455167338908      113.94774167900133
C          119.33342186989977      102.56229901660433      113.41841825635990
C          119.73191489829199      103.23105731194983      112.10368650348191
C          118.63377714247969      104.13967210481688      111.55532845646964
C          119.05827989898860      104.86547978620113      110.27957711515073
C          117.94384435854514      105.75165524181816      109.72787219554860
C          118.34941711100670      106.50038325539528      108.45903530464294
C          117.20996284822533      107.37239428507968      107.93731663342291
C          117.54376715569077      108.10230923346077      106.63717149856225
C          116.36236729911872      108.94749141342970      106.16783396363670
C          116.60939551213180      109.68511950134902      104.85370892161554
C          115.37161003606776      110.47352897618470      104.43254690511792
C          115.55290115827580      111.25506435634856      103.13363308779925
C          114.27393929976446      112.00752432406375      102.77147524197461
C          114.37797785863773      112.82640303458327      101.48504682463377
C          115.15622797542228      114.12494240218349      101.67818977152130
C          115.17351121585179      115.01476136672017      100.43632153768471
C          115.87327883055329      114.41353834482591       99.21699862629104
C          117.30398634140458      113.93884922936560       99.46728484106893
C          118.22132525901196      115.04379940565724       99.98318398324848
C          119.69405831116009      114.63847587543192      100.00593290165462
C          119.99245049338749      113.44844400911327      100.91487167375696
C          121.49471650025156      113.19554489938378      101.00151709512163
C          121.86607081262407      111.94315110279614      101.79275244770250
C          121.62866201062482      112.06437173025424      103.29567617897918
C          122.15769880220705      110.83703697935994      104.03181937899426
C          121.91388503039046      110.88806084494435      105.53736610588543
C          122.49601770857825      109.65790275684628      106.22725579834110
C          122.20314960332404      109.60857146326313      107.72388163525629
C          122.84009285886553      108.37924177314160      108.36568882785718
C          122.48066960591692      108.21393567543325      109.83890461871795
C          123.17436803477823      106.99728266265254      110.44540623220104
C          122.74874167137335      106.72943791637570      111.88518531843343
C          123.51209469665511      105.55607766760498      112.49349677699784
C          123.03699981945071      105.22947617340407      113.90591355038333
C          123.92678364456576      104.19721457384644      114.59274761554164
C          123.44942098252822      103.89451857090029      116.01283831244749
C          124.51077142830451      103.25533058513440      116.90923962191874
C          125.77460602385831      104.09440482836798      117.11082928528616
C          125.51024031224325      105.49682150024316      117.64870896396008
C          126.77383918094736      106.35199832760523      117.73828709459663
C          127.40332101228975      106.72742111439904      116.39413879740547
C          126.47253076112040      107.52396530030543      115.48120725280793
C          127.20882814513870      108.10049140341916      114.27365702896485
C          126.26537755782890      108.83743334064467      113.32602426410229
C          127.00456536424284      109.50622066661643      112.16935279497655
C          126.04299431447522      110.18986264269944      111.20104874567606
C          126.76460233169065      110.92406751823980      110.07335628177221
C          125.77817483924814      111.53409307038987      109.08143316935441
C          126.46282058813320      112.31510877072395      107.96222228241689
C          125.44781066353346      112.82996434790034      106.94526134062902
C          126.07990853912881      113.65507511419602      105.82663889397473
C          125.04105069940388      114.05153553288112      104.78071897737294
C          125.61214814465706      114.90499410946158      103.65026106792635
C          124.55850446843962      115.17029318082579      102.57721913700368
C          125.07897904323677      115.99756185199145      101.40424227326575
C          124.01156410647366      116.17616246824113      100.32480266428794
C          124.53888789209759      116.91271591744290       99.09563557263628
C          123.56135915628818      116.90435021571678       97.91818542912065
C          122.34870834181181      117.81183386301298       98.11507120902309
C          121.42745168180042      117.83629181607998       96.89174278300707
C          120.53072029059909      116.60263336646820       96.78938902886928
C          119.79905104930344      116.53870354996023       95.44931617931738
C          118.67184081294059      115.50348649016681       95.40891191439547
C          119.07701397423719      114.08008405249426       95.78970985626181
C          120.11874086762789      113.46353356103862       94.86084156623163
C          120.43924819077017      112.00929023946604       95.21182721719838
C          121.17889848234236      111.86014643602253       96.53968944350706
C          121.58337322537410      110.41572916237159       96.82777462840882
C          122.34101885823708      110.30311533169328       98.14739252249562
C          122.66919827803532      108.86170855237887       98.52703714499948
C          123.44861518842589      108.79475065187526       99.83822486717644
C          123.69116684170150      107.36657223111860      100.31446759010061
C          124.41091276615973      107.32348371889577      101.66066290846862
C          124.63117751473406      105.89011658587933      102.13313658443164
C          125.28979016268397      105.80224674548128      103.50728580397477
C          125.54491113179716      104.35108395559102      103.90731950842007
C          126.12238629243129      104.21160215019556      105.31355652191743
C          126.41344989483147      102.75299015676497      105.66050275012775
C          126.89446660863507      102.57307188885757      107.09834723823950
C          127.18815275067467      101.10996404360024      107.42539207341653
C          127.57704854532220      100.90839657248098      108.88826517232691
C          127.87764419171005       99.44650347055483      109.21215821401749
C          128.20136104039321       99.23819103213397      110.68984386131062
C          128.51663668520999       97.78151898125280      111.00711259534918
H          129.05759565924828       99.86032510266426      110.96344276387575
H          127.34940840611115       99.56097104340299      111.29264831232830
H          127.01559856838983       98.83091408275415      108.94479295720988
H          128.72205916954695       99.10790131046754      108.60608395824973
H          128.45959825702991      101.51314103722652      109.11458245184683
H          126.76264330600155      101.25820612966460      109.52714979010366
H          126.30446332981477      100.50665780753617      107.20389559122319
H          127.99601613603825      100.75045260600859      106.78250509054521
H          127.80010637774087      103.16516994179571      107.25416740155327
H          126.13124129086412      102.95023504400210      107.78264675499626
H          125.50543259016342      102.16311496859655      105.51195643103084
H          127.16913984229143      102.36166080117810      104.97398407050471
H          127.04397364040645      104.79381792351219      105.38891392051468
H          125.41315236083219      104.62036198554411      106.03626668931248
H          124.60307304284395      103.79856596956573      103.85368003512953
H          126.23066955888547      103.89516231955862      103.18786733361486
H          126.23545422037593      106.34953108471797      103.49797912853244
H          124.64089875497054      106.27310957889495      104.24921227996343
H          123.66569087985707      105.38051356492245      102.17133202451663
H          125.25283373939291      105.36590614190406      101.40284835427369
H          125.37531181841342      107.83072933749699      101.57515616014281
H          123.81584748681753      107.86336142506678      102.40181466779644
H          122.73282158613627      106.85079962561856      100.40775756862489
H          124.28566049029421      106.83096124606971       99.56927738097988
H          124.41097579601019      109.29649779389888       99.70877719510028
H          122.89575224386274      109.33722013255284      100.60825632088911
H          121.73978542512580      108.29681153289745       98.62980997977392
H          123.25244093442370      108.39390884061477       97.72932888044663
H          123.26737277955958      110.87874880506953       98.07809216108379
H          121.74179923705803      110.75069944390934       98.94290834028708
H          120.68871308576895      109.79018805055840       96.86716136314473
H          122.21295190771633      110.03975719536719       96.01827827332119
H          122.07305318128087      112.48933306378470       96.52467051224781
H          120.54465307061082      112.21283928605222       97.35528075827618
H          119.51285556190095      111.42997341156045       95.24463189979285
H          121.05949198770321      111.59122442993048       94.41409168559393
H          119.74374291738067      113.50488992885921       93.83436522209445
H          121.04206299206885      114.04529914552357       94.89837046696617
H          119.45338265716593      114.08284463808994       96.81188481497973
H          118.18001904348395      113.45477638972633       95.77044694213807
H          117.88421417283682      115.82355718256906       96.09541235405997
H          118.24461494932230      115.49658184085854       94.40209500464995
H          119.36197963931556      117.51929909830062       95.23865747880275
H          120.52009024018669      116.33186844372773       94.65524552663116
H          121.13761601579276      115.70521161268793       96.91225462127399
H          119.80059453540014      116.62612328684592       97.60141511138566
H          120.79400138750621      118.72655870035607       96.93639645050877
H          122.03708907845598      117.91872583521666       95.98770093997706
H          121.77765309077266      117.48547319479475       98.98569467195539
H          122.70498202680089      118.82597832438461       98.31018823285574
H          124.09489786841606      117.23131991833993       97.02103083059009
H          123.22854822972717      115.87894673846044       97.74561992798162
H          124.78376042625318      117.94503331938294       99.35931615458277
H          125.46612422167377      116.42973500197476       98.77519347601294
H          123.65582335985856      115.19084971671398      100.01503714255672
H          123.16392683123979      116.71882378098016      100.74651296673417
H          125.40916170842472      116.97753376731802      101.76016267396436
H          125.94942133732646      115.49781262492324      100.97087707170431
H          124.20216845862419      114.21003546726514      102.19743522994263
H          123.70769279175295      115.68370614927233      103.02980949779669
H          125.97747679830400      115.85382407458746      104.05346101347072
H          126.46566764530257      114.39067685615365      103.20082509285120
H          124.60857181948815      113.14243919909082      104.35557906270526
H          124.23280706891971      114.59958707916749      105.26843618135145
H          126.54016534323915      114.55297794217890      106.24893683216541
H          126.87419580832245      113.07571504613433      105.34860935058605
H          124.92380157433101      111.97659374502497      106.50763620945987
H          124.70281109718947      113.43934728040234      107.46035268197188
H          127.01558209134565      113.15682555510853      108.38944160558992
H          127.18877684566742      111.67177582141530      107.45789832077169
H          125.17503594114029      110.73487413490167      108.64363822767487
H          125.09754796388252      112.19940403503476      109.61661958232871
H          127.39362201476284      111.71271247914959      110.49654987356584
H          127.42510666185686      110.22874846114163      109.54806743742644
H          125.37448232382631      109.43988705911464      110.77142052174001
H          125.42422568094797      110.90123672983924      111.75245276209131
H          127.70662149389365      110.24485065181324      112.56729109958269
H          127.59236100024232      108.75807853152108      111.62994087883175
H          125.53320716403955      108.13216506790336      112.92570630849076
H          125.71579853391749      109.59777078357803      113.88586375601787
H          127.98670024240249      108.78843450506875      114.61802711294268
H          127.70870664610185      107.29232361562775      113.73158995664809
H          125.66370976165730      106.88392732480494      115.12578022135489
H          126.02328666257189      108.34217858444180      116.04950648602859
H          128.29440550705758      107.32938055170322      116.59794732851853
H          127.74124282315441      105.82880370391071      115.87303509190704
H          126.52144626935922      107.27768699227337      118.26234164535472
H          127.52095953741248      105.82787200111224      118.34057591630112
H          124.79114522207132      106.01159196929177      117.01411718837736
H          125.07248946856441      105.41821024636360      118.64746882831879
H          126.43019088958908      103.56526765584714      117.80862107431676
H          126.30657296556356      104.16753429801258      116.16365601843700
H          124.05866466928030      103.06174343966556      117.88396554456807
H          124.80717448792832      102.29151040634565      116.48532808997362
H          123.10498989517073      104.81943656890667      116.47835191422614
H          122.58574582833067      103.22592339804530      115.96828885357024
H          123.94949668306651      103.27652508417053      114.00373420238860
H          124.94494312011524      104.58712417818536      114.61777834632015
H          123.03632393370741      106.14788657309902      114.50034018314503
H          122.00775585719141      104.86499823888681      113.87274968482453
H          123.39373564776143      104.67609323547860      111.85648411900631
H          124.57872776652997      105.79629719206079      112.51832964342118
H          122.92073580723901      107.62533860426403      112.48850595368751
H          121.67696919099431      106.51918464839228      111.91436979899417
H          122.94777699783984      106.11761962281491      109.83830242293642
H          124.25711381839760      107.14535105940519      110.41058128467945
H          122.76840653449506      109.11294839597323      110.39091782084650
H          121.39845925215596      108.10202326069235      109.93808930613372
H          122.51645337580102      107.48823512344795      107.82233032561990
H          123.92686497042297      108.44382291299073      108.26464768700986
H          122.58470200187210      110.51390815857914      108.20378965102313
H          121.12246528464999      109.58401431798418      107.88210257500529
H          122.08445919794507      108.76080981042188      105.75804837075653
H          123.57819474134045      109.63862993518190      106.07138149403578
H          122.36713138552859      111.79219447623413      105.95246070415733
H          120.83979128207355      110.94119265336236      105.73064659140840
H          121.67650020177415      109.94362198588991      103.62568479221267
H          123.23124145610772      110.74228682291726      103.84497987741041
H          122.12753122089009      112.96048751334587      103.67334414424296
H          120.56081062592310      112.17130562762452      103.49474693470194
H          121.29361807694072      111.09361536112878      101.41121470027305
H          122.92498480728632      111.72749502090812      101.62370528769775
H          121.88912995113996      113.09358520948695       99.98556330014910
H          121.97604350413977      114.06436595860163      101.45545187977864
H          119.59452852279557      113.64588385251201      101.91192635970638
H          119.50173381965104      112.55427653399485      100.52582839436774
H          120.02188301998468      114.39907610976084       98.99109620029901
H          120.28741373750610      115.49402846657514      100.34249197066765
H          118.10960801203116      115.92492235214092       99.34474202525523
H          117.92016473973889      115.33128845595739      100.99146963926792
H          117.29155626827536      113.11181631326214      100.17776737234665
H          117.70535629101602      113.55631071439869       98.52536936941101
H          115.28413393515599      113.57160232272862       98.84665117659591
H          115.88412552952420      115.16686264099306       98.42640536506289
H          114.14178611985149      115.25068850020567      100.15670673112716
H          115.66112984030504      115.95851891651488      100.69212547669970
H          114.69088320218712      114.69284162002661      102.48951576990133
H          116.17822098317885      113.90281415174215      101.98518878895482
H          114.84944530296558      112.21553797839577      100.71309383180882
H          113.37027406685125      113.07251192924811      101.13850254765647
H          113.46541819941329      111.27980502017886      102.66143187992647
H          114.00317217732406      112.66807796357739      103.59709788796680
H          116.37946671518105      111.95884209537066      103.24699713050704
H          115.81300780636312      110.56796544197027      102.32363235906885
H          114.53204224688344      109.78251751626725      104.31949104508267
H          115.10781007001027      111.17322417895055      105.23008242757548
H          117.45455524076553      110.36773618378854      104.96753240494132
H          116.87040606664110      108.96826693029959      104.07110925238891
H          115.48956201277043      108.30000152148237      106.05139878490870
H          116.12551537463941      109.67986453545173      106.94376332511624
H          118.41710336536056      108.74286235496614      106.78553005401551
H          117.80224591529260      107.37427584823060      105.86467441135419
H          116.33242017761401      106.74269282896958      107.77066525839712
H          116.94861403937310      108.10820525416683      108.70241140090182
H          119.22422176818093      107.12435502322349      108.66347215532362
H          118.63647487769643      105.77920365755797      107.69024510463473
H          117.07325647074838      105.12958276762683      109.50752526359312
H          117.64863547280505      106.47448212075564      110.49339552716995
H          119.94074506297335      105.47788925970242      110.48616181480709
H          119.34159638007974      104.12824807547510      109.52446079059257
H          117.74582595731907      103.53943069306804      111.34597626091775
H          118.36194359952069      104.87662543698376      112.31606642559396
H          120.64086769021179      103.81844916884219      112.25918548802976
H          119.96423406821945      102.46032359200495      111.36436574309634
H          118.41760401787509      101.98685303278835      113.26597594674722
H          119.11827265974912      103.33081262177842      114.16596056420161
H          121.35422435117199      102.19913133457293      114.06082436503320
H          120.61146203981876      100.84588977667930      113.21407196179850
H          119.10197400209756      100.47613159260533      115.18360308414009
H          119.92154571690010      101.78431441433345      116.03316200365171
H          122.08133646694142      100.51412023566272      115.83444374416916
H          121.22131398971021       99.22692691062502      115.00180945036585
H          121.31891633894209       98.40413430943855      117.18812191821050
H          119.71039309029165       99.12487527977730      117.11976433618575
H          120.54161849747895       99.88537938016378      119.17410134094020
H          120.85735739767607      101.25372173234136      118.10787178632734
H          123.21748407127031      100.39495990893981      117.81333648940453
H          122.86029420248984       99.13018814682871      118.98831075651968
H          122.34364259535563      100.89007049656246      120.69428106566203
H          122.69575665048481      102.13293538241808      119.50013235685988
H          125.04202742817665      101.12363687475992      119.29352750779763
H          124.64955286082103      100.11690933644547      120.68626684038884
H          124.18508763409066      102.20854288461597      122.01269249549169
H          124.64914483061295      103.16511996621125      120.60468162824885
H          126.91888277393824      102.02716940720720      120.67433172952408
H          126.41462994419123      101.23686274154464      122.16573017535050
H          127.67736657111037      103.09382931540050      122.88958654046654
H          126.00185949560144      103.59076568757932      123.12053296355491
H          126.09351524218599      104.84147582991949      120.96116451203619
H          127.76725913214520      104.33384364697018      120.74384649948973
H          128.39968116079385      105.55039836183769      122.82680389959363
H          126.72067437284021      106.01947480704145      123.06077351328530
H          126.83853136534772      107.07599333515850      120.71489299400409
H          128.58607994383624      106.87263322151949      120.81147963318089
H          128.49816210558311      108.18302064916192      123.00943244704324
H          126.80703625651265      108.52903745470292      122.64838700742139
H          129.21825046365879      109.30868166361019      120.94742866702993
H          128.29016051724255      110.38600120471352      121.98806288547080
H          126.25974302375411      109.94748626169415      120.55783205302082
H          127.27036325331254      108.96888487507199      119.49265029962879
H          128.76454345363962      110.96511232147832      119.14568024537316
H          127.61284347095976      111.94119226870700      120.05331613200805
H          125.83929333088007      111.39887435323452      118.39173490807120
H          126.97166428656416      110.36683798147182      117.51900847948504
H          128.44904646232445      112.35432631961862      117.13156947674149
H          127.25096853738091      113.37812657958925      117.91671435491246
H          125.57310534974756      112.74135367526799      116.18955961486424
H          126.76396197530582      111.69042969378262      115.42161637508474
H          128.23661196118240      113.67642824443030      115.03181002827813
H          127.00042666461169      114.71460496455096      115.73817456805401
H          125.40276699635237      114.03897675688822      113.96087851039502
H          126.61634546280905      112.96186478767660      113.26943020569027
H          128.10574010206628      114.90756845540409      112.84338732732279
H          126.90107898396957      115.98608365694766      113.54220385499096
H          125.28063360143925      115.33689918215873      111.77265866554454
H          126.47304538891815      114.24215449275211      111.07436859108452
H          127.99130653557965      116.15058172691606      110.63230882972684
H          126.84295816079214      117.25360877966364      111.38468187752439
H          125.15480998800270      116.69354668036161      109.64519263441461
H          126.30012431588443      115.59263542702395      108.88287823497096
H          127.85423022368641      117.47318867235307      108.45428767809652
H          126.76864923505877      118.57853242805231      109.29136465988509
H          124.99823079361390      118.11860374206194      107.59535864560364
H          126.10573761394389      117.05421210942983      106.73259372348652
H          127.65678343642175      118.94804732054628      106.34641493906661
H          126.61952933072173      120.00681335209060      107.29775560349812
H          124.76364523274523      119.62418184429832      105.66580228929845
H          125.85070244142736      118.66211625866212      104.66963418453044
H          127.31619893307324      120.60898727901927      104.32064351637462
H          126.36261676530030      121.56571734093527      105.45155273468720
H          124.38632342074460      121.38067219071711      103.97302899313613
H          125.31709918996098      120.42206560439226      102.82424939993548
H          126.85756701014536      122.32805957189333      102.45861212411516
H          125.98956550374483      123.27887769986991      103.66194460835861
H          123.93272342139774      123.17634690763623      102.27913633460571
H          124.77837480553475      122.20154278876544      101.07767318663386
H          125.51799515273414      125.05938677084941      101.87041948022494
H          126.36606557233614      124.08537412224211      100.66993656613867
H          124.69749554081957      124.58093766720388      100.38277153974913
H          127.67178103871052       97.14447239434524      110.75475078395701
H          129.37997838021377       97.44395711723502      110.43733480240360
H          128.73551906993333       97.65857788782586      112.06548742636652
C          126.78013844998728       92.37914526159841      122.54907788708420
C          127.28342122558790       92.96302651502563      121.23417770133510
C          126.24777686760888       93.88273101937277      120.59341366976004
C          126.74658579364251       94.51474997160119      119.29660789587601
C          125.72026432940757       95.47449936464251      118.70003797527787
C          126.17142542927705       96.05219044319465      117.36157095042500
C          125.14680407629614       97.02215882222160      116.77961633219931
C          125.58726982372913       97.58117342948759      115.42949193472296
C          124.56395141018234       98.55450155941382      114.85378870632137
C          125.01566699718246       99.15829868422398      113.52680581535903
C          123.92851347600498      100.02968548380855      112.90442257073030
C          124.38465091766767      100.72702568523108      111.62571376671846
C          123.24463786619563      101.50717333730297      110.97720245102172
C          123.68041881101868      102.27815111198656      109.73401546251398
C          122.50022972761278      102.98978638720303      109.07829914842804
C          122.88887453647779      103.76021004595269      107.81931811251175
C          121.67826406375781      104.44468309710803      107.18955547519337
C          122.00139953405736      105.11956743124344      105.85938077168532
C          120.78108358492059      105.83257354551635      105.28188614190877
C          121.03150375916483      106.40165864903541      103.88776842224598
C          119.83701661362984      107.20896006941281      103.38601492935678