3795
 energy: -5103.093187311175 gnorm: 0.000971961396 xtb: 6.6.1 (8d0f1dd)
C          106.83808264693629       96.25024529886426      116.10988246340335
C          107.52658226412038       96.92475655011928      114.94139610015496
C          105.30861601322236       96.31380142203940      116.08213956482990
C          104.74607792138319       97.70501404262237      116.38172919509884
H          104.94569584815018       95.95903984474531      115.11710476673535
H          104.93674503983088       95.62665488056278      116.84538975667418
C          104.86888075420947       98.71031453165085      115.22838791840532
H          103.68689948585130       97.60426407166683      116.63093757292897
H          105.25487830425321       98.11190798777740      117.25830385511750
C          103.95085751284105       98.31265654794151      114.09181498600547
H          104.55234447614573       99.69145288823009      115.58531920948738
H          105.89976721935736       98.78996763334278      114.89016112315717
N          104.47519344451318       97.49587686643899      113.17200906307284
O          108.53280435434755       97.66525094285397      115.32260229455122
O          107.20117932275373       96.76669805361861      113.77946669847415
H          109.01835467988772       98.11101987403377      114.56016449781237
H          107.22070537883140       96.69084955007230      117.03082995849017
H          107.14739419300025       95.20168648834999      116.07856803811445
C          103.66932665941310       96.95007297300018      112.09744155349360
H          105.43600774085635       97.18115608230617      113.25317768538920
C          104.39089341878037       95.81705387932782      111.38122412749927
H          102.72570077290491       96.59517318197419      112.52721917625161
H          103.42283652945740       97.74574258407314      111.38377140328789
C          105.55500377242717       96.31811562637216      110.52838199486887
H          104.75868109417875       95.09956017510679      112.11797404602156
H          103.67151146836376       95.29968496492715      110.74340172133512
C          106.24441507602570       95.16818813656080      109.79667771103362
H          105.18073821169452       97.03872978765148      109.79774021640058
H          106.27320662931476       96.82840032921699      111.16953251061483
C          107.27760190323156       95.63624976304033      108.77013013654575
H          106.72137072326375       94.50878767726203      110.52484361136392
H          105.48932411622481       94.57626536034405      109.27333392786997
C          108.37802727565926       96.52229850425871      109.35869298943420
H          107.73858963945760       94.75909761723507      108.31176945047248
H          106.77547224653949       96.20249645260570      107.98351090631138
N          109.08328199035630       95.88037646459379      110.44268129477932
H          109.12513490373789       96.73575057981697      108.59097891983075
H          107.95730981318127       97.46891345927165      109.70546403418419
C          110.37844227832558       95.52345881724442      110.35270208299465
H          108.56867254894908       95.70885064177459      111.29023127427786
O          102.78606359312451       98.69089512846104      114.03201351024991
C          110.97080399437019       94.83788802912956      111.57473016342874
C          110.29649951255642       95.12610218977001      112.91836732889900
H          110.95604623881894       93.76279077239732      111.37448470274791
H          112.02308766884352       95.12808279125649      111.60976322923959
C          111.26617069954122       94.92194816827943      114.08530970487612
H          109.94098811512949       96.15701132056805      112.95518864400569
H          109.43419662257909       94.46744245338488      113.04892445340185
C          112.21044771991501       96.11826183677252      114.24309179859361
H          110.70581180695953       94.80308128489204      115.01481916118848
H          111.84523269089925       94.00909185161332      113.92764200605504
C          113.20359105503948       95.83999425852934      115.34950403045185
H          112.74811907385418       96.31832367153349      113.31844320024364
H          111.61564417146347       96.99646770954786      114.50466950137674
N          114.47370964001047       95.70039449672520      114.95530592602742
C          115.53958863651997       95.39734723495556      115.88378305471707
H          114.71905872852278       95.91249976471383      113.99459422145705
O          111.04872378940857       95.73334279070281      109.35655648285550
C          116.76903051103477       96.27559028076175      115.66449006295078
H          115.13473242499920       95.54662298944366      116.88970452093565
H          115.82080295391204       94.34141386558220      115.78681030892932
C          117.75872519643795       96.12376806743102      116.81769040059019
H          117.24955132775696       95.99337490185329      114.72578114839972
H          116.45955051730084       97.31836961901045      115.58119718784174
C          119.07240650193714       96.86281209936271      116.57298075727002
H          117.30041394351443       96.50735232010697      117.73249402339559
H          117.96807489635405       95.06292727626773      116.97410006241591
C          119.96821133236924       96.81243457656399      117.80893824930995
H          119.59452874979419       96.41872376895606      115.72331236098096
H          118.86360291390844       97.90482401004449      116.32662488859479
C          121.31676856551972       97.49432341334536      117.59397060422654
N          121.15688917001123       98.88296618353274      117.23463155929468
H          121.91090392956562       97.41127138426306      118.51472872803083
H          121.87631273290337       97.01782916216787      116.78376482510932
C          121.88095115965874       99.46108215537205      116.25622217422853
H          120.40043250669171       99.38688167798962      117.68278535922698
O          112.86198991530468       95.73099451066876      116.52652095406881
C          121.50654636096448      100.90858490754766      115.99663857295404
C          121.94611222137283      101.81468096865819      117.14812065519426
H          121.97088465299282      101.23845602017175      115.06683834302939
H          120.42343199680445      100.97849909347212      115.88725927554322
C          123.45788489306973      101.80855342883319      117.36241221048382
H          121.63897738368671      102.83326824787355      116.91883211556755
H          121.43408400926280      101.51134115842009      118.06301846690580
C          123.88840378663205      102.90218986645928      118.34697627452594
H          123.78273294103774      100.82255190188648      117.70134434189114
H          123.95207545049735      101.98886021192767      116.40641376282115
C          123.09276257739573      102.90076872274950      119.64087556821131
H          124.94654572140931      102.78768308386802      118.59566063796301
H          123.76143467155958      103.88472893175316      117.88870068140811
N          122.96790477051137      101.70139350595348      120.21941866723196
C          122.17987325973212      101.44557516402891      121.40656619583760
H          123.41703639997824      100.90527163828929      119.79668454047331
H          119.45656440385824       97.30734141917380      118.63616568639712
H          120.14499918085846       95.77316740887733      118.09291546684700
O          122.76685212328906       98.87822911707435      115.65614264023060
O          122.61303218667132      103.91892648491306      120.12260814712737
C          121.58892425961619      100.03852127989738      121.35545312052069
H          122.80531445395872      101.57091956020702      122.29612420448690
H          121.38526403934648      102.19612001397189      121.44153948887013
C          120.94002076501062       99.63857825248431      122.68164186438459
H          120.85178108541348       99.99336184694427      120.55006863765519
H          122.38415196317933       99.32534290607533      121.12057749471047
C          121.98534685208740       99.40135276039291      123.77138459033088
H          120.25150082390758      100.42713192298416      122.98356359311333
H          120.35996732021897       98.72408938979305      122.53662943837226
C          121.39785050239701       99.13779827477821      125.15880305970349
H          122.59842630461219       98.54100983256349      123.49215461664565
H          122.64733124272290      100.26171647239009      123.83952646111699
C          120.41084079257467      100.20376152445228      125.63734256777539
H          120.87872499428792       98.17704217655165      125.17300165330121
H          122.22638903748222       99.07607983792204      125.86693983246158
N          120.82263731407873      101.55361813095638      125.30952298895964
H          119.42848274090420      100.05327719317839      125.17916732029839
H          120.28641125216402      100.10925849126220      126.72381956373658
C          119.93321976338514      102.48101793692638      124.93160903512259
H          121.81311655798956      101.74373884046091      125.20804724614504
C          120.53794716435219      103.81987069224009      124.56745309659861
C          119.52102842254899      104.78760204377498      123.96412702477379
H          120.95485109366869      104.25224886686762      125.48222832843982
H          121.36458070143973      103.64193278790077      123.88093230096173
C          120.11592525699400      106.17848985979074      123.73744039907236
H          119.14205254615167      104.38642166975188      123.02200228743573
H          118.67391538438318      104.86624598622798      124.64973513325342
C          120.99039888015625      106.26907247357572      122.48427819233380
H          119.30751984081834      106.90577224158127      123.63165356035756
H          120.69399202895001      106.45425250578018      124.62123105504595
C          120.19239891501662      106.64876507810237      121.25177321808913
H          121.73590211370040      107.06110938172476      122.60408898642045
H          121.51774216363441      105.33744482159601      122.29582303726616
N          120.66504986648117      106.13113603035632      120.11222548159795
C          120.12283323156025      106.42283013859857      118.80371206824789
H          121.45718786608209      105.49930272501442      120.13858425420806
O          118.72583404917519      102.25815576536891      124.91732715854484
C          120.11734045654391      105.16734582490253      117.93639498104571
H          119.11568579038513      106.82243804216172      118.93678940522385
H          120.73034067281827      107.19926735234993      118.32548489175475
C          119.39075732498665      105.35870035199041      116.60573971637928
H          121.15334495829870      104.87934427278411      117.74770518585741
H          119.64835025196521      104.35222364892026      118.49017224717571
C          119.53879707872358      104.11412514742081      115.73016696740243
H          118.33583593833816      105.56183803197150      116.79742018762710
H          119.80107300426909      106.22511075027016      116.08339464646447
C          118.76720513979799      104.16458017116405      114.41368868304833
H          120.59187523121561      103.97479226412831      115.48427335710178
H          119.21504666873260      103.23891012835793      116.29692526230667
C          117.27851899454198      103.91042150430799      114.60026437380095
H          118.91497122407895      105.13404405228364      113.93365108408297
H          119.17671890857297      103.40270150541467      113.74966804497100
N          116.59028215697940      103.92243968140598      113.32623671551377
H          117.11317443620931      102.93337596430420      115.06681674785457
H          116.83587791473344      104.67075121645918      115.25583694600509
O          119.21758030042108      107.39145561826041      121.30037284126391
C          115.39059789622260      103.36555390056073      113.16707825573405
H          117.06599619084020      104.36253703274079      112.54424747324215
C          114.79624767865960      103.50668347650286      111.77953840964925
C          115.62542532928218      102.79415703589095      110.71266813477216
H          113.78522695127620      103.09761634347547      111.80332018487411
H          114.74077303911736      104.57218617990166      111.54644923198570
C          115.06121612741492      103.02914178068136      109.31545793128352
H          116.64346820617043      103.17970972284563      110.73893111870085
H          115.65988436494783      101.72370446593139      110.92331081930386
C          115.94465937868286      102.39622313026919      108.23106334840955
H          114.05051625149827      102.62364222846527      109.23939438760524
H          114.99701789978806      104.10533810962107      109.14232944582821
C          115.61672147975747      100.92325682023539      108.06740299205967
H          115.77662464266204      102.90385007482101      107.28177747890531
H          116.99540905201412      102.49662385495276      108.50822913826445
N          114.70340576326552      100.69235995200305      107.11506550225157
O          114.79870556768000      102.79016169781410      114.07682814609177
C          114.23358806420195       99.37233776862276      106.75199605238259
H          114.25387751130414      101.48685445174068      106.66051339049446
C          113.55915432822049       99.40007173618382      105.38568695198778
H          115.08938449737003       98.69037089245467      106.75458940659772
H          113.51763286315736       99.00695557397692      107.49919424072110
C          114.52692291096729       99.62249485512275      104.22596075757455
H          113.03114163295403       98.45611251943809      105.23709933533286
H          112.82461201465013      100.20952119409513      105.38065577935282
C          113.75879941110315       99.83717288396531      102.92306937107637
H          115.14243263803634      100.49885833014869      104.43418662820594
H          115.19302924437326       98.76281438368714      104.12935803422735
C          114.67450150518785      100.13893419475018      101.73959034153664
H          113.17020256702223       98.94423180359529      102.69889372733238
H          113.06157730077112      100.66673166977635      103.05966470782249
C          113.87918580304923      100.51501556830695      100.48372195481956
H          115.34319591494513      100.96513623485171      101.99136547135684
H          115.29278329113440       99.26734610100567      101.51730123091275
N          113.13488239765785      101.74090846607827      100.66180567398392
H          114.56676366641751      100.67055401983046       99.64799478430581
H          113.18153719614067       99.71290633686459      100.22982246354076
C          113.58539776781690      102.92979930698003      100.24405531311737
H          112.29175544443252      101.70814393481253      101.22665601399387
O          116.12788936594742      100.04466459300484      108.74961797520214
C          112.73011708626481      104.09897124253006      100.68885877990476
C          112.97774413530855      105.36875771072980       99.88014208433195
H          111.67968110539465      103.80821618703516      100.65863169846676
H          112.97935667912532      104.29124103529982      101.73438237159280
C          112.16389384949187      105.40808977403060       98.59076818379418
H          112.72168894463844      106.23181615137759      100.49301168617239
H          114.04026073491360      105.43387943348860       99.64134520443709
C          112.25717686273637      106.77632483385391       97.90101288124312
H          112.50788819643378      104.62269996661112       97.91333435201273
H          111.11316180041835      105.21403704381964       98.82052870182581
C          113.65789552142374      107.03645852539378       97.39433418064716
H          111.54591970604439      106.82551801680296       97.07483802627166
H          112.00717078190139      107.55246446415215       98.62513130259808
N          113.85199596734975      106.71358368675411       96.10434736954156
C          115.11512803145078      106.85746431673775       95.41800983010657
H          113.08916908912506      106.32419696947204       95.57314219723273
O          114.61275111187499      103.05983374412311       99.58592717511638
C          115.50343843007471      105.58952690789866       94.65968885349687
H          115.05427474423743      107.69622596742313       94.71262786800844
H          115.85871798903645      107.09800940890675       96.17787135506251
C          115.64203083050853      104.35463395406016       95.55080413020950
H          114.75076376563651      105.39128120446463       93.89184822037372
H          116.45084090815806      105.77782039368536       94.15130235268349
C          116.72998474839405      104.49003979020405       96.61431584386780
H          114.69079423137812      104.14570524469288       96.04397252047609
H          115.87418752251845      103.50021072847328       94.91080774972835
C          117.02988519925619      103.14356086159292       97.26970858434983
H          117.64187706061787      104.88540792523148       96.16008421573652
H          116.40269194767073      105.18854143735216       97.38434457751507
C          117.98181769735318      103.27606082849898       98.45264205593519
H          116.09771204873611      102.70660651445542       97.63191507587305
H          117.46437546996930      102.46355123849594       96.53482171710542
N          117.32595231586323      103.97524325037186       99.53428465042694
H          118.29415033678006      102.27867773884488       98.78926501375926
H          118.88143913273080      103.83726150583024       98.18265646049038
C          117.98250216158294      104.64173941437056      100.48421364837054
H          116.32563099713437      103.80943830215898       99.61422564148400
O          114.54367458950037      107.50127707852843       98.09669553847567
C          117.08993056158181      105.24037363659700      101.55406285908590
C          116.50822426449787      104.14165254543586      102.44539296422090
H          117.66188324961996      105.94478357801815      102.15857855441456
H          116.27213227339031      105.77493120412443      101.06922956227550
C          115.47608586453214      104.68643045955527      103.43423312266650
H          116.02780566636268      103.39242072334807      101.81213739492107
H          117.31679315567868      103.64783128609119      102.99031658192094
C          114.80170484418460      103.51538452906746      104.14427782358942
H          115.96677901516107      105.34579593067146      104.15259554489980
H          114.74534841576573      105.27762945760146      102.88124296479199
C          113.64040289543438      103.80404290644422      105.07219253966542
H          114.39857316395842      102.83019838694587      103.39000771556351
H          115.54609159680604      102.95471217411108      104.71693717078682
N          112.89151544158855      104.87739037942023      104.82653626992881
O          119.20519955763363      104.76853124674909      100.48479855104948
C          111.69067091970238      105.11083287374655      105.60214865110896
H          113.07068696032745      105.50873472548172      104.05459091865089
C          111.16050047695848      106.52390515857155      105.43859516329431
H          110.92487754404289      104.38705026269945      105.29289540993422
H          111.92786452617675      104.91522067903219      106.64954699859111
C          112.08788963511589      107.59210154064967      106.01597391205662
H          111.00579762473799      106.71231632808360      104.37728611973090
H          110.19321359591915      106.57981502034418      105.94098448253807
C          111.34936995224618      108.91074977915575      106.23587514373085
H          112.48915046509812      107.25133208252515      106.97177489571568
H          112.92916984905327      107.74869925761165      105.33924879056634
C          112.27997883831678      110.01045485224674      106.73035754191721
H          110.88052319376780      109.23728348548921      105.30668437152951
H          110.55138411972582      108.76275150347728      106.96707889318418
C          111.52607177353613      111.31689922735671      106.98662104436363
H          112.73791835159267      109.69952788229192      107.67039569885182
H          113.07825119685327      110.17219268806296      106.00442174670235
N          112.24308905791651      112.13475600074962      107.93713685812959
H          111.39968522303312      111.89034373907364      106.06612655554909
H          110.53624670044734      111.08475298219396      107.39457545324841
C          112.69886048945072      113.37191834781035      107.71982310740279
H          112.55550638583003      111.64554554136927      108.76933991969746
O          113.37465099194523      103.02853488891533      105.99515113507307
C          113.47175768793124      113.94278640957455      108.89232912209667
C          114.64395772761283      114.80295231786687      108.43023900872937
H          112.79226479517851      114.55691893655445      109.48943658612357
H          113.82518124723026      113.12557723822384      109.52091957251366
C          115.38768044813092      115.40848443077539      109.61497656810941
H          115.33466387756071      114.19722689516193      107.83946880624555
H          114.25983060126606      115.59642669730756      107.78735627333624
C          116.54552152992103      116.29021442670044      109.13858590231042
H          114.68973539798299      115.99110747787950      110.21927890173589
H          115.78052621690028      114.61614315828810      110.25416843050361
C          117.20926661064935      116.97318256717902      110.31266839044697
H          117.27313414953112      115.67049081022601      108.61604526635641
H          116.17012220564669      117.03505076817530      108.43986547710136
N          117.10143961145715      118.31231709990847      110.31008259900659
C          117.52939919830186      119.15596923535368      111.40129227874017
H          116.76033325665529      118.79129799134881      109.49189156553825
O          112.49644218179209      113.99449527352883      106.68009464260437
C          116.59411528903344      120.34905705312072      111.55173524587366
H          117.50514449750642      118.54239642225095      112.30584168853501
H          118.55472324142465      119.50576871825666      111.22009514093986
C          116.88879155395919      121.16205424824449      112.80837722923569
H          116.69270538314207      120.98952761349497      110.67273135457496
H          115.56803246906490      119.98573068041505      111.60749841313374
C          115.82996276133619      122.24236321711598      113.01611445147590
H          116.89371134825016      120.50929245125448      113.68304777562770
H          117.87574929772013      121.62445757480886      112.72287885768890
C          116.17132852990483      123.11805283646663      114.21619378644226
H          115.75486484650381      122.85899363663869      112.11754702103458
H          114.86151764503910      121.76523482276095      113.16883145714320
C          115.07647415787999      124.13455882950848      114.52526613483845
H          116.33570000654940      122.48237566455660      115.08621847826873
H          117.10098847396414      123.65797583745207      114.01707802816631
N          115.58527362058454      125.18584382842432      115.37962536487900
H          114.71641184685490      124.60757659103557      113.60615234626793
H          114.22809490628808      123.63446710445081      115.00663884939755
C          115.31277743672081      126.47492801382275      115.17927430892232
H          116.26887260129742      124.90933390383658      116.07996407166122
O          117.76255670336566      116.36563713398895      111.21786811915842
C          116.04818787520111      127.43862892530920      116.09242204914912
C          115.70488794974169      127.24920779652705      117.57163970040550
H          117.11955259983334      127.28106881600813      115.95251229528512
H          115.80429163603428      128.45514386150640      115.77765199890268
C          114.24069464197244      127.55938934238600      117.87394290990770
H          115.92688352701057      126.22271573504399      117.86724687414706
H          116.34191879355171      127.91002175614288      118.16355167376386
C          113.90192884799086      127.33670173955171      119.35315307398237
H          114.01767915137530      128.59537245605216      117.60936770251168
H          113.60289294695959      126.91612631170101      117.26578052773483
C          114.75203429983169      128.23574021323952      120.22783618329395
H          112.84672025854132      127.55627912211898      119.51586137358743
H          114.10280650477308      126.29855892354171      119.61977964360064
N          114.35090131053344      129.50775064107157      120.27049298216359
O          114.53587710636245      126.86264747888337      114.30746970873022
C          115.14373032592012      130.55479500631591      120.88461230583793
H          113.48369665803249      129.76296848288030      119.81311117609928
C          114.38496768872518      131.87025279768588      120.99345815253983
H          115.44503585146218      130.23130041118537      121.88638834553714
H          116.05740974265109      130.69987366076072      120.29228872604556
C          113.95977560937676      132.43349125338671      119.63873184691936
H          113.51267967636797      131.72609482614359      121.63049010719944
H          115.03775835303136      132.58841953347627      121.49417504319888
C          113.30724537144684      133.80636877491611      119.78088574661471
H          114.83653792694641      132.51735120600131      118.99201175191044
H          113.25134657828593      131.75547948078190      119.16021113066429
C          112.92886155752252      134.40063627216651      118.42592331315196
H          112.41292561825516      133.70710291193072      120.40208182465358
H          113.99322057766392      134.48661150392846      120.29233580741084
C          112.32312007588732      135.80938351547559      118.53999900618346
H          113.82009846057117      134.45920764945274      117.79779955611274
H          112.21479424808622      133.74046162367407      117.92656334993556
N          111.06411503110870      135.90192502963936      119.25350181107481
H          113.03462726219550      136.46908592819028      119.04427784655833
H          112.15260822354252      136.20476844424076      117.53423537756723
H          111.17993071601086      135.61567523078730      120.21898575319136
H          110.37230916106061      135.29513800309232      118.82696164527678
O          115.74548324559710      127.82691136079772      120.82557531522696
C          122.17249197288950      107.58650572849385      114.73136943180054
C          123.21077462000673      108.66143905280154      114.52289959635115
C          122.56839384905820      106.23042004685452      114.14451851877605
C          122.78428561639508      106.27430375655355      112.62670150085835
H          123.47101863920781      105.87554101540829      114.64057083626170
H          121.76787990315452      105.52495389394831      114.36741601186148
C          122.21573710464908      105.02487652291806      111.94523090883531
H          122.28284528794374      107.15268598151165      112.21257376656250
H          123.84817808812753      106.35894043091292      112.39892938224766
C          122.78223675056159      103.76186137564473      112.57616953821933
H          121.13162408613610      105.00494632448695      112.06810424233670
H          122.45106727230389      105.03672783876452      110.88074273166309
N          124.03795383464464      103.48047339091316      112.21413378698063
O          124.39748617793353      108.34554330558514      114.96130022213397
O          122.94092478478220      109.73718202797568      114.01438018280258
H          125.06301132061020      109.10842788820587      114.89422556930838
H          121.23087933186054      107.93133478700739      114.30092597154253
H          122.04971254691267      107.47749387715905      115.81108448667334
C          124.78153925046706      102.37904076724472      112.78294517258799
H          124.54720393199248      104.11062621000742      111.60061910924678
C          126.26642065626207      102.71334382193673      112.91636068777186
H          124.33364937107658      102.13887555256746      113.75063464918910
H          124.67251356198135      101.48994205332836      112.14780792342493
C          126.55864320011658      104.03047882823013      113.63805894913916
H          126.75437912123310      101.88698725610929      113.43685902563723
H          126.69490589643503      102.78104241598160      111.91400620946200
C          126.06083781482629      104.06468252785743      115.08089792621912
H          127.63874791044742      104.18627431884279      113.61978785844073
H          126.10314088473388      104.84721195712788      113.07832226735117
C          126.27730047705356      105.42377162068695      115.74597727164007
H          124.99145450683127      103.84946279610281      115.09137654940508
H          126.56288379904805      103.28698586951184      115.66166558223871
C          127.74827033358625      105.76002770359510      115.99440768724675
H          125.84429534004785      106.21102064842815      115.12595793398158
H          125.76408240548027      105.44183918995748      116.71027474539287
N          127.85284368054319      107.06322223554591      116.60550489716368
H          128.19972240256482      105.00616404055118      116.65000486380937
H          128.30812025937820      105.79352498326884      115.05765983429323