      -----------------------------------------------------------      
     |                   =====================                   |     
     |                           x T B                           |     
     |                   =====================                   |     
     |                         S. Grimme                         |     
     |          Mulliken Center for Theoretical Chemistry        |     
     |                    University of Bonn                     |     
      -----------------------------------------------------------      

   * xtb version 6.6.1 (8d0f1dd) compiled by 'stahn@M-Bot' on 2023-08-01

   xtb is free software: you can redistribute it and/or modify it under
   the terms of the GNU Lesser General Public License as published by
   the Free Software Foundation, either version 3 of the License, or
   (at your option) any later version.
   
   xtb is distributed in the hope that it will be useful,
   but WITHOUT ANY WARRANTY; without even the implied warranty of
   MERCHANTABILITY or FITNESS FOR A PARTICULAR PURPOSE.  See the
   GNU Lesser General Public License for more details.
   
   Cite this work as:
   * C. Bannwarth, E. Caldeweyher, S. Ehlert, A. Hansen, P. Pracht,
     J. Seibert, S. Spicher, S. Grimme, WIREs Comput. Mol. Sci., 2020, 11,
     e01493. DOI: 10.1002/wcms.1493
   
   for GFN2-xTB:
   * C. Bannwarth, S. Ehlert and S. Grimme., J. Chem. Theory Comput., 2019,
     15, 1652-1671. DOI: 10.1021/acs.jctc.8b01176
   for GFN1-xTB:
   * S. Grimme, C. Bannwarth, P. Shushkov, J. Chem. Theory Comput., 2017,
     13, 1989-2009. DOI: 10.1021/acs.jctc.7b00118
   for GFN0-xTB:
   * P. Pracht, E. Caldeweyher, S. Ehlert, S. Grimme, ChemRxiv, 2019, preprint.
     DOI: 10.26434/chemrxiv.8326202.v1
   for GFN-FF:
   * S. Spicher and S. Grimme, Angew. Chem. Int. Ed., 2020, 59, 15665-15673.
     DOI: 10.1002/anie.202004239
   
   for ALPB and GBSA implicit solvation:
   * S. Ehlert, M. Stahn, S. Spicher, S. Grimme, J. Chem. Theory Comput.,
     2021, 17, 4250-4261. DOI: 10.1021/acs.jctc.1c00471
   
   for DFT-D4:
   * E. Caldeweyher, C. Bannwarth and S. Grimme, J. Chem. Phys., 2017,
     147, 034112. DOI: 10.1063/1.4993215
   * E. Caldeweyher, S. Ehlert, A. Hansen, H. Neugebauer, S. Spicher,
     C. Bannwarth and S. Grimme, J. Chem. Phys., 2019, 150, 154122.
     DOI: 10.1063/1.5090222
   * E. Caldeweyher, J.-M. Mewes, S. Ehlert and S. Grimme, Phys. Chem. Chem. Phys.
     2020, 22, 8499-8512. DOI: 10.1039/D0CP00502A
   
   for sTDA-xTB:
   * S. Grimme and C. Bannwarth, J. Chem. Phys., 2016, 145, 054103.
     DOI: 10.1063/1.4959605
   
   in the mass-spec context:
   * V. Asgeirsson, C. Bauer and S. Grimme, Chem. Sci., 2017, 8, 4879.
     DOI: 10.1039/c7sc00601b
   * J. Koopman and S. Grimme, ACS Omega 2019, 4, 12, 15120-15133.
     DOI: 10.1021/acsomega.9b02011
   
   for metadynamics refer to:
   * S. Grimme, J. Chem. Theory Comput., 2019, 155, 2847-2862
     DOI: 10.1021/acs.jctc.9b00143
   
   for SPH calculations refer to:
   * S. Spicher and S. Grimme, J. Chem. Theory Comput., 2021, 17, 1701-1714
     DOI: 10.1021/acs.jctc.0c01306
   
   with help from (in alphabetical order)
   P. Atkinson, C. Bannwarth, F. Bohle, G. Brandenburg, E. Caldeweyher
   M. Checinski, S. Dohm, S. Ehlert, S. Ehrlich, I. Gerasimov, C. Hölzer
   A. Katbashev, J. Koopman, C. Lavigne, S. Lehtola, F. März, M. Müller,
   F. Musil, H. Neugebauer, J. Pisarek, C. Plett, P. Pracht, F. Pultar,
   J. Seibert, P. Shushkov, S. Spicher, M. Stahn, M. Steiner, T. Strunk,
   J. Stückrath, T. Rose, and J. Unsleber
   
 * started run on 2024/06/17 at 15:17:36.647     

           -------------------------------------------------
          |                Calculation Setup                |
           -------------------------------------------------

          program call               : /home/abt-grimme/AK-bin/xtb input.xyz --input input.inp --opt --gbsa water
          hostname                   : boar071.thch.uni-bonn.de
          coordinate file            : input.xyz
          omp threads                :                     8

   ID    Z sym.   atoms
    1    6 C      1-120, 363-482, 725-844, 1087-1206, 1449-1568, 1811-1930,
                  2173-2292, 2535-2654, 2897-3016
    2    1 H      121-362, 483-724, 845-1086, 1207-1448, 1569-1810,
                  1931-2172, 2293-2534, 2655-2896, 3017-3258

molecular fragmentation (1/2 indicates fragments):
111111111111111111111111111111111111111111111111111111111111111111111111
111111111111111111111111111111111111111111111111111111111111111111111111
111111111111111111111111111111111111111111111111111111111111111111111111
111111111111111111111111111111111111111111111111111111111111111111111111
111111111111111111111111111111111111111111111111111111111111111111111111
112222222222222222222222222222222222222222222222222222222222222222222222
222222222222222222222222222222222222222222222222222222222222222222222222
222222222222222222222222222222222222222222222222222222222222222222222222
222222222222222222222222222222222222222222222222222222222222222222222222
222222222222222222222222222222222222222222222222222222222222222222222222
222222222222222222222222222222222222222222222222222222222222222222222222
222222222222222222222222222222222222222222222222222222222222222222222222
222222222222222222222222222222222222222222222222222222222222222222222222
222222222222222222222222222222222222222222222222222222222222222222222222
222222222222222222222222222222222222222222222222222222222222222222222222
222222222222222222222222222222222222222222222222222222222222222222222222
222222222222222222222222222222222222222222222222222222222222222222222222
222222222222222222222222222222222222222222222222222222222222222222222222
222222222222222222222222222222222222222222222222222222222222222222222222
222222222222222222222222222222222222222222222222222222222222222222222222
222222222222222222222222222222222222222222222222222222222222222222222222
222222222222222222222222222222222222222222222222222222222222222222222222
222222222222222222222222222222222222222222222222222222222222222222222222
222222222222222222222222222222222222222222222222222222222222222222222222
222222222222222222222222222222222222222222222222222222222222222222222222
222222222222222222222222222222222222222222222222222222222222222222222222
222222222222222222222222222222222222222222222222222222222222222222222222
222222222222222222222222222222222222222222222222222222222222222222222222
222222222222222222222222222222222222222222222222222222222222222222222222
222222222222222222222222222222222222222222222222222222222222222222222222
222222222222222222222222222222222222222222222222222222222222222222222222
222222222222222222222222222222222222222222222222222222222222222222222222
222222222222222222222222222222222222222222222222222222222222222222222222
222222222222222222222222222222222222222222222222222222222222222222222222
222222222222222222222222222222222222222222222222222222222222222222222222
222222222222222222222222222222222222222222222222222222222222222222222222
222222222222222222222222222222222222222222222222222222222222222222222222
222222222222222222222222222222222222222222222222222222222222222222222222
222222222222222222222222222222222222222222222222222222222222222222222222
222222222222222222222222222222222222222222222222222222222222222222222222
222222222222222222222222222222222222222222222222222222222222222222222222
222222222222222222222222222222222222222222222222222222222222222222222222
222222222222222222222222222222222222222222222222222222222222222222222222
222222222222222222222222222222222222222222222222222222222222222222222222
222222222222222222222222222222222222222222222222222222222222222222222222
222222222222222222
# atoms in fragment 1/2:   362  2896
 fragment masses (1/2) :     1685.21    13481.68
CMA distance (Bohr)    :  12.650
constraining FC (au)   :  0.0500

           -------------------------------------------------
          |                 G F N 2 - x T B                 |
           -------------------------------------------------

        Reference                      10.1021/acs.jctc.8b01176
      * Hamiltonian:
        H0-scaling (s, p, d)           1.850000    2.230000    2.230000
        zeta-weighting                 0.500000
      * Dispersion:
        s8                             2.700000
        a1                             0.520000
        a2                             5.000000
        s9                             5.000000
      * Repulsion:
        kExp                           1.500000    1.000000
        rExp                           1.000000
      * Coulomb:
        alpha                          2.000000
        third order                    shell-resolved
        anisotropic                    true
        a3                             3.000000
        a5                             4.000000
        cn-shift                       1.200000
        cn-exp                         4.000000
        max-rad                        5.000000

      * Solvation model:               GBSA
        Solvent                        water
        Parameter file                 internal GFN2-xTB/GBSA
        Dielectric constant                8.0200E+01
        Reference state                gsolv [1 M gas/solution]
        Free energy shift                  1.8574E-03 Eh       1.1656E+00 kcal/mol
        Temperature                        2.9815E+02 K
        Density                            1.0000E+00 kg/L
        Solvent mass                       1.8000E+01 g/mol
        Interaction kernel             Still
        Born radius scaling (c1)           1.5524E+00
        Born radii integrator          GBOBC
        Born offset                        2.4628E-02 a0       4.6540E-02 AA
        H-bond correction              true
        Ion screening                  false
        Surface tension                    1.0000E-05 Eh       1.5569E+01 dyn/cm
        Grid points                               230 per atom
q/qsh data taken from xtbrestart
CAMM data taken from xtbrestart

          ...................................................
          :                      SETUP                      :
          :.................................................:
          :  # basis functions                6498          :
          :  # atomic orbitals                6498          :
          :  # shells                         4338          :
          :  # electrons                      6498          :
          :  max. iterations                   250          :
          :  Hamiltonian                  GFN2-xTB          :
          :  restarted?                       true          :
          :  GBSA solvation                   true          :
          :  PC potential                    false          :
          :  electronic temp.          300.0000000     K    :
          :  accuracy                    1.0000000          :
          :  -> integral cutoff          0.2500000E+02      :
          :  -> integral neglect         0.1000000E-07      :
          :  -> SCF convergence          0.1000000E-05 Eh   :
          :  -> wf. convergence          0.1000000E-03 e    :
          :  Broyden damping             0.4000000          :
          ...................................................

 iter      E             dE          RMSdq      gap      omega  full diag
   1  -3472.2429071 -0.347224E+04  0.709E-05   10.60       0.0  T
   2  -3472.2429071 -0.393220E-08  0.564E-05   10.60      31.1  T
   3  -3472.2429071 -0.616728E-08  0.294E-05   10.60      59.5  T

   *** convergence criteria satisfied after 3 iterations ***

         #    Occupation            Energy/Eh            Energy/eV
      -------------------------------------------------------------
         1        2.0000           -0.6160430             -16.7634
       ...           ...                  ...                  ...
      3243        2.0000           -0.3838837             -10.4460
      3244        2.0000           -0.3836112             -10.4386
      3245        2.0000           -0.3828421             -10.4177
      3246        2.0000           -0.3822953             -10.4028
      3247        2.0000           -0.3821456             -10.3987
      3248        2.0000           -0.3813667             -10.3775
      3249        2.0000           -0.3797848             -10.3345 (HOMO)
      3250                          0.0096395               0.2623 (LUMO)
      3251                          0.0125545               0.3416
      3252                          0.0144815               0.3941
      3253                          0.0167036               0.4545
      3254                          0.0177898               0.4841
       ...                                ...                  ...
      6498                          0.3883011              10.5662
      -------------------------------------------------------------
                  HL-Gap            0.3894244 Eh           10.5968 eV
             Fermi-level           -0.1850726 Eh           -5.0361 eV

 SCC (total)                   0 d,  0 h,  7 min, 35.486 sec
 SCC setup                      ...        0 min,  1.737 sec (  0.381%)
 Dispersion                     ...        0 min,  3.587 sec (  0.787%)
 classical contributions        ...        0 min,  0.144 sec (  0.032%)
 integral evaluation            ...        0 min,  6.608 sec (  1.451%)
 iterations                     ...        3 min,  3.574 sec ( 40.303%)
 molecular gradient             ...        4 min, 11.062 sec ( 55.120%)
 printout                       ...        0 min,  8.776 sec (  1.927%)

         :::::::::::::::::::::::::::::::::::::::::::::::::::::
         ::                     SUMMARY                     ::
         :::::::::::::::::::::::::::::::::::::::::::::::::::::
         :: total energy           -3426.801264617700 Eh    ::
         :: total w/o Gsasa/hb     -3426.707467753737 Eh    ::
         :: gradient norm              0.639569210846 Eh/a0 ::
         :: HOMO-LUMO gap             10.596776104931 eV    ::
         ::.................................................::
         :: SCC energy             -3472.242907077185 Eh    ::
         :: -> isotropic ES            0.279749306160 Eh    ::
         :: -> anisotropic ES          1.291227523485 Eh    ::
         :: -> anisotropic XC          2.131253044954 Eh    ::
         :: -> dispersion             -4.274884185511 Eh    ::
         :: -> Gsolv                  -0.031125290031 Eh    ::
         ::    -> Gelec                0.062671573932 Eh    ::
         ::    -> Gsasa               -0.091524715039 Eh    ::
         ::    -> Ghb                 -0.004129592051 Eh    ::
         ::    -> Gshift               0.001857443127 Eh    ::
         :: repulsion energy          44.734088231152 Eh    ::
         :: add. restraining           0.000000000000 Eh    ::
         :: total charge              -0.000000000011 e     ::
         :::::::::::::::::::::::::::::::::::::::::::::::::::::

      ----------------------------------------------------------- 
     |              Fast Inertial Relaxation Engine              |
      ----------------------------------------------------------- 

          ...................................................
          :                      SETUP                      :
          :.................................................:
          :   energy convergence        0.5000000E-05 Eh    :
          :   grad. convergence         0.1000000E-02 Eh/a0 :
          :   optimization log               true           :
          :   writing optlog all                1     steps :
          :   Hessian reset                    20     steps :
          :   time step scaling                 5     steps :
          :   maximium step len.        1.0000000     a0    :
          :   initial time step         0.2500000     fs    :
          :   maximum time step         1.2500000     fs    :
          :   power reset thr           0.0000000     au    :
          :   alpha parameter           0.1000000           :
          :   BFGS update                   false           :
          :   preconditioning               false           :
          ...................................................

........................................................................
.............................. CYCLE    1 ..............................
........................................................................

 iter      E             dE          RMSdq      gap      omega  full diag
   1  -3472.4790341 -0.347248E+04  0.753E-03   10.63       0.0  T
   2  -3472.4790790 -0.448920E-04  0.396E-03   10.63       1.0  T
   3  -3472.4790795 -0.436167E-06  0.184E-03   10.63       1.0  T
   4  -3472.4790796 -0.155764E-06  0.226E-04   10.63       7.7  T
   5  -3472.4790797 -0.377513E-07  0.144E-04   10.63      12.2  T
     SCC iter.                  ...        4 min, 50.161 sec
     gradient                   ...        4 min, 12.446 sec
 * total energy  : -3426.8475662 Eh     change    :  -0.4630158E-01 Eh
   gradient norm :     0.6053158 Eh/a0  converged?    E=F G=F D=F
   time step     :     0.2500000 fs     power     :   0.2389323E-05
   step length   :     0.0749561 a0     speed     :   0.7252410E-02

........................................................................
.............................. CYCLE    2 ..............................
........................................................................

 iter      E             dE          RMSdq      gap      omega  full diag
   1  -3472.8272763 -0.347283E+04  0.110E-02   10.68       0.0  T
   2  -3472.8273729 -0.966436E-04  0.579E-03   10.68       1.0  T
   3  -3472.8273739 -0.100018E-05  0.269E-03   10.68       1.0  T
   4  -3472.8273743 -0.379283E-06  0.349E-04   10.68       5.0  T
   5  -3472.8273744 -0.896634E-07  0.229E-04   10.68       7.6  T
     SCC iter.                  ...        4 min, 52.183 sec
     gradient                   ...        4 min, 11.140 sec
 * total energy  : -3426.9113407 Eh     change    :  -0.6377452E-01 Eh
   gradient norm :     0.5561982 Eh/a0  converged?    E=F G=F D=F
   time step     :     0.2500000 fs     power     :   0.3237082E-05
   step length   :     0.1102204 a0     speed     :   0.1066441E-01

........................................................................
.............................. CYCLE    3 ..............................
........................................................................

 iter      E             dE          RMSdq      gap      omega  full diag
   1  -3473.2783855 -0.347328E+04  0.141E-02   10.74       0.0  T
   2  -3473.2785432 -0.157674E-03  0.742E-03   10.74       1.0  T
   3  -3473.2785449 -0.171869E-05  0.343E-03   10.74       1.0  T
   4  -3473.2785456 -0.648553E-06  0.458E-04   10.74       3.8  T
   5  -3473.2785457 -0.150803E-06  0.302E-04   10.74       5.8  T
     SCC iter.                  ...        4 min, 49.239 sec
     gradient                   ...        4 min, 11.938 sec
 * total energy  : -3426.9859323 Eh     change    :  -0.7459156E-01 Eh
   gradient norm :     0.4947597 Eh/a0  converged?    E=F G=F D=F
   time step     :     0.2500000 fs     power     :   0.3713209E-05
   step length   :     0.1426562 a0     speed     :   0.1380275E-01

........................................................................
.............................. CYCLE    4 ..............................
........................................................................

 iter      E             dE          RMSdq      gap      omega  full diag
   1  -3473.8206535 -0.347382E+04  0.167E-02   10.78       0.0  T
   2  -3473.8208712 -0.217668E-03  0.878E-03   10.78       1.0  T
   3  -3473.8208737 -0.253846E-05  0.402E-03   10.78       1.0  T
   4  -3473.8208747 -0.929653E-06  0.554E-04   10.78       3.2  T
   5  -3473.8208749 -0.210418E-06  0.365E-04   10.78       4.8  T
     SCC iter.                  ...        4 min, 46.731 sec
     gradient                   ...        4 min, 10.046 sec
 * total energy  : -3427.0638478 Eh     change    :  -0.7791556E-01 Eh
   gradient norm :     0.4254780 Eh/a0  converged?    E=F G=F D=F
   time step     :     0.2500000 fs     power     :   0.3786844E-05
   step length   :     0.1713627 a0     speed     :   0.1658026E-01

........................................................................
.............................. CYCLE    5 ..............................
........................................................................

 iter      E             dE          RMSdq      gap      omega  full diag
   1  -3474.4400133 -0.347444E+04  0.187E-02   10.80       0.0  T
   2  -3474.4402788 -0.265521E-03  0.983E-03   10.80       1.0  T
   3  -3474.4402822 -0.340202E-05  0.443E-03   10.80       1.0  T
   4  -3474.4402834 -0.118446E-05  0.634E-04   10.80       2.8  T
   5  -3474.4402836 -0.257360E-06  0.415E-04   10.79       4.2  T
   6  -3474.4402838 -0.145951E-06  0.180E-04   10.79       9.7  T
     SCC iter.                  ...        5 min, 49.162 sec
     gradient                   ...        4 min, 11.092 sec
 * total energy  : -3427.1378234 Eh     change    :  -0.7397560E-01 Eh
   gradient norm :     0.3552003 Eh/a0  converged?    E=F G=F D=F
   time step     :     0.2500000 fs     power     :   0.3487726E-05
   step length   :     0.1955839 a0     speed     :   0.1892380E-01

........................................................................
.............................. CYCLE    6 ..............................
........................................................................

 iter      E             dE          RMSdq      gap      omega  full diag
   1  -3475.1942653 -0.347519E+04  0.222E-02   10.80       0.0  T
   2  -3475.1946210 -0.355738E-03  0.117E-02   10.80       1.0  T
   3  -3475.1946262 -0.514515E-05  0.512E-03   10.80       1.0  T
   4  -3475.1946278 -0.160584E-05  0.760E-04   10.79       2.3  T
   5  -3475.1946281 -0.329506E-06  0.485E-04   10.79       3.6  T
   6  -3475.1946283 -0.166324E-06  0.193E-04   10.79       9.1  T
     SCC iter.                  ...        5 min, 46.276 sec
     gradient                   ...        4 min, 11.826 sec
 * total energy  : -3427.2079748 Eh     change    :  -0.7015138E-01 Eh
   gradient norm :     0.2875796 Eh/a0  converged?    E=F G=F D=F
   time step     :     0.2750000 fs     power     :   0.2823404E-05
   step length   :     0.2382815 a0     speed     :   0.2095910E-01

........................................................................
.............................. CYCLE    7 ..............................
........................................................................

 iter      E             dE          RMSdq      gap      omega  full diag
   1  -3476.0777546 -0.347608E+04  0.254E-02   10.79       0.0  T
   2  -3476.0781726 -0.417977E-03  0.133E-02   10.79       1.0  T
   3  -3476.0781801 -0.752197E-05  0.556E-03   10.79       1.0  T
   4  -3476.0781822 -0.208191E-05  0.893E-04   10.79       2.0  T
   5  -3476.0781826 -0.377038E-06  0.559E-04   10.79       3.1  T
   6  -3476.0781828 -0.187660E-06  0.202E-04   10.79       8.7  T
     SCC iter.                  ...        5 min, 49.387 sec
     gradient                   ...        4 min, 11.430 sec
 * total energy  : -3427.2659441 Eh     change    :  -0.5796928E-01 Eh
   gradient norm :     0.2434550 Eh/a0  converged?    E=F G=F D=F
   time step     :     0.3025000 fs     power     :   0.1894725E-05
   step length   :     0.2806256 a0     speed     :   0.2243970E-01

........................................................................
.............................. CYCLE    8 ..............................
........................................................................

 iter      E             dE          RMSdq      gap      omega  full diag
   1  -3477.0532240 -0.347705E+04  0.277E-02   10.79       0.0  T
   2  -3477.0536239 -0.399919E-03  0.147E-02   10.79       1.0  T
   3  -3477.0536341 -0.102048E-04  0.548E-03   10.79       1.0  T
   4  -3477.0536365 -0.233469E-05  0.999E-04   10.78       1.8  T
   5  -3477.0536368 -0.344348E-06  0.606E-04   10.78       2.9  T
   6  -3477.0536370 -0.174209E-06  0.187E-04   10.78       9.4  T
     SCC iter.                  ...        5 min, 44.073 sec
     gradient                   ...        4 min, 11.435 sec
 * total energy  : -3427.3061925 Eh     change    :  -0.4024838E-01 Eh
   gradient norm :     0.2389073 Eh/a0  converged?    E=F G=F D=F
   time step     :     0.3327500 fs     power     :   0.9536485E-06
   step length   :     0.3164776 a0     speed     :   0.2300594E-01

........................................................................
.............................. CYCLE    9 ..............................
........................................................................

 iter      E             dE          RMSdq      gap      omega  full diag
   1  -3478.0427949 -0.347804E+04  0.294E-02   10.79       0.0  T
   2  -3478.0430792 -0.284245E-03  0.160E-02   10.78       1.0  T
   3  -3478.0430916 -0.124641E-04  0.461E-03   10.78       1.0  T
   4  -3478.0430937 -0.208492E-05  0.105E-03   10.78       1.7  T
   5  -3478.0430939 -0.220057E-06  0.600E-04   10.78       2.9  T
   6  -3478.0430941 -0.124617E-06  0.143E-04   10.78      12.3  T
     SCC iter.                  ...        5 min, 42.966 sec
     gradient                   ...        4 min, 11.069 sec
 * total energy  : -3427.3295206 Eh     change    :  -0.2332815E-01 Eh
   gradient norm :     0.2543799 Eh/a0  converged?    E=F G=F D=F
   time step     :     0.3660250 fs     power     :   0.2719533E-06
   step length   :     0.3399514 a0     speed     :   0.2246576E-01

........................................................................
.............................. CYCLE   10 ..............................
........................................................................

 iter      E             dE          RMSdq      gap      omega  full diag
   1  -3478.9513496 -0.347895E+04  0.315E-02   10.78       0.0  T
   2  -3478.9514839 -0.134340E-03  0.178E-02   10.78       1.0  T
   3  -3478.9514975 -0.135762E-04  0.297E-03   10.78       1.0  T
   4  -3478.9514990 -0.149310E-05  0.105E-03   10.78       1.7  T
   5  -3478.9514991 -0.741447E-07  0.525E-04   10.78       3.3  T
   6  -3478.9514991 -0.725190E-07  0.800E-05   10.77      21.9  T
     SCC iter.                  ...        5 min, 45.620 sec
     gradient                   ...        4 min, 11.413 sec
 * total energy  : -3427.3410080 Eh     change    :  -0.1148738E-01 Eh
   gradient norm :     0.2620704 Eh/a0  converged?    E=F G=F D=F
   time step     :     0.4026275 fs     power     :  -0.1124115E-06
   step length   :     0.3524173 a0     speed     :   0.2117234E-01

........................................................................
.............................. CYCLE   11 ..............................
........................................................................
 * reset velocities

 iter      E             dE          RMSdq      gap      omega  full diag
   1  -3478.9339704 -0.347893E+04  0.122E-03   10.77       0.0  T
   2  -3478.9339712 -0.822091E-06  0.702E-04   10.77       2.5  T
   3  -3478.9339712 -0.465843E-08  0.272E-04   10.77       6.4  T
     SCC iter.                  ...        2 min, 54.953 sec
     gradient                   ...        4 min, 12.038 sec
 * total energy  : -3427.3434397 Eh     change    :  -0.2431672E-02 Eh
   gradient norm :     0.2478756 Eh/a0  converged?    E=F G=F D=F
   time step     :     0.2013138 fs     power     :   0.1578849E-06
   step length   :     0.0099581 a0     speed     :   0.1196510E-02

........................................................................
.............................. CYCLE   12 ..............................
........................................................................

 iter      E             dE          RMSdq      gap      omega  full diag
   1  -3478.8993346 -0.347890E+04  0.235E-03   10.77       0.0  T
   2  -3478.8993378 -0.316932E-05  0.135E-03   10.77       1.3  T
   3  -3478.8993378 -0.193004E-07  0.534E-04   10.77       3.3  T
   4  -3478.8993378 -0.940690E-08  0.467E-05   10.77      37.5  T
     SCC iter.                  ...        3 min, 53.596 sec
     gradient                   ...        4 min, 11.267 sec
 * total energy  : -3427.3480401 Eh     change    :  -0.4600439E-02 Eh
   gradient norm :     0.2337290 Eh/a0  converged?    E=F G=F D=F
   time step     :     0.2013138 fs     power     :   0.2942029E-06
   step length   :     0.0192336 a0     speed     :   0.2311016E-02

........................................................................
.............................. CYCLE   13 ..............................
........................................................................

 iter      E             dE          RMSdq      gap      omega  full diag
   1  -3478.8485125 -0.347885E+04  0.341E-03   10.77       0.0  T
   2  -3478.8485194 -0.685257E-05  0.196E-03   10.77       1.0  T
   3  -3478.8485194 -0.477858E-07  0.786E-04   10.77       2.2  T
   4  -3478.8485195 -0.251976E-07  0.776E-05   10.77      22.6  T
     SCC iter.                  ...        3 min, 51.888 sec
     gradient                   ...        4 min, 11.974 sec
 * total energy  : -3427.3542918 Eh     change    :  -0.6251637E-02 Eh
   gradient norm :     0.2131113 Eh/a0  converged?    E=F G=F D=F
   time step     :     0.2013138 fs     power     :   0.3928621E-06
   step length   :     0.0280673 a0     speed     :   0.3372424E-02

........................................................................
.............................. CYCLE   14 ..............................
........................................................................

 iter      E             dE          RMSdq      gap      omega  full diag
   1  -3478.7828472 -0.347878E+04  0.438E-03   10.77       0.0  T
   2  -3478.7828586 -0.113920E-04  0.252E-03   10.77       1.0  T
   3  -3478.7828586 -0.834207E-07  0.101E-03   10.77       1.7  T
   4  -3478.7828587 -0.449791E-07  0.104E-04   10.77      16.9  T
   5  -3478.7828587 -0.123173E-07  0.718E-05   10.77      24.4  T
     SCC iter.                  ...        4 min, 47.490 sec
     gradient                   ...        4 min, 10.864 sec
 * total energy  : -3427.3615000 Eh     change    :  -0.7208262E-02 Eh
   gradient norm :     0.1867561 Eh/a0  converged?    E=F G=F D=F
   time step     :     0.2013138 fs     power     :   0.4433849E-06
   step length   :     0.0361379 a0     speed     :   0.4342148E-02

........................................................................
.............................. CYCLE   15 ..............................
........................................................................

 iter      E             dE          RMSdq      gap      omega  full diag
   1  -3478.7041211 -0.347870E+04  0.522E-03   10.77       0.0  T
   2  -3478.7041374 -0.162852E-04  0.300E-03   10.77       1.0  T
   3  -3478.7041375 -0.111701E-06  0.121E-03   10.77       1.4  T
   4  -3478.7041375 -0.585510E-07  0.118E-04   10.77      14.8  T
   5  -3478.7041375 -0.163841E-07  0.803E-05   10.77      21.8  T
     SCC iter.                  ...        4 min, 40.382 sec
     gradient                   ...        4 min, 11.582 sec
 * total energy  : -3427.3688735 Eh     change    :  -0.7373516E-02 Eh
   gradient norm :     0.1557088 Eh/a0  converged?    E=F G=F D=F
   time step     :     0.2013138 fs     power     :   0.4409546E-06
   step length   :     0.0432075 a0     speed     :   0.5191600E-02

........................................................................
.............................. CYCLE   16 ..............................
........................................................................

 iter      E             dE          RMSdq      gap      omega  full diag
   1  -3478.6145600 -0.347861E+04  0.590E-03   10.77       0.0  T
   2  -3478.6145809 -0.209556E-04  0.339E-03   10.77       1.0  T
   3  -3478.6145811 -0.142347E-06  0.138E-03   10.77       1.3  T
   4  -3478.6145811 -0.746118E-07  0.134E-04   10.77      13.1  T
   5  -3478.6145812 -0.209802E-07  0.903E-05   10.77      19.4  T
     SCC iter.                  ...        4 min, 45.927 sec
     gradient                   ...        4 min, 10.789 sec
 * total energy  : -3427.3756187 Eh     change    :  -0.6745179E-02 Eh
   gradient norm :     0.1213789 Eh/a0  converged?    E=F G=F D=F
   time step     :     0.2013138 fs     power     :   0.3870342E-06
   step length   :     0.0490783 a0     speed     :   0.5897002E-02

........................................................................
.............................. CYCLE   17 ..............................
........................................................................

 iter      E             dE          RMSdq      gap      omega  full diag
   1  -3478.5062153 -0.347851E+04  0.707E-03   10.77       0.0  T
   2  -3478.5062458 -0.304940E-04  0.407E-03   10.77       1.0  T
   3  -3478.5062460 -0.202941E-06  0.166E-03   10.77       1.1  T
   4  -3478.5062461 -0.105528E-06  0.159E-04   10.77      11.0  T
   5  -3478.5062461 -0.300192E-07  0.106E-04   10.77      16.5  T
     SCC iter.                  ...        4 min, 44.333 sec
     gradient                   ...        4 min, 11.929 sec
 * total energy  : -3427.3815088 Eh     change    :  -0.5890041E-02 Eh
   gradient norm :     0.0824801 Eh/a0  converged?    E=F G=F D=F
   time step     :     0.2214451 fs     power     :   0.2774150E-06
   step length   :     0.0594384 a0     speed     :   0.6492561E-02

........................................................................
.............................. CYCLE   18 ..............................
........................................................................

 iter      E             dE          RMSdq      gap      omega  full diag
   1  -3478.3807461 -0.347838E+04  0.811E-03   10.77       0.0  T
   2  -3478.3807868 -0.407264E-04  0.467E-03   10.77       1.0  T
   3  -3478.3807871 -0.268348E-06  0.192E-03   10.77       1.0  T
   4  -3478.3807872 -0.138015E-06  0.183E-04   10.77       9.6  T
   5  -3478.3807873 -0.398054E-07  0.120E-04   10.77      14.6  T
     SCC iter.                  ...        4 min, 46.525 sec
     gradient                   ...        4 min, 11.674 sec
 * total energy  : -3427.3853468 Eh     change    :  -0.3838029E-02 Eh
   gradient norm :     0.0485892 Eh/a0  converged?    E=F G=F D=F
   time step     :     0.2435896 fs     power     :   0.1181612E-06
   step length   :     0.0694504 a0     speed     :   0.6896540E-02

........................................................................
.............................. CYCLE   19 ..............................
........................................................................

 iter      E             dE          RMSdq      gap      omega  full diag
   1  -3478.2480553 -0.347825E+04  0.850E-03   10.77       0.0  T
   2  -3478.2481010 -0.456916E-04  0.492E-03   10.77       1.0  T
   3  -3478.2481013 -0.301930E-06  0.204E-03   10.77       1.0  T
   4  -3478.2481015 -0.150578E-06  0.192E-04   10.77       9.1  T
   5  -3478.2481015 -0.447371E-07  0.123E-04   10.77      14.3  T
     SCC iter.                  ...        4 min, 48.882 sec
     gradient                   ...        4 min, 11.382 sec
 * total energy  : -3427.3861657 Eh     change    :  -0.8189287E-03 Eh
   gradient norm :     0.0547497 Eh/a0  converged?    E=F G=F D=F
   time step     :     0.2679486 fs     power     :  -0.5169980E-07
   step length   :     0.0762698 a0     speed     :   0.6885193E-02

........................................................................
.............................. CYCLE   20 ..............................
........................................................................
 * reset velocities

 iter      E             dE          RMSdq      gap      omega  full diag
   1  -3478.2492929 -0.347825E+04  0.123E-04   10.77       0.0  T
   2  -3478.2492930 -0.638829E-08  0.804E-05   10.77      21.8  T
   3  -3478.2492930 -0.394448E-08  0.366E-05   10.77      47.9  T
     SCC iter.                  ...        2 min, 56.986 sec
     gradient                   ...        4 min, 11.141 sec
 * total energy  : -3427.3862160 Eh     change    :  -0.5028046E-04 Eh
   gradient norm :     0.0543701 Eh/a0  converged?    E=F G=F D=T
   time step     :     0.1339743 fs     power     :   0.4961555E-08
   step length   :     0.0009214 a0     speed     :   0.1663519E-03
 * RMSD in coord.:     0.0350130 a0     energy gain  -0.5849514E+00 Eh

........................................................................
.............................. CYCLE   21 ..............................
........................................................................

 iter      E             dE          RMSdq      gap      omega  full diag
   1  -3478.2555949 -0.347826E+04  0.552E-04   10.78       0.0  T
   2  -3478.2555949 -0.896753E-07  0.314E-04   10.78       5.6  T
   3  -3478.2555949 -0.792625E-09  0.870E-05   10.78      20.1  T
     SCC iter.                  ...        2 min, 58.388 sec
     gradient                   ...        4 min, 11.434 sec
 * total energy  : -3427.3864781 Eh     change    :  -0.2621052E-03 Eh
   gradient norm :     0.0525384 Eh/a0  converged?    E=F G=F D=F
   time step     :     0.2500000 fs     power     :   0.1367022E-07
   step length   :     0.0049053 a0     speed     :   0.4746151E-03

........................................................................
.............................. CYCLE   22 ..............................
........................................................................

 iter      E             dE          RMSdq      gap      omega  full diag
   1  -3478.2656707 -0.347827E+04  0.899E-04   10.78       0.0  T
   2  -3478.2656709 -0.229222E-06  0.513E-04   10.78       3.4  T
   3  -3478.2656709 -0.371028E-08  0.140E-04   10.78      12.6  T
     SCC iter.                  ...        2 min, 51.893 sec
     gradient                   ...        4 min, 11.325 sec
 * total energy  : -3427.3868858 Eh     change    :  -0.4076843E-03 Eh
   gradient norm :     0.0497548 Eh/a0  converged?    E=F G=F D=F
   time step     :     0.2500000 fs     power     :   0.2101594E-07
   step length   :     0.0079827 a0     speed     :   0.7723712E-03

........................................................................
.............................. CYCLE   23 ..............................
........................................................................

 iter      E             dE          RMSdq      gap      omega  full diag
   1  -3478.2790174 -0.347828E+04  0.121E-03   10.78       0.0  T
   2  -3478.2790178 -0.400338E-06  0.690E-04   10.78       2.5  T
   3  -3478.2790178 -0.875525E-08  0.185E-04   10.78       9.5  T
     SCC iter.                  ...        2 min, 50.601 sec
     gradient                   ...        4 min, 11.990 sec
 * total energy  : -3427.3874065 Eh     change    :  -0.5207290E-03 Eh
   gradient norm :     0.0463599 Eh/a0  converged?    E=F G=F D=F
   time step     :     0.2500000 fs     power     :   0.2653678E-07
   step length   :     0.0108907 a0     speed     :   0.1053732E-02

........................................................................
.............................. CYCLE   24 ..............................
........................................................................

 iter      E             dE          RMSdq      gap      omega  full diag
   1  -3478.2949295 -0.347829E+04  0.147E-03   10.78       0.0  T
   2  -3478.2949301 -0.563321E-06  0.840E-04   10.78       2.1  T
   3  -3478.2949301 -0.145264E-07  0.219E-04   10.78       8.0  T
     SCC iter.                  ...        2 min, 52.684 sec
     gradient                   ...        4 min, 11.639 sec
 * total energy  : -3427.3880037 Eh     change    :  -0.5971931E-03 Eh
   gradient norm :     0.0428346 Eh/a0  converged?    E=F G=F D=F
   time step     :     0.2500000 fs     power     :   0.3012129E-07
   step length   :     0.0135805 a0     speed     :   0.1313988E-02

........................................................................
.............................. CYCLE   25 ..............................
........................................................................

 iter      E             dE          RMSdq      gap      omega  full diag
   1  -3478.3125008 -0.347831E+04  0.167E-03   10.78       0.0  T
   2  -3478.3125014 -0.674914E-06  0.957E-04   10.78       1.8  T
   3  -3478.3125015 -0.202976E-07  0.239E-04   10.78       7.3  T
     SCC iter.                  ...        2 min, 54.291 sec
     gradient                   ...        4 min, 12.199 sec
 * total energy  : -3427.3886442 Eh     change    :  -0.6404954E-03 Eh
   gradient norm :     0.0397457 Eh/a0  converged?    E=F G=F D=F
   time step     :     0.2500000 fs     power     :   0.3205242E-07
   step length   :     0.0160186 a0     speed     :   0.1549882E-02

........................................................................
.............................. CYCLE   26 ..............................
........................................................................

 iter      E             dE          RMSdq      gap      omega  full diag
   1  -3478.3326065 -0.347833E+04  0.201E-03   10.78       0.0  T
   2  -3478.3326074 -0.857732E-06  0.115E-03   10.78       1.5  T
   3  -3478.3326074 -0.296691E-07  0.266E-04   10.78       6.6  T
   4  -3478.3326074 -0.120049E-07  0.625E-05   10.78      28.0  T
     SCC iter.                  ...        3 min, 45.337 sec
     gradient                   ...        4 min, 10.897 sec
 * total energy  : -3427.3893761 Eh     change    :  -0.7319184E-03 Eh
   gradient norm :     0.0374391 Eh/a0  converged?    E=F G=F D=F
   time step     :     0.2750000 fs     power     :   0.3297405E-07
   step length   :     0.0202547 a0     speed     :   0.1781591E-02

........................................................................
.............................. CYCLE   27 ..............................
........................................................................

 iter      E             dE          RMSdq      gap      omega  full diag
   1  -3478.3539394 -0.347835E+04  0.230E-03   10.78       0.0  T
   2  -3478.3539404 -0.930039E-06  0.132E-03   10.78       1.3  T
   3  -3478.3539404 -0.367063E-07  0.273E-04   10.78       6.4  T
   4  -3478.3539404 -0.152595E-07  0.691E-05   10.78      25.4  T
     SCC iter.                  ...        3 min, 50.230 sec
     gradient                   ...        4 min, 11.923 sec
 * total energy  : -3427.3902000 Eh     change    :  -0.8238535E-03 Eh
   gradient norm :     0.0365272 Eh/a0  converged?    E=F G=F D=F
   time step     :     0.3025000 fs     power     :   0.3364585E-07
   step length   :     0.0250670 a0     speed     :   0.2004433E-02

........................................................................
.............................. CYCLE   28 ..............................
........................................................................

 iter      E             dE          RMSdq      gap      omega  full diag
   1  -3478.3743216 -0.347837E+04  0.253E-03   10.78       0.0  T
   2  -3478.3743224 -0.783322E-06  0.145E-03   10.78       1.2  T
   3  -3478.3743224 -0.448817E-07  0.243E-04   10.78       7.2  T
   4  -3478.3743225 -0.177538E-07  0.749E-05   10.78      23.4  T
     SCC iter.                  ...        3 min, 52.015 sec
     gradient                   ...        4 min,  9.541 sec
 * total energy  : -3427.3911417 Eh     change    :  -0.9417208E-03 Eh
   gradient norm :     0.0369275 Eh/a0  converged?    E=F G=F D=F
   time step     :     0.3327500 fs     power     :   0.3527087E-07
   step length   :     0.0305183 a0     speed     :   0.2218491E-02

........................................................................
.............................. CYCLE   29 ..............................
........................................................................

 iter      E             dE          RMSdq      gap      omega  full diag
   1  -3478.3909593 -0.347839E+04  0.268E-03   10.78       0.0  T
   2  -3478.3909598 -0.472290E-06  0.155E-03   10.78       1.1  T
   3  -3478.3909599 -0.501614E-07  0.186E-04   10.78       9.4  T
   4  -3478.3909599 -0.197142E-07  0.774E-05   10.78      22.6  T
     SCC iter.                  ...        3 min, 51.674 sec
     gradient                   ...        4 min, 11.737 sec
 * total energy  : -3427.3922612 Eh     change    :  -0.1119454E-02 Eh
   gradient norm :     0.0375304 Eh/a0  converged?    E=F G=F D=F
   time step     :     0.3660250 fs     power     :   0.3873139E-07
   step length   :     0.0368361 a0     speed     :   0.2434322E-02

........................................................................
.............................. CYCLE   30 ..............................
........................................................................

 iter      E             dE          RMSdq      gap      omega  full diag
   1  -3478.4010423 -0.347840E+04  0.284E-03   10.78       0.0  T
   2  -3478.4010426 -0.256796E-06  0.166E-03   10.78       1.1  T
   3  -3478.4010426 -0.505092E-07  0.147E-04   10.78      12.0  T
   4  -3478.4010427 -0.228774E-07  0.762E-05   10.78      23.0  T
     SCC iter.                  ...        3 min, 54.534 sec
     gradient                   ...        4 min, 11.263 sec
 * total energy  : -3427.3936341 Eh     change    :  -0.1372905E-02 Eh
   gradient norm :     0.0367587 Eh/a0  converged?    E=F G=F D=F
   time step     :     0.4026275 fs     power     :   0.4360165E-07
   step length   :     0.0444627 a0     speed     :   0.2671205E-02

........................................................................
.............................. CYCLE   31 ..............................
........................................................................

 iter      E             dE          RMSdq      gap      omega  full diag
   1  -3478.4026400 -0.347840E+04  0.312E-03   10.78       0.0  T
   2  -3478.4026406 -0.535581E-06  0.185E-03   10.78       1.0  T
   3  -3478.4026406 -0.483315E-07  0.166E-04   10.78      10.5  T
   4  -3478.4026407 -0.268165E-07  0.703E-05   10.78      24.9  T
     SCC iter.                  ...        3 min, 49.680 sec
     gradient                   ...        4 min, 11.314 sec
 * total energy  : -3427.3952985 Eh     change    :  -0.1664483E-02 Eh
   gradient norm :     0.0335581 Eh/a0  converged?    E=F G=F D=F
   time step     :     0.4428903 fs     power     :   0.4771258E-07
   step length   :     0.0539129 a0     speed     :   0.2944498E-02

........................................................................
.............................. CYCLE   32 ..............................
........................................................................

 iter      E             dE          RMSdq      gap      omega  full diag
   1  -3478.3962206 -0.347840E+04  0.360E-03   10.78       0.0  T
   2  -3478.3962221 -0.149864E-05  0.216E-03   10.78       1.0  T
   3  -3478.3962222 -0.548357E-07  0.268E-04   10.78       6.5  T
   4  -3478.3962222 -0.302707E-07  0.712E-05   10.78      24.6  T
     SCC iter.                  ...        3 min, 54.582 sec
     gradient                   ...        4 min, 10.658 sec
 * total energy  : -3427.3971951 Eh     change    :  -0.1896603E-02 Eh
   gradient norm :     0.0286839 Eh/a0  converged?    E=F G=F D=F
   time step     :     0.4871793 fs     power     :   0.4816408E-07
   step length   :     0.0655019 a0     speed     :   0.3252221E-02

........................................................................
.............................. CYCLE   33 ..............................
........................................................................

 iter      E             dE          RMSdq      gap      omega  full diag
   1  -3478.3870656 -0.347839E+04  0.417E-03   10.78       0.0  T
   2  -3478.3870680 -0.244725E-05  0.251E-03   10.78       1.0  T
   3  -3478.3870681 -0.669552E-07  0.346E-04   10.78       5.1  T
   4  -3478.3870681 -0.335112E-07  0.749E-05   10.78      23.4  T
     SCC iter.                  ...        3 min, 52.074 sec
     gradient                   ...        4 min, 10.930 sec
 * total energy  : -3427.3991795 Eh     change    :  -0.1984404E-02 Eh
   gradient norm :     0.0257334 Eh/a0  converged?    E=F G=F D=F
   time step     :     0.5358972 fs     power     :   0.4433388E-07
   step length   :     0.0790767 a0     speed     :   0.3569291E-02

........................................................................
.............................. CYCLE   34 ..............................
........................................................................

 iter      E             dE          RMSdq      gap      omega  full diag
   1  -3478.3874274 -0.347839E+04  0.467E-03   10.78       0.0  T
   2  -3478.3874293 -0.186930E-05  0.280E-03   10.78       1.0  T
   3  -3478.3874294 -0.839059E-07  0.253E-04   10.78       6.9  T
   4  -3478.3874294 -0.336022E-07  0.785E-05   10.78      22.3  T
     SCC iter.                  ...        3 min, 50.701 sec
     gradient                   ...        4 min, 11.527 sec
 * total energy  : -3427.4011839 Eh     change    :  -0.2004336E-02 Eh
   gradient norm :     0.0267443 Eh/a0  converged?    E=F G=F D=F
   time step     :     0.5894869 fs     power     :   0.4048242E-07
   step length   :     0.0937220 a0     speed     :   0.3845762E-02

........................................................................
.............................. CYCLE   35 ..............................
........................................................................

 iter      E             dE          RMSdq      gap      omega  full diag
   1  -3478.4113385 -0.347841E+04  0.528E-03   10.78       0.0  T
   2  -3478.4113389 -0.449862E-06  0.313E-03   10.78       1.0  T
   3  -3478.4113391 -0.119878E-06  0.157E-04   10.78      11.1  T
   4  -3478.4113391 -0.227078E-07  0.871E-05   10.78      20.1  T
     SCC iter.                  ...        3 min, 52.448 sec
     gradient                   ...        4 min, 10.175 sec
 * total energy  : -3427.4033316 Eh     change    :  -0.2147676E-02 Eh
   gradient norm :     0.0264244 Eh/a0  converged?    E=F G=F D=F
   time step     :     0.6484356 fs     power     :   0.4018016E-07
   step length   :     0.1088895 a0     speed     :   0.4061947E-02

........................................................................
.............................. CYCLE   36 ..............................
........................................................................

 iter      E             dE          RMSdq      gap      omega  full diag
   1  -3478.4649815 -0.347846E+04  0.634E-03   10.78       0.0  T
   2  -3478.4649829 -0.134405E-05  0.367E-03   10.78       1.0  T
   3  -3478.4649831 -0.167235E-06  0.244E-04   10.78       7.2  T
   4  -3478.4649831 -0.214795E-07  0.103E-04   10.78      17.1  T
     SCC iter.                  ...        3 min, 44.713 sec
     gradient                   ...        4 min, 13.015 sec
 * total energy  : -3427.4056661 Eh     change    :  -0.2334556E-02 Eh
   gradient norm :     0.0219297 Eh/a0  converged?    E=F G=F D=F
   time step     :     0.7132792 fs     power     :   0.3877168E-07
   step length   :     0.1261084 a0     speed     :   0.4276611E-02

........................................................................
.............................. CYCLE   37 ..............................
........................................................................

 iter      E             dE          RMSdq      gap      omega  full diag
   1  -3478.5366020 -0.347854E+04  0.724E-03   10.78       0.0  T
   2  -3478.5366053 -0.337770E-05  0.415E-03   10.78       1.0  T
   3  -3478.5366055 -0.187761E-06  0.418E-04   10.78       4.2  T
   4  -3478.5366056 -0.333944E-07  0.110E-04   10.78      15.9  T
     SCC iter.                  ...        3 min, 51.928 sec
     gradient                   ...        4 min, 11.029 sec
 * total energy  : -3427.4079504 Eh     change    :  -0.2284286E-02 Eh
   gradient norm :     0.0215342 Eh/a0  converged?    E=F G=F D=F
   time step     :     0.7846071 fs     power     :   0.3263087E-07
   step length   :     0.1461305 a0     speed     :   0.4505091E-02

........................................................................
.............................. CYCLE   38 ..............................
........................................................................

 iter      E             dE          RMSdq      gap      omega  full diag
   1  -3478.5896215 -0.347859E+04  0.687E-03   10.78       0.0  T
   2  -3478.5896225 -0.990835E-06  0.399E-03   10.78       1.0  T
   3  -3478.5896226 -0.165764E-06  0.209E-04   10.78       8.4  T
   4  -3478.5896226 -0.191380E-07  0.918E-05   10.78      19.1  T
     SCC iter.                  ...        3 min, 53.637 sec
     gradient                   ...        4 min, 11.240 sec
 * total energy  : -3427.4102451 Eh     change    :  -0.2294654E-02 Eh
   gradient norm :     0.0240172 Eh/a0  converged?    E=F G=F D=F
   time step     :     0.8630678 fs     power     :   0.3110969E-07
   step length   :     0.1660721 a0     speed     :   0.4654434E-02

........................................................................
.............................. CYCLE   39 ..............................
........................................................................

 iter      E             dE          RMSdq      gap      omega  full diag
   1  -3478.5992396 -0.347860E+04  0.635E-03   10.78       0.0  T
   2  -3478.5992418 -0.217624E-05  0.380E-03   10.78       1.0  T
   3  -3478.5992420 -0.197702E-06  0.242E-04   10.78       7.2  T
   4  -3478.5992420 -0.256782E-07  0.115E-04   10.78      15.3  T
     SCC iter.                  ...        3 min, 53.348 sec
     gradient                   ...        4 min, 11.976 sec
 * total energy  : -3427.4128380 Eh     change    :  -0.2592912E-02 Eh
   gradient norm :     0.0205532 Eh/a0  converged?    E=F G=F D=F
   time step     :     0.9493746 fs     power     :   0.3190279E-07
   step length   :     0.1877061 a0     speed     :   0.4782510E-02

........................................................................
.............................. CYCLE   40 ..............................
........................................................................

 iter      E             dE          RMSdq      gap      omega  full diag
   1  -3478.5840486 -0.347858E+04  0.632E-03   10.78       0.0  T
   2  -3478.5840538 -0.525270E-05  0.380E-03   10.79       1.0  T
   3  -3478.5840541 -0.275091E-06  0.473E-04   10.79       3.7  T
   4  -3478.5840541 -0.535492E-07  0.157E-04   10.79      11.2  T
     SCC iter.                  ...        3 min, 53.558 sec
     gradient                   ...        4 min, 12.256 sec
 * total energy  : -3427.4155400 Eh     change    :  -0.2702021E-02 Eh
   gradient norm :     0.0231193 Eh/a0  converged?    E=F G=F D=F
   time step     :     1.0443120 fs     power     :   0.2934783E-07
   step length   :     0.2139033 a0     speed     :   0.4954529E-02

........................................................................
.............................. CYCLE   41 ..............................
........................................................................

 iter      E             dE          RMSdq      gap      omega  full diag
   1  -3478.6016556 -0.347860E+04  0.688E-03   10.79       0.0  T
   2  -3478.6016565 -0.891567E-06  0.404E-03   10.79       1.0  T
   3  -3478.6016567 -0.257538E-06  0.235E-04   10.79       7.5  T
   4  -3478.6016567 -0.306536E-07  0.138E-04   10.79      12.7  T
     SCC iter.                  ...        3 min, 51.902 sec
     gradient                   ...        4 min, 11.419 sec
 * total energy  : -3427.4187114 Eh     change    :  -0.3171431E-02 Eh
   gradient norm :     0.0211775 Eh/a0  converged?    E=F G=F D=F
   time step     :     1.1487432 fs     power     :   0.3340444E-07
   step length   :     0.2417566 a0     speed     :   0.5090617E-02

........................................................................
.............................. CYCLE   42 ..............................
........................................................................

 iter      E             dE          RMSdq      gap      omega  full diag
   1  -3478.6495148 -0.347865E+04  0.834E-03   10.80       0.0  T
   2  -3478.6495188 -0.406747E-05  0.483E-03   10.80       1.0  T
   3  -3478.6495191 -0.241448E-06  0.418E-04   10.80       4.2  T
   4  -3478.6495191 -0.410964E-07  0.122E-04   10.80      14.4  T
     SCC iter.                  ...        3 min, 48.799 sec
     gradient                   ...        4 min, 11.340 sec
 * total energy  : -3427.4222040 Eh     change    :  -0.3492547E-02 Eh
   gradient norm :     0.0215832 Eh/a0  converged?    E=F G=F D=F
   time step     :     1.2500000 fs     power     :   0.3158962E-07
   step length   :     0.2744071 a0     speed     :   0.5310073E-02
 * RMSD in coord.:     0.0318596 a0     energy gain  -0.3598797E-01 Eh

........................................................................
.............................. CYCLE   43 ..............................
........................................................................

 iter      E             dE          RMSdq      gap      omega  full diag
   1  -3478.6522202 -0.347865E+04  0.134E-03   10.80       0.0  T
   2  -3478.6522203 -0.361410E-07  0.784E-04   10.80       2.2  T
   3  -3478.6522203 -0.945420E-08  0.486E-05   10.80      36.0  T
     SCC iter.                  ...        2 min, 55.244 sec
     gradient                   ...        4 min, 10.593 sec
 * total energy  : -3427.4228739 Eh     change    :  -0.6699357E-03 Eh
   gradient norm :     0.0215732 Eh/a0  converged?    E=F G=F D=F
   time step     :     0.2500000 fs     power     :   0.3495023E-07
   step length   :     0.0531082 a0     speed     :   0.5138500E-02

........................................................................
.............................. CYCLE   44 ..............................
........................................................................

 iter      E             dE          RMSdq      gap      omega  full diag
   1  -3478.6487485 -0.347865E+04  0.129E-03   10.80       0.0  T
   2  -3478.6487486 -0.156459E-06  0.757E-04   10.80       2.3  T
   3  -3478.6487486 -0.104706E-07  0.829E-05   10.80      21.1  T
     SCC iter.                  ...        2 min, 55.924 sec
     gradient                   ...        4 min, 10.195 sec
 * total energy  : -3427.4235936 Eh     change    :  -0.7196610E-03 Eh
   gradient norm :     0.0199891 Eh/a0  converged?    E=F G=F D=F
   time step     :     0.2500000 fs     power     :   0.3741524E-07
   step length   :     0.0518560 a0     speed     :   0.5017350E-02

........................................................................
.............................. CYCLE   45 ..............................
........................................................................

 iter      E             dE          RMSdq      gap      omega  full diag
   1  -3478.6407747 -0.347864E+04  0.143E-03   10.80       0.0  T
   2  -3478.6407751 -0.387828E-06  0.839E-04   10.80       2.1  T
   3  -3478.6407751 -0.133964E-07  0.156E-04   10.80      11.2  T
     SCC iter.                  ...        2 min, 52.872 sec
     gradient                   ...        4 min, 10.547 sec
 * total energy  : -3427.4243308 Eh     change    :  -0.7372212E-03 Eh
   gradient norm :     0.0178253 Eh/a0  converged?    E=F G=F D=F
   time step     :     0.2500000 fs     power     :   0.3782703E-07
   step length   :     0.0512060 a0     speed     :   0.4954458E-02

........................................................................
.............................. CYCLE   46 ..............................
........................................................................

 iter      E             dE          RMSdq      gap      omega  full diag
   1  -3478.6310145 -0.347863E+04  0.158E-03   10.80       0.0  T
   2  -3478.6310150 -0.515966E-06  0.922E-04   10.80       1.9  T
   3  -3478.6310150 -0.151699E-07  0.185E-04   10.80       9.4  T
     SCC iter.                  ...        2 min, 52.837 sec
     gradient                   ...        4 min, 10.982 sec
 * total energy  : -3427.4250515 Eh     change    :  -0.7206911E-03 Eh
   gradient norm :     0.0165656 Eh/a0  converged?    E=F G=F D=F
   time step     :     0.2500000 fs     power     :   0.3660853E-07
   step length   :     0.0510446 a0     speed     :   0.4938839E-02

........................................................................
.............................. CYCLE   47 ..............................
........................................................................

 iter      E             dE          RMSdq      gap      omega  full diag
   1  -3478.6229038 -0.347862E+04  0.161E-03   10.80       0.0  T
   2  -3478.6229042 -0.403998E-06  0.941E-04   10.80       1.9  T
   3  -3478.6229042 -0.144582E-07  0.153E-04   10.80      11.4  T
     SCC iter.                  ...        2 min, 52.314 sec
     gradient                   ...        4 min, 11.246 sec
 * total energy  : -3427.4257453 Eh     change    :  -0.6938710E-03 Eh
   gradient norm :     0.0167108 Eh/a0  converged?    E=F G=F D=F
   time step     :     0.2500000 fs     power     :   0.3534885E-07
   step length   :     0.0510167 a0     speed     :   0.4936136E-02

........................................................................
.............................. CYCLE   48 ..............................
........................................................................

 iter      E             dE          RMSdq      gap      omega  full diag
   1  -3478.6189175 -0.347862E+04  0.173E-03   10.80       0.0  T
   2  -3478.6189177 -0.208414E-06  0.101E-03   10.80       1.7  T
   3  -3478.6189177 -0.141190E-07  0.914E-05   10.80      19.2  T
   4  -3478.6189177 -0.413911E-08  0.300E-05   10.80      58.4  T
     SCC iter.                  ...        3 min, 48.076 sec
     gradient                   ...        4 min, 11.313 sec
 * total energy  : -3427.4264945 Eh     change    :  -0.7491298E-03 Eh
   gradient norm :     0.0171704 Eh/a0  converged?    E=F G=F D=F
   time step     :     0.2750000 fs     power     :   0.3499413E-07
   step length   :     0.0559770 a0     speed     :   0.4923704E-02

........................................................................
.............................. CYCLE   49 ..............................
........................................................................

 iter      E             dE          RMSdq      gap      omega  full diag
   1  -3478.6215846 -0.347862E+04  0.188E-03   10.80       0.0  T
   2  -3478.6215847 -0.693399E-07  0.110E-03   10.80       1.6  T
   3  -3478.6215847 -0.144655E-07  0.598E-05   10.80      29.3  T
   4  -3478.6215847 -0.459704E-08  0.268E-05   10.80      65.3  T
     SCC iter.                  ...        3 min, 50.229 sec
     gradient                   ...        4 min, 10.760 sec
 * total energy  : -3427.4273201 Eh     change    :  -0.8256515E-03 Eh
   gradient norm :     0.0165662 Eh/a0  converged?    E=F G=F D=F
   time step     :     0.3025000 fs     power     :   0.3520189E-07
   step length   :     0.0613912 a0     speed     :   0.4909033E-02

........................................................................
.............................. CYCLE   50 ..............................
........................................................................

 iter      E             dE          RMSdq      gap      omega  full diag
   1  -3478.6318081 -0.347863E+04  0.214E-03   10.80       0.0  T
   2  -3478.6318083 -0.190856E-06  0.125E-03   10.80       1.4  T
   3  -3478.6318084 -0.201353E-07  0.870E-05   10.80      20.1  T
   4  -3478.6318084 -0.460250E-08  0.341E-05   10.80      51.4  T
     SCC iter.                  ...        3 min, 52.701 sec
     gradient                   ...        4 min, 10.578 sec
 * total energy  : -3427.4282203 Eh     change    :  -0.9002166E-03 Eh
   gradient norm :     0.0146541 Eh/a0  converged?    E=F G=F D=F
   time step     :     0.3327500 fs     power     :   0.3453771E-07
   step length   :     0.0676853 a0     speed     :   0.4920295E-02

........................................................................
.............................. CYCLE   51 ..............................
........................................................................

 iter      E             dE          RMSdq      gap      omega  full diag
   1  -3478.6476747 -0.347865E+04  0.241E-03   10.81       0.0  T
   2  -3478.6476752 -0.487159E-06  0.140E-03   10.81       1.2  T
   3  -3478.6476752 -0.273981E-07  0.152E-04   10.81      11.5  T
   4  -3478.6476752 -0.632599E-08  0.439E-05   10.81      39.9  T
     SCC iter.                  ...        3 min, 46.635 sec
     gradient                   ...        4 min, 10.769 sec
 * total energy  : -3427.4291614 Eh     change    :  -0.9410342E-03 Eh
   gradient norm :     0.0132371 Eh/a0  converged?    E=F G=F D=F
   time step     :     0.3660250 fs     power     :   0.3221884E-07
   step length   :     0.0752747 a0     speed     :   0.4974544E-02

........................................................................
.............................. CYCLE   52 ..............................
........................................................................

 iter      E             dE          RMSdq      gap      omega  full diag
   1  -3478.6626622 -0.347866E+04  0.248E-03   10.81       0.0  T
   2  -3478.6626627 -0.441350E-06  0.145E-03   10.81       1.2  T
   3  -3478.6626627 -0.304990E-07  0.138E-04   10.81      12.7  T
   4  -3478.6626627 -0.627824E-08  0.449E-05   10.81      39.0  T
     SCC iter.                  ...        3 min, 51.410 sec
     gradient                   ...        4 min, 10.792 sec
 * total energy  : -3427.4301225 Eh     change    :  -0.9611326E-03 Eh
   gradient norm :     0.0139438 Eh/a0  converged?    E=F G=F D=F
   time step     :     0.4026275 fs     power     :   0.2987240E-07
   step length   :     0.0838581 a0     speed     :   0.5037982E-02

........................................................................
.............................. CYCLE   53 ..............................
........................................................................

 iter      E             dE          RMSdq      gap      omega  full diag
   1  -3478.6687612 -0.347867E+04  0.237E-03   10.81       0.0  T
   2  -3478.6687614 -0.118052E-06  0.139E-03   10.81       1.3  T
   3  -3478.6687614 -0.294808E-07  0.741E-05   10.81      23.6  T
   4  -3478.6687614 -0.457476E-08  0.392E-05   10.81      44.7  T
     SCC iter.                  ...        3 min, 50.305 sec
     gradient                   ...        4 min, 12.141 sec
 * total energy  : -3427.4311392 Eh     change    :  -0.1016667E-02 Eh
   gradient norm :     0.0142619 Eh/a0  converged?    E=F G=F D=F
   time step     :     0.4428903 fs     power     :   0.2915339E-07
   step length   :     0.0925369 a0     speed     :   0.5053986E-02

........................................................................
.............................. CYCLE   54 ..............................
........................................................................

 iter      E             dE          RMSdq      gap      omega  full diag
   1  -3478.6622929 -0.347866E+04  0.243E-03   10.81       0.0  T
   2  -3478.6622932 -0.345538E-06  0.143E-03   10.81       1.2  T
   3  -3478.6622933 -0.349255E-07  0.107E-04   10.81      16.3  T
   4  -3478.6622933 -0.529917E-08  0.450E-05   10.81      39.0  T
     SCC iter.                  ...        3 min, 49.344 sec
     gradient                   ...        4 min, 10.879 sec
 * total energy  : -3427.4322373 Eh     change    :  -0.1098094E-02 Eh
   gradient norm :     0.0127012 Eh/a0  converged?    E=F G=F D=F
   time step     :     0.4871793 fs     power     :   0.2846119E-07
   step length   :     0.1019777 a0     speed     :   0.5063277E-02

........................................................................
.............................. CYCLE   55 ..............................
........................................................................

 iter      E             dE          RMSdq      gap      omega  full diag
   1  -3478.6473920 -0.347865E+04  0.257E-03   10.81       0.0  T
   2  -3478.6473929 -0.910045E-06  0.151E-03   10.81       1.2  T
   3  -3478.6473929 -0.470195E-07  0.217E-04   10.81       8.1  T
   4  -3478.6473930 -0.902219E-08  0.606E-05   10.81      28.9  T
     SCC iter.                  ...        3 min, 56.539 sec
     gradient                   ...        4 min, 12.760 sec
 * total energy  : -3427.4333823 Eh     change    :  -0.1145006E-02 Eh
   gradient norm :     0.0125122 Eh/a0  converged?    E=F G=F D=F
   time step     :     0.5358972 fs     power     :   0.2652171E-07
   step length   :     0.1132112 a0     speed     :   0.5110026E-02

........................................................................
.............................. CYCLE   56 ..............................
........................................................................

 iter      E             dE          RMSdq      gap      omega  full diag
   1  -3478.6385658 -0.347864E+04  0.243E-03   10.81       0.0  T
   2  -3478.6385663 -0.462469E-06  0.143E-03   10.81       1.2  T
   3  -3478.6385663 -0.478972E-07  0.144E-04   10.81      12.2  T
   4  -3478.6385663 -0.838236E-08  0.615E-05   10.81      28.5  T
     SCC iter.                  ...        3 min, 54.061 sec
     gradient                   ...        4 min, 12.554 sec
 * total energy  : -3427.4345900 Eh     change    :  -0.1207721E-02 Eh
   gradient norm :     0.0136252 Eh/a0  converged?    E=F G=F D=F
   time step     :     0.5894869 fs     power     :   0.2591111E-07
   step length   :     0.1252277 a0     speed     :   0.5138558E-02

........................................................................
.............................. CYCLE   57 ..............................
........................................................................

 iter      E             dE          RMSdq      gap      omega  full diag
   1  -3478.6467514 -0.347865E+04  0.261E-03   10.81       0.0  T
   2  -3478.6467516 -0.253350E-06  0.152E-03   10.81       1.1  T
   3  -3478.6467517 -0.380001E-07  0.126E-04   10.81      13.9  T
   4  -3478.6467517 -0.103500E-07  0.549E-05   10.81      31.9  T
     SCC iter.                  ...        3 min, 53.173 sec
     gradient                   ...        4 min, 12.466 sec
 * total energy  : -3427.4359265 Eh     change    :  -0.1336533E-02 Eh
   gradient norm :     0.0123065 Eh/a0  converged?    E=F G=F D=F
   time step     :     0.6484356 fs     power     :   0.2615253E-07
   step length   :     0.1379180 a0     speed     :   0.5144808E-02

........................................................................
.............................. CYCLE   58 ..............................
........................................................................

 iter      E             dE          RMSdq      gap      omega  full diag
   1  -3478.6688779 -0.347867E+04  0.308E-03   10.82       0.0  T
   2  -3478.6688787 -0.767185E-06  0.178E-03   10.82       1.0  T
   3  -3478.6688787 -0.369405E-07  0.215E-04   10.82       8.1  T
   4  -3478.6688788 -0.119908E-07  0.540E-05   10.82      32.4  T
     SCC iter.                  ...        3 min, 55.447 sec
     gradient                   ...        4 min, 11.925 sec
 * total energy  : -3427.4373594 Eh     change    :  -0.1432842E-02 Eh
   gradient norm :     0.0124475 Eh/a0  converged?    E=F G=F D=F
   time step     :     0.7132792 fs     power     :   0.2504280E-07
   step length   :     0.1532835 a0     speed     :   0.5198176E-02

........................................................................
.............................. CYCLE   59 ..............................
........................................................................

 iter      E             dE          RMSdq      gap      omega  full diag
   1  -3478.6843517 -0.347868E+04  0.292E-03   10.82       0.0  T
   2  -3478.6843519 -0.199918E-06  0.172E-03   10.82       1.0  T
   3  -3478.6843519 -0.437499E-07  0.114E-04   10.82      15.4  T
   4  -3478.6843519 -0.862883E-08  0.604E-05   10.82      29.0  T
     SCC iter.                  ...        3 min, 52.571 sec
     gradient                   ...        4 min, 10.467 sec
 * total energy  : -3427.4389231 Eh     change    :  -0.1563729E-02 Eh
   gradient norm :     0.0126267 Eh/a0  converged?    E=F G=F D=F
   time step     :     0.7846071 fs     power     :   0.2540507E-07
   step length   :     0.1699701 a0     speed     :   0.5240050E-02

........................................................................
.............................. CYCLE   60 ..............................
........................................................................

 iter      E             dE          RMSdq      gap      omega  full diag
   1  -3478.6851114 -0.347869E+04  0.310E-03   10.82       0.0  T
   2  -3478.6851125 -0.112759E-05  0.187E-03   10.82       1.0  T
   3  -3478.6851126 -0.614300E-07  0.219E-04   10.82       8.0  T
   4  -3478.6851126 -0.140572E-07  0.766E-05   10.82      22.9  T
     SCC iter.                  ...        3 min, 54.002 sec
     gradient                   ...        4 min, 11.583 sec
 * total energy  : -3427.4406461 Eh     change    :  -0.1723041E-02 Eh
   gradient norm :     0.0111564 Eh/a0  converged?    E=F G=F D=F
   time step     :     0.8630678 fs     power     :   0.2490317E-07
   step length   :     0.1890383 a0     speed     :   0.5298099E-02

........................................................................
.............................. CYCLE   61 ..............................
........................................................................

 iter      E             dE          RMSdq      gap      omega  full diag
   1  -3478.6964556 -0.347870E+04  0.348E-03   10.82       0.0  T
   2  -3478.6964561 -0.549494E-06  0.209E-03   10.82       1.0  T
   3  -3478.6964562 -0.544533E-07  0.131E-04   10.82      13.3  T
   4  -3478.6964562 -0.110044E-07  0.644E-05   10.82      27.2  T
     SCC iter.                  ...        3 min, 49.795 sec
     gradient                   ...        4 min, 10.368 sec
 * total energy  : -3427.4424825 Eh     change    :  -0.1836333E-02 Eh
   gradient norm :     0.0115345 Eh/a0  converged?    E=F G=F D=F
   time step     :     0.9493746 fs     power     :   0.2430253E-07
   step length   :     0.2116931 a0     speed     :   0.5393667E-02

........................................................................
.............................. CYCLE   62 ..............................
........................................................................

 iter      E             dE          RMSdq      gap      omega  full diag
   1  -3478.7366253 -0.347874E+04  0.489E-03   10.82       0.0  T
   2  -3478.7366263 -0.103402E-05  0.283E-03   10.82       1.0  T
   3  -3478.7366264 -0.709679E-07  0.223E-04   10.82       7.9  T
   4  -3478.7366264 -0.126488E-07  0.678E-05   10.82      25.8  T
     SCC iter.                  ...        3 min, 49.189 sec
     gradient                   ...        4 min, 10.642 sec
 * total energy  : -3427.4444431 Eh     change    :  -0.1960602E-02 Eh
   gradient norm :     0.0100310 Eh/a0  converged?    E=F G=F D=F
   time step     :     1.0443120 fs     power     :   0.2294202E-07
   step length   :     0.2365074 a0     speed     :   0.5478094E-02

........................................................................
.............................. CYCLE   63 ..............................
........................................................................

 iter      E             dE          RMSdq      gap      omega  full diag
   1  -3478.7593183 -0.347876E+04  0.496E-03   10.83       0.0  T
   2  -3478.7593188 -0.492078E-06  0.291E-03   10.83       1.0  T
   3  -3478.7593189 -0.730338E-07  0.153E-04   10.83      11.4  T
   4  -3478.7593189 -0.192931E-07  0.698E-05   10.83      25.1  T
     SCC iter.                  ...        3 min, 56.093 sec
     gradient                   ...        4 min, 10.685 sec
 * total energy  : -3427.4464625 Eh     change    :  -0.2019469E-02 Eh
   gradient norm :     0.0096136 Eh/a0  converged?    E=F G=F D=F
   time step     :     1.1487432 fs     power     :   0.2165871E-07
   step length   :     0.2652188 a0     speed     :   0.5584656E-02

........................................................................
.............................. CYCLE   64 ..............................
........................................................................

 iter      E             dE          RMSdq      gap      omega  full diag
   1  -3478.7513966 -0.347875E+04  0.477E-03   10.83       0.0  T
   2  -3478.7513990 -0.231994E-05  0.286E-03   10.83       1.0  T
   3  -3478.7513990 -0.670752E-07  0.296E-04   10.83       5.9  T
   4  -3478.7513990 -0.282394E-07  0.741E-05   10.83      23.7  T
     SCC iter.                  ...        3 min, 47.233 sec
     gradient                   ...        4 min, 11.545 sec
 * total energy  : -3427.4484912 Eh     change    :  -0.2028699E-02 Eh
   gradient norm :     0.0109353 Eh/a0  converged?    E=F G=F D=F
   time step     :     1.2500000 fs     power     :   0.1931661E-07
   step length   :     0.2936219 a0     speed     :   0.5681900E-02

........................................................................
.............................. CYCLE   65 ..............................
........................................................................

 iter      E             dE          RMSdq      gap      omega  full diag
   1  -3478.7855366 -0.347879E+04  0.554E-03   10.83       0.0  T
   2  -3478.7855381 -0.145562E-05  0.321E-03   10.83       1.0  T
   3  -3478.7855382 -0.708023E-07  0.263E-04   10.83       6.7  T
   4  -3478.7855382 -0.244104E-07  0.737E-05   10.83      23.8  T
     SCC iter.                  ...        3 min, 51.764 sec
     gradient                   ...        4 min, 10.448 sec
 * total energy  : -3427.4504094 Eh     change    :  -0.1918136E-02 Eh
   gradient norm :     0.0098842 Eh/a0  converged?    E=F G=F D=F
   time step     :     1.2500000 fs     power     :   0.1831006E-07
   step length   :     0.2939026 a0     speed     :   0.5687332E-02

........................................................................
.............................. CYCLE   66 ..............................
........................................................................

 iter      E             dE          RMSdq      gap      omega  full diag
   1  -3478.7950966 -0.347880E+04  0.429E-03   10.84       0.0  T
   2  -3478.7950972 -0.642295E-06  0.254E-03   10.84       1.0  T
   3  -3478.7950973 -0.613923E-07  0.152E-04   10.84      11.5  T
   4  -3478.7950973 -0.170580E-07  0.726E-05   10.84      24.1  T
     SCC iter.                  ...        3 min, 55.399 sec
     gradient                   ...        4 min, 11.542 sec
 * total energy  : -3427.4522528 Eh     change    :  -0.1843462E-02 Eh
   gradient norm :     0.0091140 Eh/a0  converged?    E=F G=F D=F
[...]
  3011   6 C     3012   6 C                                       1.5293851
  3012   6 C     3013   6 C                                       1.5294764
  3013   6 C     3014   6 C                                       1.5278189
  3014   6 C     3015   6 C                                       1.5255216
  3015   6 C     3016   6 C                                       1.5229640
  3015   6 C     3017   1 H                                       1.0912563
  3015   6 C     3018   1 H                                       1.0930137
  3014   6 C     3019   1 H                                       1.0940781
  3014   6 C     3020   1 H                                       1.0914662
  3013   6 C     3021   1 H                                       1.0939408
  3013   6 C     3022   1 H                                       1.0921234
  3012   6 C     3023   1 H                                       1.0928601
  3012   6 C     3024   1 H                                       1.0924601
  3011   6 C     3025   1 H                                       1.0913142
  3011   6 C     3026   1 H                                       1.0938498
  3010   6 C     3027   1 H                                       1.0931172
  3010   6 C     3028   1 H                                       1.0918533
  3009   6 C     3029   1 H                                       1.0936183
  3009   6 C     3030   1 H                                       1.0935278
  3008   6 C     3031   1 H                                       1.0930330
  3008   6 C     3032   1 H                                       1.0933184
  3007   6 C     3033   1 H                                       1.0932310
  3007   6 C     3034   1 H                                       1.0934337
  3006   6 C     3035   1 H                                       1.0932278
  3006   6 C     3036   1 H                                       1.0919296
  3005   6 C     3037   1 H                                       1.0926384
  3005   6 C     3038   1 H                                       1.0931903
  3004   6 C     3039   1 H                                       1.0934175
  3004   6 C     3040   1 H                                       1.0920665
  3003   6 C     3041   1 H                                       1.0909879
  3003   6 C     3042   1 H                                       1.0933297
  3002   6 C     3043   1 H                                       1.0916207
  3002   6 C     3044   1 H                                       1.0933464
  3001   6 C     3045   1 H                                       1.0927510
  3001   6 C     3046   1 H                                       1.0935908
  3000   6 C     3047   1 H                                       1.0934131
  3000   6 C     3048   1 H                                       1.0909763
  2999   6 C     3049   1 H                                       1.0918938
  2999   6 C     3050   1 H                                       1.0931349
  2998   6 C     3051   1 H                                       1.0928667
  2998   6 C     3052   1 H                                       1.0911124
  2997   6 C     3053   1 H                                       1.0923215
  2997   6 C     3054   1 H                                       1.0937820
  2996   6 C     3055   1 H                                       1.0926338
  2996   6 C     3056   1 H                                       1.0937125
  2995   6 C     3057   1 H                                       1.0939206
  2995   6 C     3058   1 H                                       1.0921020
  2994   6 C     3059   1 H                                       1.0934701
  2994   6 C     3060   1 H                                       1.0907216
  2993   6 C     3061   1 H                                       1.0917406
  2993   6 C     3062   1 H                                       1.0934562
  2992   6 C     3063   1 H                                       1.0926270
  2992   6 C     3064   1 H                                       1.0929271
  2991   6 C     3065   1 H                                       1.0931588
  2991   6 C     3066   1 H                                       1.0934427
  2990   6 C     3067   1 H                                       1.0924805
  2990   6 C     3068   1 H                                       1.0928034
  2989   6 C     3069   1 H                                       1.0930602
  2989   6 C     3070   1 H                                       1.0938998
  2988   6 C     3071   1 H                                       1.0927852
  2988   6 C     3072   1 H                                       1.0920976
  2987   6 C     3073   1 H                                       1.0929184
  2987   6 C     3074   1 H                                       1.0934896
  2986   6 C     3075   1 H                                       1.0933404
  2986   6 C     3076   1 H                                       1.0908303
  2985   6 C     3077   1 H                                       1.0928342
  2985   6 C     3078   1 H                                       1.0936995
  2984   6 C     3079   1 H                                       1.0940531
  2984   6 C     3080   1 H                                       1.0927049
  2983   6 C     3081   1 H                                       1.0888444
  2983   6 C     3082   1 H                                       1.0931323
  2982   6 C     3083   1 H                                       1.0939708
  2982   6 C     3084   1 H                                       1.0916494
  2981   6 C     3085   1 H                                       1.0938520
  2981   6 C     3086   1 H                                       1.0936912
  2980   6 C     3087   1 H                                       1.0914178
  2980   6 C     3088   1 H                                       1.0891130
  2979   6 C     3089   1 H                                       1.0928636
  2979   6 C     3090   1 H                                       1.0932067
  2978   6 C     3091   1 H                                       1.0929573
  2978   6 C     3092   1 H                                       1.0940898
  2977   6 C     3093   1 H                                       1.0906094
  2977   6 C     3094   1 H                                       1.0905367
  2976   6 C     3095   1 H                                       1.0938187
  2976   6 C     3096   1 H                                       1.0941760
  2975   6 C     3097   1 H                                       1.0931797
  2975   6 C     3098   1 H                                       1.0927930
  2974   6 C     3099   1 H                                       1.0921832
  2974   6 C     3100   1 H                                       1.0938497
  2973   6 C     3101   1 H                                       1.0939237
  2973   6 C     3102   1 H                                       1.0932114
  2972   6 C     3103   1 H                                       1.0930457
  2972   6 C     3104   1 H                                       1.0931155
  2971   6 C     3105   1 H                                       1.0937383
  2971   6 C     3106   1 H                                       1.0925715
  2970   6 C     3107   1 H                                       1.0921944
  2970   6 C     3108   1 H                                       1.0936964
  2969   6 C     3109   1 H                                       1.0937656
  2969   6 C     3110   1 H                                       1.0926865
  2968   6 C     3111   1 H                                       1.0930270
  2968   6 C     3112   1 H                                       1.0922079
  2967   6 C     3113   1 H                                       1.0912077
  2967   6 C     3114   1 H                                       1.0914334
  2966   6 C     3115   1 H                                       1.0934498
  2966   6 C     3116   1 H                                       1.0938083
  2965   6 C     3117   1 H                                       1.0934247
  2965   6 C     3118   1 H                                       1.0932733
  2964   6 C     3119   1 H                                       1.0938093
  2964   6 C     3120   1 H                                       1.0916353
  2963   6 C     3121   1 H                                       1.0906345
  2963   6 C     3122   1 H                                       1.0924560
  2962   6 C     3123   1 H                                       1.0935795
  2962   6 C     3124   1 H                                       1.0935983
  2961   6 C     3125   1 H                                       1.0919591
  2961   6 C     3126   1 H                                       1.0928550
  2960   6 C     3127   1 H                                       1.0934052
  2960   6 C     3128   1 H                                       1.0903875
  2959   6 C     3129   1 H                                       1.0939672
  2959   6 C     3130   1 H                                       1.0938457
  2958   6 C     3131   1 H                                       1.0939814
  2958   6 C     3132   1 H                                       1.0914276
  2957   6 C     3133   1 H                                       1.0919657
  2957   6 C     3134   1 H                                       1.0936010
  2956   6 C     3135   1 H                                       1.0913079
  2956   6 C     3136   1 H                                       1.0937430
  2955   6 C     3137   1 H                                       1.0905605
  2955   6 C     3138   1 H                                       1.0936694
  2954   6 C     3139   1 H                                       1.0941866
  2954   6 C     3140   1 H                                       1.0917860
  2953   6 C     3141   1 H                                       1.0910482
  2953   6 C     3142   1 H                                       1.0943245
  2952   6 C     3143   1 H                                       1.0930927
  2952   6 C     3144   1 H                                       1.0902180
  2951   6 C     3145   1 H                                       1.0930089
  2951   6 C     3146   1 H                                       1.0938905
  2950   6 C     3147   1 H                                       1.0924988
  2950   6 C     3148   1 H                                       1.0922686
  2949   6 C     3149   1 H                                       1.0913131
  2949   6 C     3150   1 H                                       1.0916961
  2948   6 C     3151   1 H                                       1.0928625
  2948   6 C     3152   1 H                                       1.0934354
  2947   6 C     3153   1 H                                       1.0930266
  2947   6 C     3154   1 H                                       1.0931792
  2946   6 C     3155   1 H                                       1.0896756
  2946   6 C     3156   1 H                                       1.0933954
  2945   6 C     3157   1 H                                       1.0943108
  2945   6 C     3158   1 H                                       1.0926786
  2944   6 C     3159   1 H                                       1.0932300
  2944   6 C     3160   1 H                                       1.0939568
  2943   6 C     3161   1 H                                       1.0934366
  2943   6 C     3162   1 H                                       1.0907640
  2942   6 C     3163   1 H                                       1.0930323
  2942   6 C     3164   1 H                                       1.0936332
  2941   6 C     3165   1 H                                       1.0921835
  2941   6 C     3166   1 H                                       1.0926904
  2940   6 C     3167   1 H                                       1.0918662
  2940   6 C     3168   1 H                                       1.0936168
  2939   6 C     3169   1 H                                       1.0930715
  2939   6 C     3170   1 H                                       1.0912268
  2938   6 C     3171   1 H                                       1.0918315
  2938   6 C     3172   1 H                                       1.0923426
  2937   6 C     3173   1 H                                       1.0946481
  2937   6 C     3174   1 H                                       1.0937331
  2936   6 C     3175   1 H                                       1.0917722
  2936   6 C     3176   1 H                                       1.0923990
  2935   6 C     3177   1 H                                       1.0935764
  2935   6 C     3178   1 H                                       1.0934205
  2934   6 C     3179   1 H                                       1.0938167
  2934   6 C     3180   1 H                                       1.0916764
  2933   6 C     3181   1 H                                       1.0930114
  2933   6 C     3182   1 H                                       1.0921955
  2932   6 C     3183   1 H                                       1.0920620
  2932   6 C     3184   1 H                                       1.0914189
  2931   6 C     3185   1 H                                       1.0930339
  2931   6 C     3186   1 H                                       1.0939413
  2930   6 C     3187   1 H                                       1.0936677
  2930   6 C     3188   1 H                                       1.0917738
  2929   6 C     3189   1 H                                       1.0932117
  2929   6 C     3190   1 H                                       1.0932699
  2928   6 C     3191   1 H                                       1.0923120
  2928   6 C     3192   1 H                                       1.0915485
  2927   6 C     3193   1 H                                       1.0907849
  2927   6 C     3194   1 H                                       1.0925572
  2926   6 C     3195   1 H                                       1.0934939
  2926   6 C     3196   1 H                                       1.0932763
  2925   6 C     3197   1 H                                       1.0929796
  2925   6 C     3198   1 H                                       1.0922711
  2924   6 C     3199   1 H                                       1.0890036
  2924   6 C     3200   1 H                                       1.0923199
  2923   6 C     3201   1 H                                       1.0940012
  2923   6 C     3202   1 H                                       1.0920943
  2922   6 C     3203   1 H                                       1.0934599
  2922   6 C     3204   1 H                                       1.0935358
  2921   6 C     3205   1 H                                       1.0915309
  2921   6 C     3206   1 H                                       1.0935838
  2920   6 C     3207   1 H                                       1.0931635
  2920   6 C     3208   1 H                                       1.0906699
  2919   6 C     3209   1 H                                       1.0924773
  2919   6 C     3210   1 H                                       1.0931953
  2918   6 C     3211   1 H                                       1.0934570
  2918   6 C     3212   1 H                                       1.0926028
  2917   6 C     3213   1 H                                       1.0918959
  2917   6 C     3214   1 H                                       1.0931667
  2916   6 C     3215   1 H                                       1.0933714
  2916   6 C     3216   1 H                                       1.0931314
  2915   6 C     3217   1 H                                       1.0919660
  2915   6 C     3218   1 H                                       1.0930334
  2914   6 C     3219   1 H                                       1.0928506
  2914   6 C     3220   1 H                                       1.0929357
  2913   6 C     3221   1 H                                       1.0923561
  2913   6 C     3222   1 H                                       1.0930692
  2912   6 C     3223   1 H                                       1.0925856
  2912   6 C     3224   1 H                                       1.0924146
  2911   6 C     3225   1 H                                       1.0925016
  2911   6 C     3226   1 H                                       1.0931085
  2910   6 C     3227   1 H                                       1.0928999
  2910   6 C     3228   1 H                                       1.0920068
  2909   6 C     3229   1 H                                       1.0913154
  2909   6 C     3230   1 H                                       1.0931469
  2908   6 C     3231   1 H                                       1.0934610
  2908   6 C     3232   1 H                                       1.0924475
  2907   6 C     3233   1 H                                       1.0930825
  2907   6 C     3234   1 H                                       1.0935886
  2906   6 C     3235   1 H                                       1.0929640
  2906   6 C     3236   1 H                                       1.0916957
  2905   6 C     3237   1 H                                       1.0920536
  2905   6 C     3238   1 H                                       1.0935069
  2904   6 C     3239   1 H                                       1.0916164
  2904   6 C     3240   1 H                                       1.0905209
  2903   6 C     3241   1 H                                       1.0941032
  2903   6 C     3242   1 H                                       1.0918949
  2902   6 C     3243   1 H                                       1.0928675
  2902   6 C     3244   1 H                                       1.0924061
  2901   6 C     3245   1 H                                       1.0916848
  2901   6 C     3246   1 H                                       1.0940632
  2900   6 C     3247   1 H                                       1.0909582
  2900   6 C     3248   1 H                                       1.0936524
  2899   6 C     3249   1 H                                       1.0933829
  2899   6 C     3250   1 H                                       1.0925632
  2898   6 C     3251   1 H                                       1.0911422
  2898   6 C     3252   1 H                                       1.0926986
  2897   6 C     3253   1 H                                       1.0882084
  2897   6 C     3254   1 H                                       1.0882950
  2897   6 C     3255   1 H                                       1.0876428
  3016   6 C     3256   1 H                                       1.0873438
  3016   6 C     3257   1 H                                       1.0885278
  3016   6 C     3258   1 H                                       1.0877539

 * 2 distinct bonds (by element types)

   Z      Z             #   av. dist./Å        max./Å        min./Å
   1 H    6 C        2178     1.0925703     1.0946481     1.0865097
   6 C    6 C        1071     1.5271992     1.5360619     1.5224855


optimized geometry written to: xtbopt.xyz


           -------------------------------------------------
          | TOTAL ENERGY            -3427.542657925403 Eh   |
          | GRADIENT NORM               0.000761446870 Eh/α |
          | HOMO-LUMO GAP              11.172921535879 eV   |
           -------------------------------------------------

------------------------------------------------------------------------
 * finished run on 2024/06/21 at 09:24:58.809     
------------------------------------------------------------------------
 total:
 * wall-time:     3 d, 18 h,  7 min, 22.160 sec
 *  cpu-time:    19 d,  9 h, 43 min, 56.456 sec
 * ratio c/w:     5.168 speedup
 SCF:
 * wall-time:     0 d,  0 h,  7 min, 35.653 sec
 *  cpu-time:     0 d,  0 h, 39 min,  6.772 sec
 * ratio c/w:     5.150 speedup
 ANC optimizer:
 * wall-time:     3 d, 17 h, 59 min,  0.550 sec
 *  cpu-time:    19 d,  9 h,  3 min, 46.488 sec
 * ratio c/w:     5.168 speedup

