      -----------------------------------------------------------      
     |                   =====================                   |     
     |                           x T B                           |     
     |                   =====================                   |     
     |                         S. Grimme                         |     
     |          Mulliken Center for Theoretical Chemistry        |     
     |                    University of Bonn                     |     
      -----------------------------------------------------------      

   * xtb version 6.6.1 (8d0f1dd) compiled by 'stahn@M-Bot' on 2023-08-01

   xtb is free software: you can redistribute it and/or modify it under
   the terms of the GNU Lesser General Public License as published by
   the Free Software Foundation, either version 3 of the License, or
   (at your option) any later version.
   
   xtb is distributed in the hope that it will be useful,
   but WITHOUT ANY WARRANTY; without even the implied warranty of
   MERCHANTABILITY or FITNESS FOR A PARTICULAR PURPOSE.  See the
   GNU Lesser General Public License for more details.
   
   Cite this work as:
   * C. Bannwarth, E. Caldeweyher, S. Ehlert, A. Hansen, P. Pracht,
     J. Seibert, S. Spicher, S. Grimme, WIREs Comput. Mol. Sci., 2020, 11,
     e01493. DOI: 10.1002/wcms.1493
   
   for GFN2-xTB:
   * C. Bannwarth, S. Ehlert and S. Grimme., J. Chem. Theory Comput., 2019,
     15, 1652-1671. DOI: 10.1021/acs.jctc.8b01176
   for GFN1-xTB:
   * S. Grimme, C. Bannwarth, P. Shushkov, J. Chem. Theory Comput., 2017,
     13, 1989-2009. DOI: 10.1021/acs.jctc.7b00118
   for GFN0-xTB:
   * P. Pracht, E. Caldeweyher, S. Ehlert, S. Grimme, ChemRxiv, 2019, preprint.
     DOI: 10.26434/chemrxiv.8326202.v1
   for GFN-FF:
   * S. Spicher and S. Grimme, Angew. Chem. Int. Ed., 2020, 59, 15665-15673.
     DOI: 10.1002/anie.202004239
   
   for ALPB and GBSA implicit solvation:
   * S. Ehlert, M. Stahn, S. Spicher, S. Grimme, J. Chem. Theory Comput.,
     2021, 17, 4250-4261. DOI: 10.1021/acs.jctc.1c00471
   
   for DFT-D4:
   * E. Caldeweyher, C. Bannwarth and S. Grimme, J. Chem. Phys., 2017,
     147, 034112. DOI: 10.1063/1.4993215
   * E. Caldeweyher, S. Ehlert, A. Hansen, H. Neugebauer, S. Spicher,
     C. Bannwarth and S. Grimme, J. Chem. Phys., 2019, 150, 154122.
     DOI: 10.1063/1.5090222
   * E. Caldeweyher, J.-M. Mewes, S. Ehlert and S. Grimme, Phys. Chem. Chem. Phys.
     2020, 22, 8499-8512. DOI: 10.1039/D0CP00502A
   
   for sTDA-xTB:
   * S. Grimme and C. Bannwarth, J. Chem. Phys., 2016, 145, 054103.
     DOI: 10.1063/1.4959605
   
   in the mass-spec context:
   * V. Asgeirsson, C. Bauer and S. Grimme, Chem. Sci., 2017, 8, 4879.
     DOI: 10.1039/c7sc00601b
   * J. Koopman and S. Grimme, ACS Omega 2019, 4, 12, 15120-15133.
     DOI: 10.1021/acsomega.9b02011
   
   for metadynamics refer to:
   * S. Grimme, J. Chem. Theory Comput., 2019, 155, 2847-2862
     DOI: 10.1021/acs.jctc.9b00143
   
   for SPH calculations refer to:
   * S. Spicher and S. Grimme, J. Chem. Theory Comput., 2021, 17, 1701-1714
     DOI: 10.1021/acs.jctc.0c01306
   
   with help from (in alphabetical order)
   P. Atkinson, C. Bannwarth, F. Bohle, G. Brandenburg, E. Caldeweyher
   M. Checinski, S. Dohm, S. Ehlert, S. Ehrlich, I. Gerasimov, C. Hölzer
   A. Katbashev, J. Koopman, C. Lavigne, S. Lehtola, F. März, M. Müller,
   F. Musil, H. Neugebauer, J. Pisarek, C. Plett, P. Pracht, F. Pultar,
   J. Seibert, P. Shushkov, S. Spicher, M. Stahn, M. Steiner, T. Strunk,
   J. Stückrath, T. Rose, and J. Unsleber
   
 * started run on 2024/06/17 at 15:18:45.942     

           -------------------------------------------------
          |                Calculation Setup                |
           -------------------------------------------------

          program call               : /home/abt-grimme/AK-bin/xtb input.xyz --input input.inp --opt --gbsa water
          hostname                   : boar042.thch.uni-bonn.de
          coordinate file            : input.xyz
          omp threads                :                     8

   ID    Z sym.   atoms
    1    6 C      1-120, 363-482, 725-844, 1087-1206, 1449-1568, 1811-1930,
                  2173-2292, 2535-2654, 2897-3016
    2    1 H      121-362, 483-724, 845-1086, 1207-1448, 1569-1810,
                  1931-2172, 2293-2534, 2655-2896, 3017-3258

molecular fragmentation (1/2 indicates fragments):
111111111111111111111111111111111111111111111111111111111111111111111111
111111111111111111111111111111111111111111111111111111111111111111111111
111111111111111111111111111111111111111111111111111111111111111111111111
111111111111111111111111111111111111111111111111111111111111111111111111
111111111111111111111111111111111111111111111111111111111111111111111111
112222222222222222222222222222222222222222222222222222222222222222222222
222222222222222222222222222222222222222222222222222222222222222222222222
222222222222222222222222222222222222222222222222222222222222222222222222
222222222222222222222222222222222222222222222222222222222222222222222222
222222222222222222222222222222222222222222222222222222222222222222222222
222222222222222222222222222222222222222222222222222222222222222222222222
222222222222222222222222222222222222222222222222222222222222222222222222
222222222222222222222222222222222222222222222222222222222222222222222222
222222222222222222222222222222222222222222222222222222222222222222222222
222222222222222222222222222222222222222222222222222222222222222222222222
222222222222222222222222222222222222222222222222222222222222222222222222
222222222222222222222222222222222222222222222222222222222222222222222222
222222222222222222222222222222222222222222222222222222222222222222222222
222222222222222222222222222222222222222222222222222222222222222222222222
222222222222222222222222222222222222222222222222222222222222222222222222
222222222222222222222222222222222222222222222222222222222222222222222222
222222222222222222222222222222222222222222222222222222222222222222222222
222222222222222222222222222222222222222222222222222222222222222222222222
222222222222222222222222222222222222222222222222222222222222222222222222
222222222222222222222222222222222222222222222222222222222222222222222222
222222222222222222222222222222222222222222222222222222222222222222222222
222222222222222222222222222222222222222222222222222222222222222222222222
222222222222222222222222222222222222222222222222222222222222222222222222
222222222222222222222222222222222222222222222222222222222222222222222222
222222222222222222222222222222222222222222222222222222222222222222222222
222222222222222222222222222222222222222222222222222222222222222222222222
222222222222222222222222222222222222222222222222222222222222222222222222
222222222222222222222222222222222222222222222222222222222222222222222222
222222222222222222222222222222222222222222222222222222222222222222222222
222222222222222222222222222222222222222222222222222222222222222222222222
222222222222222222222222222222222222222222222222222222222222222222222222
222222222222222222222222222222222222222222222222222222222222222222222222
222222222222222222222222222222222222222222222222222222222222222222222222
222222222222222222222222222222222222222222222222222222222222222222222222
222222222222222222222222222222222222222222222222222222222222222222222222
222222222222222222222222222222222222222222222222222222222222222222222222
222222222222222222222222222222222222222222222222222222222222222222222222
222222222222222222222222222222222222222222222222222222222222222222222222
222222222222222222222222222222222222222222222222222222222222222222222222
222222222222222222222222222222222222222222222222222222222222222222222222
222222222222222222
# atoms in fragment 1/2:   362  2896
 fragment masses (1/2) :     1685.21    13481.68
CMA distance (Bohr)    :  13.061
constraining FC (au)   :  0.0500

           -------------------------------------------------
          |                 G F N 2 - x T B                 |
           -------------------------------------------------

        Reference                      10.1021/acs.jctc.8b01176
      * Hamiltonian:
        H0-scaling (s, p, d)           1.850000    2.230000    2.230000
        zeta-weighting                 0.500000
      * Dispersion:
        s8                             2.700000
        a1                             0.520000
        a2                             5.000000
        s9                             5.000000
      * Repulsion:
        kExp                           1.500000    1.000000
        rExp                           1.000000
      * Coulomb:
        alpha                          2.000000
        third order                    shell-resolved
        anisotropic                    true
        a3                             3.000000
        a5                             4.000000
        cn-shift                       1.200000
        cn-exp                         4.000000
        max-rad                        5.000000

      * Solvation model:               GBSA
        Solvent                        water
        Parameter file                 internal GFN2-xTB/GBSA
        Dielectric constant                8.0200E+01
        Reference state                gsolv [1 M gas/solution]
        Free energy shift                  1.8574E-03 Eh       1.1656E+00 kcal/mol
        Temperature                        2.9815E+02 K
        Density                            1.0000E+00 kg/L
        Solvent mass                       1.8000E+01 g/mol
        Interaction kernel             Still
        Born radius scaling (c1)           1.5524E+00
        Born radii integrator          GBOBC
        Born offset                        2.4628E-02 a0       4.6540E-02 AA
        H-bond correction              true
        Ion screening                  false
        Surface tension                    1.0000E-05 Eh       1.5569E+01 dyn/cm
        Grid points                               230 per atom
q/qsh data taken from xtbrestart
CAMM data taken from xtbrestart

          ...................................................
          :                      SETUP                      :
          :.................................................:
          :  # basis functions                6498          :
          :  # atomic orbitals                6498          :
          :  # shells                         4338          :
          :  # electrons                      6498          :
          :  max. iterations                   250          :
          :  Hamiltonian                  GFN2-xTB          :
          :  restarted?                       true          :
          :  GBSA solvation                   true          :
          :  PC potential                    false          :
          :  electronic temp.          300.0000000     K    :
          :  accuracy                    1.0000000          :
          :  -> integral cutoff          0.2500000E+02      :
          :  -> integral neglect         0.1000000E-07      :
          :  -> SCF convergence          0.1000000E-05 Eh   :
          :  -> wf. convergence          0.1000000E-03 e    :
          :  Broyden damping             0.4000000          :
          ...................................................

 iter      E             dE          RMSdq      gap      omega  full diag
   1  -3472.4531648 -0.347245E+04  0.118E-04   10.52       0.0  T
   2  -3472.4531648 -0.112063E-07  0.950E-05   10.52      18.4  T
   3  -3472.4531648 -0.176306E-07  0.509E-05   10.52      34.4  T

   *** convergence criteria satisfied after 3 iterations ***

         #    Occupation            Energy/Eh            Energy/eV
      -------------------------------------------------------------
         1        2.0000           -0.6160343             -16.7631
       ...           ...                  ...                  ...
      3243        2.0000           -0.3809113             -10.3651
      3244        2.0000           -0.3805803             -10.3561
      3245        2.0000           -0.3802069             -10.3460
      3246        2.0000           -0.3796753             -10.3315
      3247        2.0000           -0.3786027             -10.3023
      3248        2.0000           -0.3775351             -10.2733
      3249        2.0000           -0.3761846             -10.2365 (HOMO)
      3250                          0.0103053               0.2804 (LUMO)
      3251                          0.0121972               0.3319
      3252                          0.0154491               0.4204
      3253                          0.0160389               0.4364
      3254                          0.0172107               0.4683
       ...                                ...                  ...
      6498                          0.3971420              10.8068
      -------------------------------------------------------------
                  HL-Gap            0.3864899 Eh           10.5169 eV
             Fermi-level           -0.1829396 Eh           -4.9780 eV

 SCC (total)                   0 d,  0 h,  7 min, 21.531 sec
 SCC setup                      ...        0 min,  1.730 sec (  0.392%)
 Dispersion                     ...        0 min,  3.624 sec (  0.821%)
 classical contributions        ...        0 min,  0.148 sec (  0.033%)
 integral evaluation            ...        0 min,  5.888 sec (  1.333%)
 iterations                     ...        3 min, 16.226 sec ( 44.442%)
 molecular gradient             ...        3 min, 45.395 sec ( 51.048%)
 printout                       ...        0 min,  8.522 sec (  1.930%)

         :::::::::::::::::::::::::::::::::::::::::::::::::::::
         ::                     SUMMARY                     ::
         :::::::::::::::::::::::::::::::::::::::::::::::::::::
         :: total energy           -3426.912905917911 Eh    ::
         :: total w/o Gsasa/hb     -3426.823377599604 Eh    ::
         :: gradient norm              0.638863250212 Eh/a0 ::
         :: HOMO-LUMO gap             10.516924222615 eV    ::
         ::.................................................::
         :: SCC energy             -3472.453164804831 Eh    ::
         :: -> isotropic ES            0.283063499296 Eh    ::
         :: -> anisotropic ES          1.268423866472 Eh    ::
         :: -> anisotropic XC          2.129120734834 Eh    ::
         :: -> dispersion             -4.369058420459 Eh    ::
         :: -> Gsolv                  -0.031906343677 Eh    ::
         ::    -> Gelec                0.057621974629 Eh    ::
         ::    -> Gsasa               -0.087738665110 Eh    ::
         ::    -> Ghb                 -0.003647096323 Eh    ::
         ::    -> Gshift               0.001857443127 Eh    ::
         :: repulsion energy          44.799518626822 Eh    ::
         :: add. restraining           0.000000000000 Eh    ::
         :: total charge              -0.000000000008 e     ::
         :::::::::::::::::::::::::::::::::::::::::::::::::::::

      ----------------------------------------------------------- 
     |              Fast Inertial Relaxation Engine              |
      ----------------------------------------------------------- 

          ...................................................
          :                      SETUP                      :
          :.................................................:
          :   energy convergence        0.5000000E-05 Eh    :
          :   grad. convergence         0.1000000E-02 Eh/a0 :
          :   optimization log               true           :
          :   writing optlog all                1     steps :
          :   Hessian reset                    20     steps :
          :   time step scaling                 5     steps :
          :   maximium step len.        1.0000000     a0    :
          :   initial time step         0.2500000     fs    :
          :   maximum time step         1.2500000     fs    :
          :   power reset thr           0.0000000     au    :
          :   alpha parameter           0.1000000           :
          :   BFGS update                   false           :
          :   preconditioning               false           :
          ...................................................

........................................................................
.............................. CYCLE    1 ..............................
........................................................................

 iter      E             dE          RMSdq      gap      omega  full diag
   1  -3472.6894817 -0.347269E+04  0.767E-03   10.55       0.0  T
   2  -3472.6895276 -0.459144E-04  0.402E-03   10.55       1.0  T
   3  -3472.6895280 -0.449370E-06  0.187E-03   10.55       1.0  T
   4  -3472.6895282 -0.179384E-06  0.238E-04   10.55       7.3  T
   5  -3472.6895283 -0.470204E-07  0.157E-04   10.55      11.2  T
     SCC iter.                  ...        4 min, 59.712 sec
     gradient                   ...        3 min, 46.610 sec
 * total energy  : -3426.9593909 Eh     change    :  -0.4648500E-01 Eh
   gradient norm :     0.6045480 Eh/a0  converged?    E=F G=F D=F
   time step     :     0.2500000 fs     power     :   0.2397495E-05
   step length   :     0.0748734 a0     speed     :   0.7244405E-02

........................................................................
.............................. CYCLE    2 ..............................
........................................................................

 iter      E             dE          RMSdq      gap      omega  full diag
   1  -3473.0374785 -0.347304E+04  0.112E-02   10.61       0.0  T
   2  -3473.0375765 -0.980146E-04  0.589E-03   10.61       1.0  T
   3  -3473.0375775 -0.102261E-05  0.273E-03   10.61       1.0  T
   4  -3473.0375779 -0.422187E-06  0.364E-04   10.60       4.8  T
   5  -3473.0375780 -0.107516E-06  0.245E-04   10.60       7.2  T
     SCC iter.                  ...        4 min, 54.032 sec
     gradient                   ...        3 min, 43.819 sec
 * total energy  : -3427.0231812 Eh     change    :  -0.6379025E-01 Eh
   gradient norm :     0.5544072 Eh/a0  converged?    E=F G=F D=F
   time step     :     0.2500000 fs     power     :   0.3234622E-05
   step length   :     0.1102440 a0     speed     :   0.1066670E-01

........................................................................
.............................. CYCLE    3 ..............................
........................................................................

 iter      E             dE          RMSdq      gap      omega  full diag
   1  -3473.4878455 -0.347349E+04  0.144E-02   10.66       0.0  T
   2  -3473.4880045 -0.159044E-03  0.754E-03   10.66       1.0  T
   3  -3473.4880063 -0.175283E-05  0.347E-03   10.66       1.0  T
   4  -3473.4880070 -0.715410E-06  0.476E-04   10.66       3.7  T
   5  -3473.4880071 -0.178883E-06  0.321E-04   10.66       5.5  T
     SCC iter.                  ...        4 min, 55.366 sec
     gradient                   ...        3 min, 44.400 sec
 * total energy  : -3427.0975123 Eh     change    :  -0.7433110E-01 Eh
   gradient norm :     0.4919181 Eh/a0  converged?    E=F G=F D=F
   time step     :     0.2500000 fs     power     :   0.3694603E-05
   step length   :     0.1426430 a0     speed     :   0.1380148E-01

........................................................................
.............................. CYCLE    4 ..............................
........................................................................

 iter      E             dE          RMSdq      gap      omega  full diag
   1  -3474.0288035 -0.347403E+04  0.170E-02   10.71       0.0  T
   2  -3474.0290221 -0.218563E-03  0.891E-03   10.70       1.0  T
   3  -3474.0290246 -0.258452E-05  0.406E-03   10.70       1.0  T
   4  -3474.0290257 -0.102079E-05  0.575E-04   10.70       3.0  T
   5  -3474.0290259 -0.248824E-06  0.386E-04   10.70       4.5  T
   6  -3474.0290261 -0.156772E-06  0.184E-04   10.70       9.5  T
     SCC iter.                  ...        5 min, 57.698 sec
     gradient                   ...        3 min, 43.568 sec
 * total energy  : -3427.1748112 Eh     change    :  -0.7729892E-01 Eh
   gradient norm :     0.4219136 Eh/a0  converged?    E=F G=F D=F
   time step     :     0.2500000 fs     power     :   0.3749901E-05
   step length   :     0.1712104 a0     speed     :   0.1656553E-01

........................................................................
.............................. CYCLE    5 ..............................
........................................................................

 iter      E             dE          RMSdq      gap      omega  full diag
   1  -3474.6462618 -0.347465E+04  0.189E-02   10.71       0.0  T
   2  -3474.6465270 -0.265180E-03  0.995E-03   10.71       1.0  T
   3  -3474.6465303 -0.337815E-05  0.447E-03   10.71       1.0  T
   4  -3474.6465316 -0.122577E-05  0.645E-04   10.71       2.7  T
   5  -3474.6465319 -0.292242E-06  0.424E-04   10.71       4.1  T
   6  -3474.6465320 -0.167337E-06  0.192E-04   10.71       9.1  T
     SCC iter.                  ...        5 min, 58.613 sec
     gradient                   ...        3 min, 44.440 sec
 * total energy  : -3427.2477972 Eh     change    :  -0.7298597E-01 Eh
   gradient norm :     0.3510813 Eh/a0  converged?    E=F G=F D=F
   time step     :     0.2500000 fs     power     :   0.3430106E-05
   step length   :     0.1952097 a0     speed     :   0.1888759E-01

........................................................................
.............................. CYCLE    6 ..............................
........................................................................

 iter      E             dE          RMSdq      gap      omega  full diag
   1  -3475.3975632 -0.347540E+04  0.224E-02   10.71       0.0  T
   2  -3475.3979167 -0.353474E-03  0.118E-02   10.71       1.0  T
   3  -3475.3979219 -0.517195E-05  0.515E-03   10.71       1.0  T
   4  -3475.3979236 -0.171903E-05  0.781E-04   10.71       2.2  T
   5  -3475.3979240 -0.381689E-06  0.506E-04   10.71       3.5  T
   6  -3475.3979242 -0.212112E-06  0.215E-04   10.70       8.2  T
     SCC iter.                  ...        5 min, 54.665 sec
     gradient                   ...        3 min, 48.033 sec
 * total energy  : -3427.3164971 Eh     change    :  -0.6869999E-01 Eh
   gradient norm :     0.2840349 Eh/a0  converged?    E=F G=F D=F
   time step     :     0.2750000 fs     power     :   0.2749783E-05
   step length   :     0.2374806 a0     speed     :   0.2088866E-01

........................................................................
.............................. CYCLE    7 ..............................
........................................................................

 iter      E             dE          RMSdq      gap      omega  full diag
   1  -3476.2763914 -0.347628E+04  0.254E-02   10.71       0.0  T
   2  -3476.2768031 -0.411703E-03  0.134E-02   10.71       1.0  T
   3  -3476.2768106 -0.754472E-05  0.557E-03   10.71       1.0  T
   4  -3476.2768128 -0.222215E-05  0.916E-04   10.70       1.9  T
   5  -3476.2768133 -0.436543E-06  0.583E-04   10.70       3.0  T
   6  -3476.2768135 -0.242468E-06  0.226E-04   10.70       7.8  T
     SCC iter.                  ...        5 min, 50.459 sec
     gradient                   ...        3 min, 45.593 sec
 * total energy  : -3427.3726931 Eh     change    :  -0.5619594E-01 Eh
   gradient norm :     0.2421090 Eh/a0  converged?    E=F G=F D=F
   time step     :     0.3025000 fs     power     :   0.1817765E-05
   step length   :     0.2791006 a0     speed     :   0.2231776E-01

........................................................................
.............................. CYCLE    8 ..............................
........................................................................

 iter      E             dE          RMSdq      gap      omega  full diag
   1  -3477.2442790 -0.347724E+04  0.277E-02   10.70       0.0  T
   2  -3477.2446676 -0.388606E-03  0.148E-02   10.70       1.0  T
   3  -3477.2446778 -0.101849E-04  0.544E-03   10.70       1.0  T
   4  -3477.2446802 -0.246603E-05  0.102E-03   10.70       1.7  T
   5  -3477.2446806 -0.395123E-06  0.630E-04   10.70       2.8  T
   6  -3477.2446809 -0.225662E-06  0.211E-04   10.70       8.3  T
     SCC iter.                  ...        5 min, 52.146 sec
     gradient                   ...        3 min, 45.658 sec
 * total energy  : -3427.4112453 Eh     change    :  -0.3855221E-01 Eh
   gradient norm :     0.2400260 Eh/a0  converged?    E=F G=F D=F
   time step     :     0.3327500 fs     power     :   0.8933276E-06
   step length   :     0.3138328 a0     speed     :   0.2281368E-01

........................................................................
.............................. CYCLE    9 ..............................
........................................................................

 iter      E             dE          RMSdq      gap      omega  full diag
   1  -3478.2231923 -0.347822E+04  0.296E-02   10.70       0.0  T
   2  -3478.2234636 -0.271384E-03  0.163E-02   10.70       1.0  T
   3  -3478.2234760 -0.123841E-04  0.449E-03   10.70       1.0  T
   4  -3478.2234782 -0.215927E-05  0.106E-03   10.69       1.7  T
   5  -3478.2234784 -0.248693E-06  0.617E-04   10.69       2.8  T
   6  -3478.2234786 -0.158196E-06  0.164E-04   10.69      10.7  T
     SCC iter.                  ...        5 min, 51.781 sec
     gradient                   ...        3 min, 46.596 sec
 * total energy  : -3427.4334080 Eh     change    :  -0.2216271E-01 Eh
   gradient norm :     0.2559677 Eh/a0  converged?    E=F G=F D=F
   time step     :     0.3660250 fs     power     :   0.2403286E-06
   step length   :     0.3361847 a0     speed     :   0.2221684E-01

........................................................................
.............................. CYCLE   10 ..............................
........................................................................

 iter      E             dE          RMSdq      gap      omega  full diag
   1  -3479.1193519 -0.347912E+04  0.321E-02   10.69       0.0  T
   2  -3479.1194771 -0.125163E-03  0.183E-02   10.69       1.0  T
   3  -3479.1194906 -0.134814E-04  0.278E-03   10.69       1.0  T
   4  -3479.1194921 -0.147442E-05  0.105E-03   10.69       1.7  T
   5  -3479.1194921 -0.788659E-07  0.526E-04   10.69       3.3  T
   6  -3479.1194922 -0.844780E-07  0.940E-05   10.69      18.6  T
     SCC iter.                  ...        5 min, 52.728 sec
     gradient                   ...        3 min, 44.251 sec
 * total energy  : -3427.4443656 Eh     change    :  -0.1095758E-01 Eh
   gradient norm :     0.2553225 Eh/a0  converged?    E=F G=F D=F
   time step     :     0.4026275 fs     power     :  -0.1260740E-06
   step length   :     0.3480172 a0     speed     :   0.2090799E-01

........................................................................
.............................. CYCLE   11 ..............................
........................................................................
 * reset velocities

 iter      E             dE          RMSdq      gap      omega  full diag
   1  -3479.1018262 -0.347910E+04  0.124E-03   10.69       0.0  T
   2  -3479.1018271 -0.818623E-06  0.704E-04   10.69       2.5  T
   3  -3479.1018271 -0.486716E-08  0.271E-04   10.69       6.5  T
     SCC iter.                  ...        2 min, 57.195 sec
     gradient                   ...        3 min, 45.629 sec
 * total energy  : -3427.4468071 Eh     change    :  -0.2441515E-02 Eh
   gradient norm :     0.2480180 Eh/a0  converged?    E=F G=F D=F
   time step     :     0.2013138 fs     power     :   0.1586004E-06
   step length   :     0.0097017 a0     speed     :   0.1165702E-02

........................................................................
.............................. CYCLE   12 ..............................
........................................................................

 iter      E             dE          RMSdq      gap      omega  full diag
   1  -3479.0669414 -0.347907E+04  0.243E-03   10.69       0.0  T
   2  -3479.0669446 -0.316279E-05  0.139E-03   10.69       1.3  T
   3  -3479.0669446 -0.185923E-07  0.533E-04   10.69       3.3  T
   4  -3479.0669446 -0.102846E-07  0.481E-05   10.69      36.4  T
     SCC iter.                  ...        3 min, 56.288 sec
     gradient                   ...        3 min, 44.426 sec
 * total energy  : -3427.4514136 Eh     change    :  -0.4606516E-02 Eh
   gradient norm :     0.2337021 Eh/a0  converged?    E=F G=F D=F
   time step     :     0.2013138 fs     power     :   0.2945912E-06
   step length   :     0.0191257 a0     speed     :   0.2298046E-02

........................................................................
.............................. CYCLE   13 ..............................
........................................................................

 iter      E             dE          RMSdq      gap      omega  full diag
   1  -3479.0157256 -0.347902E+04  0.355E-03   10.69       0.0  T
   2  -3479.0157324 -0.685092E-05  0.202E-03   10.69       1.0  T
   3  -3479.0157325 -0.490600E-07  0.787E-04   10.69       2.2  T
   4  -3479.0157325 -0.293453E-07  0.825E-05   10.69      21.2  T
     SCC iter.                  ...        3 min, 53.752 sec
     gradient                   ...        3 min, 44.568 sec
 * total energy  : -3427.4576656 Eh     change    :  -0.6251957E-02 Eh
   gradient norm :     0.2128414 Eh/a0  converged?    E=F G=F D=F
   time step     :     0.2013138 fs     power     :   0.3927433E-06
   step length   :     0.0280052 a0     speed     :   0.3364961E-02

........................................................................
.............................. CYCLE   14 ..............................
........................................................................

 iter      E             dE          RMSdq      gap      omega  full diag
   1  -3478.9495043 -0.347895E+04  0.457E-03   10.69       0.0  T
   2  -3478.9495157 -0.113965E-04  0.260E-03   10.69       1.0  T
   3  -3478.9495158 -0.876680E-07  0.102E-03   10.69       1.7  T
   4  -3478.9495158 -0.533869E-07  0.112E-04   10.69      15.7  T
   5  -3478.9495158 -0.147702E-07  0.785E-05   10.69      22.3  T
     SCC iter.                  ...        4 min, 54.143 sec
     gradient                   ...        3 min, 45.002 sec
 * total energy  : -3427.4648617 Eh     change    :  -0.7196108E-02 Eh
   gradient norm :     0.1861633 Eh/a0  converged?    E=F G=F D=F
   time step     :     0.2013138 fs     power     :   0.4422948E-06
   step length   :     0.0360897 a0     speed     :   0.4336359E-02

........................................................................
.............................. CYCLE   15 ..............................
........................................................................

 iter      E             dE          RMSdq      gap      omega  full diag
   1  -3478.8700429 -0.347887E+04  0.544E-03   10.69       0.0  T
   2  -3478.8700592 -0.162948E-04  0.310E-03   10.69       1.0  T
   3  -3478.8700593 -0.116794E-06  0.121E-03   10.69       1.4  T
   4  -3478.8700594 -0.697041E-07  0.127E-04   10.69      13.8  T
   5  -3478.8700594 -0.195860E-07  0.878E-05   10.69      19.9  T
     SCC iter.                  ...        4 min, 50.466 sec
     gradient                   ...        3 min, 45.632 sec
 * total energy  : -3427.4722028 Eh     change    :  -0.7341082E-02 Eh
   gradient norm :     0.1547158 Eh/a0  converged?    E=F G=F D=F
   time step     :     0.2013138 fs     power     :   0.4383901E-06
   step length   :     0.0431534 a0     speed     :   0.5185090E-02

........................................................................
.............................. CYCLE   16 ..............................
........................................................................

 iter      E             dE          RMSdq      gap      omega  full diag
   1  -3478.7795388 -0.347878E+04  0.614E-03   10.69       0.0  T
   2  -3478.7795598 -0.209703E-04  0.350E-03   10.69       1.0  T
   3  -3478.7795599 -0.149431E-06  0.138E-03   10.69       1.3  T
   4  -3478.7795600 -0.892142E-07  0.144E-04   10.69      12.2  T
   5  -3478.7795601 -0.251198E-07  0.992E-05   10.69      17.7  T
     SCC iter.                  ...        4 min, 57.389 sec
     gradient                   ...        3 min, 45.554 sec
 * total energy  : -3427.4788883 Eh     change    :  -0.6685529E-02 Eh
   gradient norm :     0.1198926 Eh/a0  converged?    E=F G=F D=F
   time step     :     0.2013138 fs     power     :   0.3825511E-06
   step length   :     0.0490012 a0     speed     :   0.5887736E-02

........................................................................
.............................. CYCLE   17 ..............................
........................................................................

 iter      E             dE          RMSdq      gap      omega  full diag
   1  -3478.6698562 -0.347867E+04  0.736E-03   10.69       0.0  T
   2  -3478.6698867 -0.305208E-04  0.420E-03   10.69       1.0  T
   3  -3478.6698869 -0.213628E-06  0.166E-03   10.69       1.1  T
   4  -3478.6698870 -0.127007E-06  0.172E-04   10.69      10.2  T
   5  -3478.6698871 -0.361492E-07  0.117E-04   10.69      14.9  T
     SCC iter.                  ...        4 min, 56.178 sec
     gradient                   ...        3 min, 49.361 sec
 * total energy  : -3427.4846747 Eh     change    :  -0.5786444E-02 Eh
   gradient norm :     0.0803131 Eh/a0  converged?    E=F G=F D=F
   time step     :     0.2214451 fs     power     :   0.2704876E-06
   step length   :     0.0593057 a0     speed     :   0.6478071E-02

........................................................................
.............................. CYCLE   18 ..............................
........................................................................

 iter      E             dE          RMSdq      gap      omega  full diag
   1  -3478.5424267 -0.347854E+04  0.843E-03   10.69       0.0  T
   2  -3478.5424675 -0.407867E-04  0.481E-03   10.69       1.0  T
   3  -3478.5424678 -0.285155E-06  0.192E-03   10.69       1.0  T
   4  -3478.5424680 -0.168431E-06  0.198E-04   10.69       8.8  T
   5  -3478.5424680 -0.483765E-07  0.134E-04   10.69      13.1  T
     SCC iter.                  ...        4 min, 54.574 sec
     gradient                   ...        3 min, 45.598 sec
 * total energy  : -3427.4883494 Eh     change    :  -0.3674706E-02 Eh
   gradient norm :     0.0458502 Eh/a0  converged?    E=F G=F D=F
   time step     :     0.2435896 fs     power     :   0.1084440E-06
   step length   :     0.0692209 a0     speed     :   0.6873742E-02

........................................................................
.............................. CYCLE   19 ..............................
........................................................................

 iter      E             dE          RMSdq      gap      omega  full diag
   1  -3478.4070318 -0.347841E+04  0.880E-03   10.69       0.0  T
   2  -3478.4070774 -0.456198E-04  0.504E-03   10.69       1.0  T
   3  -3478.4070778 -0.325778E-06  0.204E-03   10.69       1.0  T
   4  -3478.4070780 -0.188439E-06  0.211E-04   10.69       8.3  T
   5  -3478.4070780 -0.549826E-07  0.140E-04   10.69      12.5  T
     SCC iter.                  ...        4 min, 57.145 sec
     gradient                   ...        3 min, 45.517 sec
 * total energy  : -3427.4889469 Eh     change    :  -0.5974880E-03 Eh
   gradient norm :     0.0541162 Eh/a0  converged?    E=F G=F D=F
   time step     :     0.2679486 fs     power     :  -0.6302629E-07
   step length   :     0.0757439 a0     speed     :   0.6837721E-02

........................................................................
.............................. CYCLE   20 ..............................
........................................................................
 * reset velocities

 iter      E             dE          RMSdq      gap      omega  full diag
   1  -3478.4082461 -0.347841E+04  0.134E-04   10.69       0.0  T
   2  -3478.4082461 -0.833143E-08  0.898E-05   10.69      19.5  T
   3  -3478.4082461 -0.633781E-08  0.437E-05   10.69      40.1  T
     SCC iter.                  ...        2 min, 57.513 sec
     gradient                   ...        3 min, 44.765 sec
 * total energy  : -3427.4889960 Eh     change    :  -0.4910860E-04 Eh
   gradient norm :     0.0537047 Eh/a0  converged?    E=F G=F D=T
   time step     :     0.1339743 fs     power     :   0.4844123E-08
   step length   :     0.0009107 a0     speed     :   0.1644272E-03
 * RMSD in coord.:     0.0346222 a0     energy gain  -0.5760901E+00 Eh

........................................................................
.............................. CYCLE   21 ..............................
........................................................................

 iter      E             dE          RMSdq      gap      omega  full diag
   1  -3478.4144181 -0.347841E+04  0.576E-04   10.69       0.0  T
   2  -3478.4144181 -0.970604E-07  0.326E-04   10.69       5.4  T
   3  -3478.4144181 -0.849923E-09  0.913E-05   10.69      19.2  T
     SCC iter.                  ...        2 min, 56.793 sec
     gradient                   ...        3 min, 43.621 sec
 * total energy  : -3427.4892514 Eh     change    :  -0.2553609E-03 Eh
   gradient norm :     0.0517255 Eh/a0  converged?    E=F G=F D=F
   time step     :     0.2500000 fs     power     :   0.1329684E-07
   step length   :     0.0048464 a0     speed     :   0.4689175E-03

........................................................................
.............................. CYCLE   22 ..............................
........................................................................

 iter      E             dE          RMSdq      gap      omega  full diag
   1  -3478.4242655 -0.347842E+04  0.939E-04   10.70       0.0  T
   2  -3478.4242657 -0.247675E-06  0.533E-04   10.70       3.3  T
   3  -3478.4242657 -0.361524E-08  0.146E-04   10.70      12.0  T
     SCC iter.                  ...        2 min, 57.203 sec
     gradient                   ...        3 min, 45.991 sec
 * total energy  : -3427.4896463 Eh     change    :  -0.3949296E-03 Eh
   gradient norm :     0.0487126 Eh/a0  converged?    E=F G=F D=F
   time step     :     0.2500000 fs     power     :   0.2029812E-07
   step length   :     0.0078762 a0     speed     :   0.7620621E-03

........................................................................
.............................. CYCLE   23 ..............................
........................................................................

 iter      E             dE          RMSdq      gap      omega  full diag
   1  -3478.4372672 -0.347844E+04  0.126E-03   10.70       0.0  T
   2  -3478.4372676 -0.432512E-06  0.715E-04   10.70       2.4  T
   3  -3478.4372676 -0.839509E-08  0.193E-04   10.70       9.1  T
     SCC iter.                  ...        2 min, 55.236 sec
     gradient                   ...        3 min, 52.383 sec
 * total energy  : -3427.4901462 Eh     change    :  -0.4998451E-03 Eh
   gradient norm :     0.0450290 Eh/a0  converged?    E=F G=F D=F
   time step     :     0.2500000 fs     power     :   0.2536043E-07
   step length   :     0.0107228 a0     speed     :   0.1037493E-02

........................................................................
.............................. CYCLE   24 ..............................
........................................................................

 iter      E             dE          RMSdq      gap      omega  full diag
   1  -3478.4526922 -0.347845E+04  0.153E-03   10.70       0.0  T
   2  -3478.4526928 -0.608061E-06  0.869E-04   10.70       2.0  T
   3  -3478.4526928 -0.141531E-07  0.229E-04   10.70       7.6  T
     SCC iter.                  ...        2 min, 58.780 sec
     gradient                   ...        3 min, 45.695 sec
 * total energy  : -3427.4907122 Eh     change    :  -0.5660654E-03 Eh
   gradient norm :     0.0411996 Eh/a0  converged?    E=F G=F D=F
   time step     :     0.2500000 fs     power     :   0.2837423E-07
   step length   :     0.0133335 a0     speed     :   0.1290085E-02

........................................................................
.............................. CYCLE   25 ..............................
........................................................................

 iter      E             dE          RMSdq      gap      omega  full diag
   1  -3478.4695990 -0.347847E+04  0.173E-03   10.70       0.0  T
   2  -3478.4695997 -0.727679E-06  0.986E-04   10.70       1.8  T
   3  -3478.4695997 -0.198456E-07  0.250E-04   10.70       7.0  T
     SCC iter.                  ...        2 min, 56.518 sec
     gradient                   ...        3 min, 44.393 sec
 * total energy  : -3427.4913097 Eh     change    :  -0.5974989E-03 Eh
   gradient norm :     0.0378644 Eh/a0  converged?    E=F G=F D=F
   time step     :     0.2500000 fs     power     :   0.2965723E-07
   step length   :     0.0156708 a0     speed     :   0.1516235E-02

........................................................................
.............................. CYCLE   26 ..............................
........................................................................

 iter      E             dE          RMSdq      gap      omega  full diag
   1  -3478.4887054 -0.347849E+04  0.206E-03   10.70       0.0  T
   2  -3478.4887063 -0.921294E-06  0.118E-03   10.70       1.5  T
   3  -3478.4887064 -0.292653E-07  0.278E-04   10.70       6.3  T
   4  -3478.4887064 -0.119308E-07  0.619E-05   10.70      28.3  T
     SCC iter.                  ...        3 min, 59.600 sec
     gradient                   ...        3 min, 46.767 sec
 * total energy  : -3427.4919795 Eh     change    :  -0.6697125E-03 Eh
   gradient norm :     0.0354547 Eh/a0  converged?    E=F G=F D=F
   time step     :     0.2750000 fs     power     :   0.2985302E-07
   step length   :     0.0197214 a0     speed     :   0.1734679E-02

........................................................................
.............................. CYCLE   27 ..............................
........................................................................

 iter      E             dE          RMSdq      gap      omega  full diag
   1  -3478.5085381 -0.347851E+04  0.234E-03   10.70       0.0  T
   2  -3478.5085391 -0.988002E-06  0.133E-03   10.70       1.3  T
   3  -3478.5085391 -0.365062E-07  0.284E-04   10.70       6.2  T
   4  -3478.5085392 -0.149830E-07  0.686E-05   10.70      25.6  T
     SCC iter.                  ...        3 min, 57.752 sec
     gradient                   ...        3 min, 45.047 sec
 * total energy  : -3427.4927184 Eh     change    :  -0.7389200E-03 Eh
   gradient norm :     0.0346934 Eh/a0  converged?    E=F G=F D=F
   time step     :     0.3025000 fs     power     :   0.2983874E-07
   step length   :     0.0242584 a0     speed     :   0.1939777E-02

........................................................................
.............................. CYCLE   28 ..............................
........................................................................

 iter      E             dE          RMSdq      gap      omega  full diag
   1  -3478.5267242 -0.347853E+04  0.252E-03   10.70       0.0  T
   2  -3478.5267251 -0.813186E-06  0.144E-03   10.70       1.2  T
   3  -3478.5267251 -0.450787E-07  0.250E-04   10.70       7.0  T
   4  -3478.5267251 -0.170012E-07  0.746E-05   10.70      23.5  T
     SCC iter.                  ...        3 min, 54.174 sec
     gradient                   ...        3 min, 45.742 sec
 * total energy  : -3427.4935521 Eh     change    :  -0.8337634E-03 Eh
   gradient norm :     0.0354480 Eh/a0  converged?    E=F G=F D=F
   time step     :     0.3327500 fs     power     :   0.3096594E-07
   step length   :     0.0293231 a0     speed     :   0.2131605E-02

........................................................................
.............................. CYCLE   29 ..............................
........................................................................

 iter      E             dE          RMSdq      gap      omega  full diag
   1  -3478.5403238 -0.347854E+04  0.261E-03   10.70       0.0  T
   2  -3478.5403243 -0.464556E-06  0.151E-03   10.70       1.2  T
   3  -3478.5403243 -0.509308E-07  0.184E-04   10.70       9.5  T
   4  -3478.5403244 -0.184814E-07  0.775E-05   10.70      22.6  T
     SCC iter.                  ...        3 min, 57.772 sec
     gradient                   ...        3 min, 44.900 sec
 * total energy  : -3427.4945440 Eh     change    :  -0.9918715E-03 Eh
   gradient norm :     0.0364066 Eh/a0  converged?    E=F G=F D=F
   time step     :     0.3660250 fs     power     :   0.3420120E-07
   step length   :     0.0351533 a0     speed     :   0.2323116E-02

........................................................................
.............................. CYCLE   30 ..............................
........................................................................

 iter      E             dE          RMSdq      gap      omega  full diag
   1  -3478.5464789 -0.347855E+04  0.271E-03   10.70       0.0  T
   2  -3478.5464791 -0.229319E-06  0.158E-03   10.70       1.1  T
   3  -3478.5464792 -0.519426E-07  0.140E-04   10.70      12.5  T
   4  -3478.5464792 -0.211244E-07  0.772E-05   10.70      22.7  T
     SCC iter.                  ...        3 min, 59.475 sec
     gradient                   ...        3 min, 47.615 sec
 * total energy  : -3427.4957742 Eh     change    :  -0.1230238E-02 Eh
   gradient norm :     0.0358197 Eh/a0  converged?    E=F G=F D=F
   time step     :     0.4026275 fs     power     :   0.3906708E-07
   step length   :     0.0422361 a0     speed     :   0.2537437E-02

........................................................................
.............................. CYCLE   31 ..............................
........................................................................

 iter      E             dE          RMSdq      gap      omega  full diag
   1  -3478.5433048 -0.347854E+04  0.297E-03   10.70       0.0  T
   2  -3478.5433053 -0.529311E-06  0.175E-03   10.70       1.0  T
   3  -3478.5433054 -0.495243E-07  0.166E-04   10.70      10.6  T
   4  -3478.5433054 -0.250820E-07  0.720E-05   10.70      24.3  T
     SCC iter.                  ...        3 min, 53.412 sec
     gradient                   ...        3 min, 45.530 sec
 * total energy  : -3427.4972830 Eh     change    :  -0.1508800E-02 Eh
   gradient norm :     0.0325702 Eh/a0  converged?    E=F G=F D=F
   time step     :     0.4428903 fs     power     :   0.4324222E-07
   step length   :     0.0511242 a0     speed     :   0.2792194E-02

........................................................................
.............................. CYCLE   32 ..............................
........................................................................

 iter      E             dE          RMSdq      gap      omega  full diag
   1  -3478.5314279 -0.347853E+04  0.345E-03   10.70       0.0  T
   2  -3478.5314294 -0.155601E-05  0.206E-03   10.70       1.0  T
   3  -3478.5314295 -0.561431E-07  0.287E-04   10.70       6.1  T
   4  -3478.5314295 -0.284608E-07  0.742E-05   10.70      23.6  T
     SCC iter.                  ...        4 min,  3.536 sec
     gradient                   ...        3 min, 45.183 sec
 * total energy  : -3427.4990084 Eh     change    :  -0.1725377E-02 Eh
   gradient norm :     0.0275091 Eh/a0  converged?    E=F G=F D=F
   time step     :     0.4871793 fs     power     :   0.4368467E-07
   step length   :     0.0621291 a0     speed     :   0.3084758E-02

........................................................................
.............................. CYCLE   33 ..............................
........................................................................

 iter      E             dE          RMSdq      gap      omega  full diag
   1  -3478.5165192 -0.347852E+04  0.402E-03   10.70       0.0  T
   2  -3478.5165218 -0.255759E-05  0.240E-03   10.70       1.0  T
   3  -3478.5165218 -0.672235E-07  0.378E-04   10.70       4.6  T
   4  -3478.5165219 -0.321675E-07  0.785E-05   10.70      22.3  T
     SCC iter.                  ...        4 min,  5.152 sec
     gradient                   ...        3 min, 47.036 sec
 * total energy  : -3427.5008017 Eh     change    :  -0.1793267E-02 Eh
   gradient norm :     0.0246631 Eh/a0  converged?    E=F G=F D=F
   time step     :     0.5358972 fs     power     :   0.3980075E-07
   step length   :     0.0750517 a0     speed     :   0.3387614E-02

........................................................................
.............................. CYCLE   34 ..............................
........................................................................

 iter      E             dE          RMSdq      gap      omega  full diag
   1  -3478.5116431 -0.347851E+04  0.443E-03   10.70       0.0  T
   2  -3478.5116450 -0.191376E-05  0.265E-03   10.70       1.0  T
   3  -3478.5116451 -0.824775E-07  0.275E-04   10.70       6.4  T
   4  -3478.5116451 -0.328478E-07  0.824E-05   10.70      21.3  T
     SCC iter.                  ...        3 min, 55.254 sec
     gradient                   ...        3 min, 45.001 sec
 * total energy  : -3427.5026020 Eh     change    :  -0.1800322E-02 Eh
   gradient norm :     0.0262318 Eh/a0  converged?    E=F G=F D=F
   time step     :     0.5894869 fs     power     :   0.3622398E-07
   step length   :     0.0888716 a0     speed     :   0.3646731E-02

........................................................................
.............................. CYCLE   35 ..............................
........................................................................

 iter      E             dE          RMSdq      gap      omega  full diag
   1  -3478.5314206 -0.347853E+04  0.492E-03   10.70       0.0  T
   2  -3478.5314210 -0.417503E-06  0.291E-03   10.70       1.0  T
   3  -3478.5314211 -0.116368E-06  0.157E-04   10.70      11.2  T
   4  -3478.5314211 -0.226655E-07  0.914E-05   10.70      19.2  T
     SCC iter.                  ...        3 min, 59.813 sec
     gradient                   ...        3 min, 45.315 sec
 * total energy  : -3427.5045562 Eh     change    :  -0.1954212E-02 Eh
   gradient norm :     0.0262281 Eh/a0  converged?    E=F G=F D=F
   time step     :     0.6484356 fs     power     :   0.3670979E-07
   step length   :     0.1030786 a0     speed     :   0.3845180E-02

........................................................................
.............................. CYCLE   36 ..............................
........................................................................

 iter      E             dE          RMSdq      gap      omega  full diag
   1  -3478.5823380 -0.347858E+04  0.594E-03   10.70       0.0  T
   2  -3478.5823394 -0.141089E-05  0.343E-03   10.70       1.0  T
   3  -3478.5823396 -0.158823E-06  0.259E-04   10.70       6.8  T
   4  -3478.5823396 -0.222135E-07  0.106E-04   10.70      16.5  T
     SCC iter.                  ...        3 min, 56.777 sec
     gradient                   ...        3 min, 46.995 sec
 * total energy  : -3427.5067260 Eh     change    :  -0.2169824E-02 Eh
   gradient norm :     0.0215440 Eh/a0  converged?    E=F G=F D=F
   time step     :     0.7132792 fs     power     :   0.3621179E-07
   step length   :     0.1194580 a0     speed     :   0.4051079E-02

........................................................................
.............................. CYCLE   37 ..............................
........................................................................

 iter      E             dE          RMSdq      gap      omega  full diag
   1  -3478.6529427 -0.347865E+04  0.683E-03   10.70       0.0  T
   2  -3478.6529464 -0.369790E-05  0.390E-03   10.70       1.0  T
   3  -3478.6529465 -0.172180E-06  0.460E-04   10.70       3.8  T
   4  -3478.6529466 -0.349874E-07  0.113E-04   10.70      15.5  T
     SCC iter.                  ...        4 min,  0.409 sec
     gradient                   ...        3 min, 43.826 sec
 * total energy  : -3427.5088669 Eh     change    :  -0.2140831E-02 Eh
   gradient norm :     0.0210900 Eh/a0  converged?    E=F G=F D=F
   time step     :     0.7846071 fs     power     :   0.3059443E-07
   step length   :     0.1388474 a0     speed     :   0.4280560E-02

........................................................................
.............................. CYCLE   38 ..............................
........................................................................

 iter      E             dE          RMSdq      gap      omega  full diag
   1  -3478.7056537 -0.347871E+04  0.637E-03   10.70       0.0  T
   2  -3478.7056548 -0.111383E-05  0.369E-03   10.70       1.0  T
   3  -3478.7056549 -0.144204E-06  0.223E-04   10.70       7.9  T
   4  -3478.7056549 -0.185437E-07  0.894E-05   10.70      19.6  T
     SCC iter.                  ...        4 min,  2.898 sec
     gradient                   ...        3 min, 43.955 sec
 * total energy  : -3427.5110366 Eh     change    :  -0.2169689E-02 Eh
   gradient norm :     0.0239944 Eh/a0  converged?    E=F G=F D=F
   time step     :     0.8630678 fs     power     :   0.2964620E-07
   step length   :     0.1582258 a0     speed     :   0.4434528E-02

........................................................................
.............................. CYCLE   39 ..............................
........................................................................

 iter      E             dE          RMSdq      gap      omega  full diag
   1  -3478.7140695 -0.347871E+04  0.586E-03   10.70       0.0  T
   2  -3478.7140715 -0.195145E-05  0.350E-03   10.70       1.0  T
   3  -3478.7140716 -0.171489E-06  0.237E-04   10.70       7.4  T
   4  -3478.7140717 -0.224231E-07  0.108E-04   10.70      16.3  T
     SCC iter.                  ...        3 min, 58.560 sec
     gradient                   ...        3 min, 44.272 sec
 * total energy  : -3427.5135503 Eh     change    :  -0.2513740E-02 Eh
   gradient norm :     0.0201832 Eh/a0  converged?    E=F G=F D=F
   time step     :     0.9493746 fs     power     :   0.3129923E-07
   step length   :     0.1794627 a0     speed     :   0.4572479E-02

........................................................................
.............................. CYCLE   40 ..............................
........................................................................

 iter      E             dE          RMSdq      gap      omega  full diag
   1  -3478.6947953 -0.347869E+04  0.594E-03   10.70       0.0  T
   2  -3478.6948007 -0.547631E-05  0.357E-03   10.70       1.0  T
   3  -3478.6948010 -0.254824E-06  0.525E-04   10.70       3.3  T
   4  -3478.6948010 -0.561890E-07  0.156E-04   10.70      11.2  T
     SCC iter.                  ...        4 min,  1.137 sec
     gradient                   ...        3 min, 44.442 sec
 * total energy  : -3427.5161855 Eh     change    :  -0.2635162E-02 Eh
   gradient norm :     0.0227226 Eh/a0  converged?    E=F G=F D=F
   time step     :     1.0443120 fs     power     :   0.2868116E-07
   step length   :     0.2057753 a0     speed     :   0.4766265E-02

........................................................................
.............................. CYCLE   41 ..............................
........................................................................

 iter      E             dE          RMSdq      gap      omega  full diag
   1  -3478.7076737 -0.347871E+04  0.649E-03   10.71       0.0  T
   2  -3478.7076745 -0.862294E-06  0.381E-03   10.71       1.0  T
   3  -3478.7076748 -0.244778E-06  0.236E-04   10.71       7.4  T
   4  -3478.7076748 -0.340610E-07  0.140E-04   10.71      12.5  T
     SCC iter.                  ...        3 min, 58.792 sec
     gradient                   ...        3 min, 45.141 sec
 * total energy  : -3427.5192892 Eh     change    :  -0.3103745E-02 Eh
   gradient norm :     0.0208896 Eh/a0  converged?    E=F G=F D=F
   time step     :     1.1487432 fs     power     :   0.3300049E-07
   step length   :     0.2336014 a0     speed     :   0.4918896E-02

........................................................................
.............................. CYCLE   42 ..............................
........................................................................

 iter      E             dE          RMSdq      gap      omega  full diag
   1  -3478.7529140 -0.347875E+04  0.831E-03   10.71       0.0  T
   2  -3478.7529185 -0.450383E-05  0.481E-03   10.71       1.0  T
   3  -3478.7529187 -0.225787E-06  0.461E-04   10.71       3.8  T
   4  -3478.7529188 -0.444743E-07  0.122E-04   10.71      14.3  T
     SCC iter.                  ...        4 min,  1.257 sec
     gradient                   ...        3 min, 44.197 sec
 * total energy  : -3427.5227153 Eh     change    :  -0.3426039E-02 Eh
   gradient norm :     0.0212766 Eh/a0  converged?    E=F G=F D=F
   time step     :     1.2500000 fs     power     :   0.3097010E-07
   step length   :     0.2665232 a0     speed     :   0.5157511E-02
 * RMSD in coord.:     0.0305224 a0     energy gain  -0.3371921E-01 Eh

........................................................................
.............................. CYCLE   43 ..............................
........................................................................

 iter      E             dE          RMSdq      gap      omega  full diag
   1  -3478.7550725 -0.347876E+04  0.130E-03   10.71       0.0  T
   2  -3478.7550725 -0.326031E-07  0.762E-04   10.71       2.3  T
   3  -3478.7550726 -0.923956E-08  0.477E-05   10.71      36.7  T
     SCC iter.                  ...        2 min, 58.839 sec
     gradient                   ...        3 min, 43.992 sec
 * total energy  : -3427.5233702 Eh     change    :  -0.6548964E-03 Eh
   gradient norm :     0.0214174 Eh/a0  converged?    E=F G=F D=F
   time step     :     0.2500000 fs     power     :   0.3421501E-07
   step length   :     0.0516667 a0     speed     :   0.4999035E-02

........................................................................
.............................. CYCLE   44 ..............................
........................................................................

 iter      E             dE          RMSdq      gap      omega  full diag
   1  -3478.7510175 -0.347875E+04  0.123E-03   10.72       0.0  T
   2  -3478.7510176 -0.142953E-06  0.724E-04   10.72       2.4  T
   3  -3478.7510176 -0.991940E-08  0.801E-05   10.72      21.9  T
     SCC iter.                  ...        3 min,  1.081 sec
     gradient                   ...        3 min, 43.208 sec
 * total energy  : -3427.5240749 Eh     change    :  -0.7047507E-03 Eh
   gradient norm :     0.0198934 Eh/a0  converged?    E=F G=F D=F
   time step     :     0.2500000 fs     power     :   0.3671426E-07
   step length   :     0.0505114 a0     speed     :   0.4887246E-02

........................................................................
.............................. CYCLE   45 ..............................
........................................................................

 iter      E             dE          RMSdq      gap      omega  full diag
   1  -3478.7424221 -0.347874E+04  0.138E-03   10.72       0.0  T
   2  -3478.7424224 -0.378866E-06  0.805E-04   10.72       2.2  T
   3  -3478.7424225 -0.121104E-07  0.159E-04   10.72      11.0  T
     SCC iter.                  ...        3 min,  1.001 sec
     gradient                   ...        3 min, 44.847 sec
 * total energy  : -3427.5247985 Eh     change    :  -0.7235971E-03 Eh
   gradient norm :     0.0176892 Eh/a0  converged?    E=F G=F D=F
   time step     :     0.2500000 fs     power     :   0.3720209E-07
   step length   :     0.0499437 a0     speed     :   0.4832324E-02

........................................................................
.............................. CYCLE   46 ..............................
........................................................................

 iter      E             dE          RMSdq      gap      omega  full diag
   1  -3478.7320158 -0.347873E+04  0.153E-03   10.72       0.0  T
   2  -3478.7320163 -0.522463E-06  0.890E-04   10.72       2.0  T
   3  -3478.7320163 -0.138143E-07  0.193E-04   10.72       9.1  T
     SCC iter.                  ...        2 min, 59.536 sec
     gradient                   ...        3 min, 44.306 sec
 * total energy  : -3427.5255067 Eh     change    :  -0.7081528E-03 Eh
   gradient norm :     0.0163728 Eh/a0  converged?    E=F G=F D=F
   time step     :     0.2500000 fs     power     :   0.3601030E-07
   step length   :     0.0498693 a0     speed     :   0.4825125E-02

........................................................................
.............................. CYCLE   47 ..............................
........................................................................

 iter      E             dE          RMSdq      gap      omega  full diag
   1  -3478.7233233 -0.347872E+04  0.155E-03   10.72       0.0  T
   2  -3478.7233238 -0.420193E-06  0.903E-04   10.72       1.9  T
   3  -3478.7233238 -0.130240E-07  0.163E-04   10.72      10.7  T
     SCC iter.                  ...        2 min, 58.693 sec
     gradient                   ...        3 min, 43.600 sec
 * total energy  : -3427.5261881 Eh     change    :  -0.6814081E-03 Eh
   gradient norm :     0.0165882 Eh/a0  converged?    E=F G=F D=F
   time step     :     0.2500000 fs     power     :   0.3474993E-07
   step length   :     0.0499330 a0     speed     :   0.4831290E-02

........................................................................
.............................. CYCLE   48 ..............................
........................................................................

 iter      E             dE          RMSdq      gap      omega  full diag
   1  -3478.7189067 -0.347872E+04  0.163E-03   10.72       0.0  T
   2  -3478.7189069 -0.219441E-06  0.952E-04   10.72       1.8  T
   3  -3478.7189069 -0.125156E-07  0.970E-05   10.72      18.1  T
     SCC iter.                  ...        3 min,  0.260 sec
     gradient                   ...        3 min, 43.958 sec
 * total energy  : -3427.5269250 Eh     change    :  -0.7369403E-03 Eh
   gradient norm :     0.0172542 Eh/a0  converged?    E=F G=F D=F
   time step     :     0.2750000 fs     power     :   0.3450329E-07
   step length   :     0.0548571 a0     speed     :   0.4825200E-02

........................................................................
.............................. CYCLE   49 ..............................
........................................................................

 iter      E             dE          RMSdq      gap      omega  full diag
   1  -3478.7214242 -0.347872E+04  0.175E-03   10.72       0.0  T
   2  -3478.7214243 -0.580285E-07  0.102E-03   10.72       1.7  T
   3  -3478.7214243 -0.134009E-07  0.529E-05   10.72      33.1  T
   4  -3478.7214243 -0.317323E-08  0.259E-05   10.72      67.6  T
     SCC iter.                  ...        3 min, 55.245 sec
     gradient                   ...        3 min, 43.425 sec
 * total energy  : -3427.5277429 Eh     change    :  -0.8178564E-03 Eh
   gradient norm :     0.0168743 Eh/a0  converged?    E=F G=F D=F
   time step     :     0.3025000 fs     power     :   0.3502220E-07
   step length   :     0.0601987 a0     speed     :   0.4813678E-02

........................................................................
.............................. CYCLE   50 ..............................
........................................................................

 iter      E             dE          RMSdq      gap      omega  full diag
   1  -3478.7318943 -0.347873E+04  0.201E-03   10.72       0.0  T
   2  -3478.7318945 -0.170699E-06  0.117E-03   10.72       1.5  T
   3  -3478.7318945 -0.177029E-07  0.843E-05   10.72      20.8  T
   4  -3478.7318945 -0.410955E-08  0.331E-05   10.72      53.0  T
     SCC iter.                  ...        4 min,  3.912 sec
     gradient                   ...        3 min, 45.030 sec
 * total energy  : -3427.5286453 Eh     change    :  -0.9024176E-03 Eh
   gradient norm :     0.0150705 Eh/a0  converged?    E=F G=F D=F
   time step     :     0.3327500 fs     power     :   0.3483290E-07
   step length   :     0.0664021 a0     speed     :   0.4827016E-02

........................................................................
.............................. CYCLE   51 ..............................
........................................................................

 iter      E             dE          RMSdq      gap      omega  full diag
   1  -3478.7486104 -0.347875E+04  0.231E-03   10.72       0.0  T
   2  -3478.7486109 -0.487286E-06  0.134E-03   10.72       1.3  T
   3  -3478.7486109 -0.247351E-07  0.160E-04   10.72      11.0  T
   4  -3478.7486109 -0.593036E-08  0.438E-05   10.72      40.0  T
     SCC iter.                  ...        3 min, 57.876 sec
     gradient                   ...        3 min, 45.065 sec
 * total energy  : -3427.5296014 Eh     change    :  -0.9561469E-03 Eh
   gradient norm :     0.0135386 Eh/a0  converged?    E=F G=F D=F
   time step     :     0.3660250 fs     power     :   0.3296313E-07
   step length   :     0.0739236 a0     speed     :   0.4885255E-02

........................................................................
.............................. CYCLE   52 ..............................
........................................................................

 iter      E             dE          RMSdq      gap      omega  full diag
   1  -3478.7652464 -0.347877E+04  0.240E-03   10.72       0.0  T
   2  -3478.7652469 -0.488619E-06  0.139E-03   10.72       1.3  T
   3  -3478.7652470 -0.280902E-07  0.157E-04   10.72      11.2  T
   4  -3478.7652470 -0.641694E-08  0.463E-05   10.72      37.8  T
     SCC iter.                  ...        3 min, 57.888 sec
     gradient                   ...        3 min, 44.720 sec
 * total energy  : -3427.5305885 Eh     change    :  -0.9870767E-03 Eh
   gradient norm :     0.0142258 Eh/a0  converged?    E=F G=F D=F
   time step     :     0.4026275 fs     power     :   0.3085912E-07
   step length   :     0.0825738 a0     speed     :   0.4960823E-02

........................................................................
.............................. CYCLE   53 ..............................
........................................................................

 iter      E             dE          RMSdq      gap      omega  full diag
   1  -3478.7733941 -0.347877E+04  0.224E-03   10.72       0.0  T
   2  -3478.7733943 -0.129468E-06  0.131E-03   10.72       1.3  T
   3  -3478.7733943 -0.259674E-07  0.754E-05   10.72      23.2  T
   4  -3478.7733943 -0.453929E-08  0.394E-05   10.72      44.5  T
     SCC iter.                  ...        4 min,  8.006 sec
     gradient                   ...        3 min, 43.799 sec
 * total energy  : -3427.5316427 Eh     change    :  -0.1054221E-02 Eh
   gradient norm :     0.0148294 Eh/a0  converged?    E=F G=F D=F
   time step     :     0.4428903 fs     power     :   0.3044759E-07
   step length   :     0.0914169 a0     speed     :   0.4992813E-02

........................................................................
.............................. CYCLE   54 ..............................
........................................................................

 iter      E             dE          RMSdq      gap      omega  full diag
   1  -3478.7686539 -0.347877E+04  0.223E-03   10.72       0.0  T
   2  -3478.7686542 -0.271319E-06  0.132E-03   10.72       1.3  T
   3  -3478.7686542 -0.272253E-07  0.948E-05   10.72      18.5  T
   4  -3478.7686542 -0.468435E-08  0.396E-05   10.72      44.2  T
     SCC iter.                  ...        3 min, 57.450 sec
     gradient                   ...        3 min, 44.755 sec
 * total energy  : -3427.5328005 Eh     change    :  -0.1157816E-02 Eh
   gradient norm :     0.0133824 Eh/a0  converged?    E=F G=F D=F
   time step     :     0.4871793 fs     power     :   0.3033992E-07
   step length   :     0.1010160 a0     speed     :   0.5015524E-02

........................................................................
.............................. CYCLE   55 ..............................
........................................................................

 iter      E             dE          RMSdq      gap      omega  full diag
   1  -3478.7539771 -0.347875E+04  0.240E-03   10.73       0.0  T
   2  -3478.7539780 -0.900531E-06  0.141E-03   10.73       1.2  T
   3  -3478.7539780 -0.368159E-07  0.225E-04   10.73       7.8  T
   4  -3478.7539780 -0.787850E-08  0.539E-05   10.73      32.5  T
     SCC iter.                  ...        3 min, 58.475 sec
     gradient                   ...        3 min, 45.455 sec
 * total energy  : -3427.5340310 Eh     change    :  -0.1230483E-02 Eh
   gradient norm :     0.0127918 Eh/a0  converged?    E=F G=F D=F
   time step     :     0.5358972 fs     power     :   0.2880275E-07
   step length   :     0.1125421 a0     speed     :   0.5079825E-02

........................................................................
.............................. CYCLE   56 ..............................
........................................................................

 iter      E             dE          RMSdq      gap      omega  full diag
   1  -3478.7432557 -0.347874E+04  0.228E-03   10.73       0.0  T
   2  -3478.7432562 -0.555517E-06  0.134E-03   10.73       1.3  T
   3  -3478.7432563 -0.407190E-07  0.163E-04   10.73      10.7  T
   4  -3478.7432563 -0.793989E-08  0.581E-05   10.73      30.1  T
     SCC iter.                  ...        3 min, 55.989 sec
     gradient                   ...        3 min, 45.215 sec
 * total energy  : -3427.5353384 Eh     change    :  -0.1307378E-02 Eh
   gradient norm :     0.0140853 Eh/a0  converged?    E=F G=F D=F
   time step     :     0.5894869 fs     power     :   0.2822075E-07
   step length   :     0.1253077 a0     speed     :   0.5141842E-02

........................................................................
.............................. CYCLE   57 ..............................
........................................................................

 iter      E             dE          RMSdq      gap      omega  full diag
   1  -3478.7490051 -0.347875E+04  0.247E-03   10.73       0.0  T
   2  -3478.7490053 -0.181314E-06  0.144E-03   10.73       1.2  T
   3  -3478.7490053 -0.340615E-07  0.111E-04   10.73      15.8  T
   4  -3478.7490053 -0.884165E-08  0.535E-05   10.73      32.8  T
     SCC iter.                  ...        3 min, 54.420 sec
     gradient                   ...        3 min, 43.811 sec
 * total energy  : -3427.5367984 Eh     change    :  -0.1460035E-02 Eh
   gradient norm :     0.0129628 Eh/a0  converged?    E=F G=F D=F
   time step     :     0.6484356 fs     power     :   0.2887995E-07
   step length   :     0.1387240 a0     speed     :   0.5174876E-02

........................................................................
.............................. CYCLE   58 ..............................
........................................................................

 iter      E             dE          RMSdq      gap      omega  full diag
   1  -3478.7703512 -0.347877E+04  0.308E-03   10.73       0.0  T
   2  -3478.7703520 -0.791464E-06  0.177E-03   10.73       1.0  T
   3  -3478.7703520 -0.327373E-07  0.224E-04   10.73       7.8  T
   4  -3478.7703520 -0.114851E-07  0.524E-05   10.73      33.4  T
     SCC iter.                  ...        3 min, 56.802 sec
     gradient                   ...        3 min, 43.605 sec
 * total energy  : -3427.5383860 Eh     change    :  -0.1587523E-02 Eh
   gradient norm :     0.0125981 Eh/a0  converged?    E=F G=F D=F
   time step     :     0.7132792 fs     power     :   0.2798734E-07
   step length   :     0.1549750 a0     speed     :   0.5255537E-02

........................................................................
.............................. CYCLE   59 ..............................
........................................................................

 iter      E             dE          RMSdq      gap      omega  full diag
   1  -3478.7868420 -0.347879E+04  0.289E-03   10.74       0.0  T
   2  -3478.7868422 -0.238943E-06  0.169E-03   10.74       1.0  T
   3  -3478.7868422 -0.400469E-07  0.121E-04   10.74      14.4  T
   4  -3478.7868422 -0.963018E-08  0.596E-05   10.74      29.4  T
     SCC iter.                  ...        4 min,  0.954 sec
     gradient                   ...        3 min, 44.887 sec
 * total energy  : -3427.5401179 Eh     change    :  -0.1731901E-02 Eh
   gradient norm :     0.0132332 Eh/a0  converged?    E=F G=F D=F
   time step     :     0.7846071 fs     power     :   0.2830261E-07
   step length   :     0.1731700 a0     speed     :   0.5338699E-02

........................................................................
.............................. CYCLE   60 ..............................
........................................................................

 iter      E             dE          RMSdq      gap      omega  full diag
   1  -3478.7869983 -0.347879E+04  0.292E-03   10.74       0.0  T
   2  -3478.7869993 -0.101142E-05  0.177E-03   10.74       1.0  T
   3  -3478.7869994 -0.623222E-07  0.211E-04   10.74       8.3  T
   4  -3478.7869994 -0.135524E-07  0.787E-05   10.74      22.3  T
     SCC iter.                  ...        3 min, 59.524 sec
     gradient                   ...        3 min, 44.615 sec
 * total energy  : -3427.5420489 Eh     change    :  -0.1931039E-02 Eh
   gradient norm :     0.0114682 Eh/a0  converged?    E=F G=F D=F
   time step     :     0.8630678 fs     power     :   0.2826980E-07
   step length   :     0.1935068 a0     speed     :   0.5423336E-02

........................................................................
.............................. CYCLE   61 ..............................
........................................................................

 iter      E             dE          RMSdq      gap      omega  full diag
   1  -3478.7937137 -0.347879E+04  0.324E-03   10.75       0.0  T
   2  -3478.7937144 -0.757073E-06  0.196E-03   10.75       1.0  T
   3  -3478.7937145 -0.589721E-07  0.156E-04   10.75      11.2  T
   4  -3478.7937145 -0.127411E-07  0.720E-05   10.75      24.3  T
     SCC iter.                  ...        3 min, 59.192 sec
     gradient                   ...        3 min, 46.899 sec
 * total energy  : -3427.5441227 Eh     change    :  -0.2073826E-02 Eh
   gradient norm :     0.0123195 Eh/a0  converged?    E=F G=F D=F
   time step     :     0.9493746 fs     power     :   0.2763736E-07
   step length   :     0.2182636 a0     speed     :   0.5561077E-02

........................................................................
.............................. CYCLE   62 ..............................
........................................................................

 iter      E             dE          RMSdq      gap      omega  full diag
   1  -3478.8314352 -0.347883E+04  0.466E-03   10.75       0.0  T
   2  -3478.8314361 -0.894293E-06  0.269E-03   10.75       1.0  T
   3  -3478.8314361 -0.601244E-07  0.211E-04   10.75       8.3  T
   4  -3478.8314362 -0.978707E-08  0.613E-05   10.75      28.6  T
     SCC iter.                  ...        3 min, 55.168 sec
     gradient                   ...        3 min, 45.800 sec
 * total energy  : -3427.5463845 Eh     change    :  -0.2261799E-02 Eh
   gradient norm :     0.0104458 Eh/a0  converged?    E=F G=F D=F
   time step     :     1.0443120 fs     power     :   0.2701311E-07
   step length   :     0.2448854 a0     speed     :   0.5672151E-02

........................................................................
.............................. CYCLE   63 ..............................
........................................................................

 iter      E             dE          RMSdq      gap      omega  full diag
   1  -3478.8581694 -0.347886E+04  0.488E-03   10.76       0.0  T
   2  -3478.8581699 -0.462146E-06  0.285E-03   10.76       1.0  T
   3  -3478.8581699 -0.696791E-07  0.150E-04   10.76      11.7  T
   4  -3478.8581699 -0.146679E-07  0.679E-05   10.76      25.8  T
     SCC iter.                  ...        3 min, 56.196 sec
     gradient                   ...        3 min, 46.813 sec
 * total energy  : -3427.5487666 Eh     change    :  -0.2382079E-02 Eh
   gradient norm :     0.0108116 Eh/a0  converged?    E=F G=F D=F
   time step     :     1.1487432 fs     power     :   0.2598995E-07
   step length   :     0.2769299 a0     speed     :   0.5831254E-02

........................................................................
.............................. CYCLE   64 ..............................
........................................................................

 iter      E             dE          RMSdq      gap      omega  full diag
   1  -3478.8458686 -0.347885E+04  0.453E-03   10.77       0.0  T
   2  -3478.8458714 -0.283338E-05  0.273E-03   10.77       1.0  T
   3  -3478.8458714 -0.647233E-07  0.356E-04   10.77       4.9  T
   4  -3478.8458715 -0.276295E-07  0.768E-05   10.77      22.8  T
     SCC iter.                  ...        4 min,  9.366 sec
     gradient                   ...        3 min, 45.703 sec
 * total energy  : -3427.5512439 Eh     change    :  -0.2477281E-02 Eh
   gradient norm :     0.0115248 Eh/a0  converged?    E=F G=F D=F
   time step     :     1.2500000 fs     power     :   0.2405414E-07
   step length   :     0.3080847 a0     speed     :   0.5961769E-02

........................................................................
.............................. CYCLE   65 ..............................
........................................................................

 iter      E             dE          RMSdq      gap      omega  full diag
   1  -3478.8758784 -0.347888E+04  0.551E-03   10.78       0.0  T
   2  -3478.8758795 -0.108787E-05  0.319E-03   10.78       1.0  T
   3  -3478.8758796 -0.628670E-07  0.229E-04   10.78       7.7  T
   4  -3478.8758796 -0.195391E-07  0.695E-05   10.78      25.2  T
     SCC iter.                  ...        3 min, 56.684 sec
     gradient                   ...        3 min, 44.912 sec
 * total energy  : -3427.5536405 Eh     change    :  -0.2396652E-02 Eh
   gradient norm :     0.0100651 Eh/a0  converged?    E=F G=F D=F
   time step     :     1.2500000 fs     power     :   0.2361690E-07
   step length   :     0.3112166 a0     speed     :   0.6022376E-02

........................................................................
.............................. CYCLE   66 ..............................
........................................................................

 iter      E             dE          RMSdq      gap      omega  full diag
   1  -3478.8907259 -0.347889E+04  0.439E-03   10.78       0.0  T
   2  -3478.8907264 -0.478912E-06  0.259E-03   10.78       1.0  T
   3  -3478.8907264 -0.555106E-07  0.138E-04   10.78      12.7  T
   4  -3478.8907264 -0.170207E-07  0.687E-05   10.78      25.5  T
     SCC iter.                  ...        4 min,  2.089 sec
     gradient                   ...        3 min, 43.221 sec
 * total energy  : -3427.5559753 Eh     change    :  -0.2334767E-02 Eh
   gradient norm :     0.0098148 Eh/a0  converged?    E=F G=F D=F
[...]
  3011   6 C     3012   6 C                                       1.5292973
  3012   6 C     3013   6 C                                       1.5264765
  3013   6 C     3014   6 C                                       1.5286195
  3014   6 C     3015   6 C                                       1.5270970
  3015   6 C     3016   6 C                                       1.5239107
  3015   6 C     3017   1 H                                       1.0917002
  3015   6 C     3018   1 H                                       1.0929574
  3014   6 C     3019   1 H                                       1.0927188
  3014   6 C     3020   1 H                                       1.0930773
  3013   6 C     3021   1 H                                       1.0917282
  3013   6 C     3022   1 H                                       1.0913620
  3012   6 C     3023   1 H                                       1.0924423
  3012   6 C     3024   1 H                                       1.0920057
  3011   6 C     3025   1 H                                       1.0926380
  3011   6 C     3026   1 H                                       1.0927044
  3010   6 C     3027   1 H                                       1.0914055
  3010   6 C     3028   1 H                                       1.0929555
  3009   6 C     3029   1 H                                       1.0933350
  3009   6 C     3030   1 H                                       1.0926312
  3008   6 C     3031   1 H                                       1.0924371
  3008   6 C     3032   1 H                                       1.0933193
  3007   6 C     3033   1 H                                       1.0938610
  3007   6 C     3034   1 H                                       1.0914766
  3006   6 C     3035   1 H                                       1.0926515
  3006   6 C     3036   1 H                                       1.0922025
  3005   6 C     3037   1 H                                       1.0939979
  3005   6 C     3038   1 H                                       1.0925693
  3004   6 C     3039   1 H                                       1.0931644
  3004   6 C     3040   1 H                                       1.0924687
  3003   6 C     3041   1 H                                       1.0938765
  3003   6 C     3042   1 H                                       1.0924271
  3002   6 C     3043   1 H                                       1.0936203
  3002   6 C     3044   1 H                                       1.0925418
  3001   6 C     3045   1 H                                       1.0938015
  3001   6 C     3046   1 H                                       1.0923222
  3000   6 C     3047   1 H                                       1.0937445
  3000   6 C     3048   1 H                                       1.0925592
  2999   6 C     3049   1 H                                       1.0937712
  2999   6 C     3050   1 H                                       1.0922653
  2998   6 C     3051   1 H                                       1.0938102
  2998   6 C     3052   1 H                                       1.0925180
  2997   6 C     3053   1 H                                       1.0937727
  2997   6 C     3054   1 H                                       1.0921979
  2996   6 C     3055   1 H                                       1.0937651
  2996   6 C     3056   1 H                                       1.0924719
  2995   6 C     3057   1 H                                       1.0938252
  2995   6 C     3058   1 H                                       1.0921113
  2994   6 C     3059   1 H                                       1.0936809
  2994   6 C     3060   1 H                                       1.0923350
  2993   6 C     3061   1 H                                       1.0938007
  2993   6 C     3062   1 H                                       1.0921012
  2992   6 C     3063   1 H                                       1.0934727
  2992   6 C     3064   1 H                                       1.0926023
  2991   6 C     3065   1 H                                       1.0937574
  2991   6 C     3066   1 H                                       1.0921618
  2990   6 C     3067   1 H                                       1.0931886
  2990   6 C     3068   1 H                                       1.0930899
  2989   6 C     3069   1 H                                       1.0938386
  2989   6 C     3070   1 H                                       1.0922530
  2988   6 C     3071   1 H                                       1.0928999
  2988   6 C     3072   1 H                                       1.0929531
  2987   6 C     3073   1 H                                       1.0938522
  2987   6 C     3074   1 H                                       1.0923160
  2986   6 C     3075   1 H                                       1.0928278
  2986   6 C     3076   1 H                                       1.0928180
  2985   6 C     3077   1 H                                       1.0936479
  2985   6 C     3078   1 H                                       1.0923731
  2984   6 C     3079   1 H                                       1.0924899
  2984   6 C     3080   1 H                                       1.0917240
  2983   6 C     3081   1 H                                       1.0936898
  2983   6 C     3082   1 H                                       1.0927089
  2982   6 C     3083   1 H                                       1.0923895
  2982   6 C     3084   1 H                                       1.0930703
  2981   6 C     3085   1 H                                       1.0925047
  2981   6 C     3086   1 H                                       1.0935690
  2980   6 C     3087   1 H                                       1.0927280
  2980   6 C     3088   1 H                                       1.0921073
  2979   6 C     3089   1 H                                       1.0915786
  2979   6 C     3090   1 H                                       1.0931619
  2978   6 C     3091   1 H                                       1.0937650
  2978   6 C     3092   1 H                                       1.0930528
  2977   6 C     3093   1 H                                       1.0901158
  2977   6 C     3094   1 H                                       1.0924459
  2976   6 C     3095   1 H                                       1.0941776
  2976   6 C     3096   1 H                                       1.0925807
  2975   6 C     3097   1 H                                       1.0933898
  2975   6 C     3098   1 H                                       1.0941885
  2974   6 C     3099   1 H                                       1.0928900
  2974   6 C     3100   1 H                                       1.0905249
  2973   6 C     3101   1 H                                       1.0933258
  2973   6 C     3102   1 H                                       1.0941177
  2972   6 C     3103   1 H                                       1.0939818
  2972   6 C     3104   1 H                                       1.0918723
  2971   6 C     3105   1 H                                       1.0919091
  2971   6 C     3106   1 H                                       1.0922427
  2970   6 C     3107   1 H                                       1.0936984
  2970   6 C     3108   1 H                                       1.0922747
  2969   6 C     3109   1 H                                       1.0925431
  2969   6 C     3110   1 H                                       1.0919365
  2968   6 C     3111   1 H                                       1.0934664
  2968   6 C     3112   1 H                                       1.0927777
  2967   6 C     3113   1 H                                       1.0924789
  2967   6 C     3114   1 H                                       1.0919259
  2966   6 C     3115   1 H                                       1.0935940
  2966   6 C     3116   1 H                                       1.0931830
  2965   6 C     3117   1 H                                       1.0924805
  2965   6 C     3118   1 H                                       1.0921291
  2964   6 C     3119   1 H                                       1.0937938
  2964   6 C     3120   1 H                                       1.0935407
  2963   6 C     3121   1 H                                       1.0924033
  2963   6 C     3122   1 H                                       1.0922296
  2962   6 C     3123   1 H                                       1.0938735
  2962   6 C     3124   1 H                                       1.0937713
  2961   6 C     3125   1 H                                       1.0923470
  2961   6 C     3126   1 H                                       1.0922517
  2960   6 C     3127   1 H                                       1.0938814
  2960   6 C     3128   1 H                                       1.0938710
  2959   6 C     3129   1 H                                       1.0923146
  2959   6 C     3130   1 H                                       1.0923038
  2958   6 C     3131   1 H                                       1.0938650
  2958   6 C     3132   1 H                                       1.0938939
  2957   6 C     3133   1 H                                       1.0923144
  2957   6 C     3134   1 H                                       1.0924403
  2956   6 C     3135   1 H                                       1.0938187
  2956   6 C     3136   1 H                                       1.0938730
  2955   6 C     3137   1 H                                       1.0923342
  2955   6 C     3138   1 H                                       1.0926557
  2954   6 C     3139   1 H                                       1.0937755
  2954   6 C     3140   1 H                                       1.0937990
  2953   6 C     3141   1 H                                       1.0922883
  2953   6 C     3142   1 H                                       1.0928934
  2952   6 C     3143   1 H                                       1.0937493
  2952   6 C     3144   1 H                                       1.0936555
  2951   6 C     3145   1 H                                       1.0920831
  2951   6 C     3146   1 H                                       1.0930902
  2950   6 C     3147   1 H                                       1.0919941
  2950   6 C     3148   1 H                                       1.0936263
  2949   6 C     3149   1 H                                       1.0914603
  2949   6 C     3150   1 H                                       1.0925135
  2948   6 C     3151   1 H                                       1.0931134
  2948   6 C     3152   1 H                                       1.0934825
  2947   6 C     3153   1 H                                       1.0915430
  2947   6 C     3154   1 H                                       1.0904362
  2946   6 C     3155   1 H                                       1.0929182
  2946   6 C     3156   1 H                                       1.0935053
  2945   6 C     3157   1 H                                       1.0934707
  2945   6 C     3158   1 H                                       1.0907136
  2944   6 C     3159   1 H                                       1.0895016
  2944   6 C     3160   1 H                                       1.0937363
  2943   6 C     3161   1 H                                       1.0937460
  2943   6 C     3162   1 H                                       1.0935958
  2942   6 C     3163   1 H                                       1.0938607
  2942   6 C     3164   1 H                                       1.0917222
  2941   6 C     3165   1 H                                       1.0914470
  2941   6 C     3166   1 H                                       1.0918657
  2940   6 C     3167   1 H                                       1.0933358
  2940   6 C     3168   1 H                                       1.0934972
  2939   6 C     3169   1 H                                       1.0931931
  2939   6 C     3170   1 H                                       1.0917745
  2938   6 C     3171   1 H                                       1.0918375
  2938   6 C     3172   1 H                                       1.0934238
  2937   6 C     3173   1 H                                       1.0926295
  2937   6 C     3174   1 H                                       1.0929863
  2936   6 C     3175   1 H                                       1.0935307
  2936   6 C     3176   1 H                                       1.0934213
  2935   6 C     3177   1 H                                       1.0926891
  2935   6 C     3178   1 H                                       1.0929548
  2934   6 C     3179   1 H                                       1.0934101
  2934   6 C     3180   1 H                                       1.0934742
  2933   6 C     3181   1 H                                       1.0928124
  2933   6 C     3182   1 H                                       1.0928712
  2932   6 C     3183   1 H                                       1.0933184
  2932   6 C     3184   1 H                                       1.0934810
  2931   6 C     3185   1 H                                       1.0928928
  2931   6 C     3186   1 H                                       1.0928110
  2930   6 C     3187   1 H                                       1.0932640
  2930   6 C     3188   1 H                                       1.0934822
  2929   6 C     3189   1 H                                       1.0929683
  2929   6 C     3190   1 H                                       1.0927134
  2928   6 C     3191   1 H                                       1.0932815
  2928   6 C     3192   1 H                                       1.0934814
  2927   6 C     3193   1 H                                       1.0930454
  2927   6 C     3194   1 H                                       1.0925528
  2926   6 C     3195   1 H                                       1.0934414
  2926   6 C     3196   1 H                                       1.0934364
  2925   6 C     3197   1 H                                       1.0930748
  2925   6 C     3198   1 H                                       1.0924971
  2924   6 C     3199   1 H                                       1.0938319
  2924   6 C     3200   1 H                                       1.0932011
  2923   6 C     3201   1 H                                       1.0930365
  2923   6 C     3202   1 H                                       1.0928599
  2922   6 C     3203   1 H                                       1.0943501
  2922   6 C     3204   1 H                                       1.0927663
  2921   6 C     3205   1 H                                       1.0931252
  2921   6 C     3206   1 H                                       1.0908785
  2920   6 C     3207   1 H                                       1.0924952
  2920   6 C     3208   1 H                                       1.0933922
  2919   6 C     3209   1 H                                       1.0937159
  2919   6 C     3210   1 H                                       1.0938369
  2918   6 C     3211   1 H                                       1.0908317
  2918   6 C     3212   1 H                                       1.0877115
  2917   6 C     3213   1 H                                       1.0895770
  2917   6 C     3214   1 H                                       1.0940424
  2916   6 C     3215   1 H                                       1.0935057
  2916   6 C     3216   1 H                                       1.0937208
  2915   6 C     3217   1 H                                       1.0935101
  2915   6 C     3218   1 H                                       1.0913362
  2914   6 C     3219   1 H                                       1.0908511
  2914   6 C     3220   1 H                                       1.0932580
  2913   6 C     3221   1 H                                       1.0928462
  2913   6 C     3222   1 H                                       1.0932244
  2912   6 C     3223   1 H                                       1.0933351
  2912   6 C     3224   1 H                                       1.0934138
  2911   6 C     3225   1 H                                       1.0928130
  2911   6 C     3226   1 H                                       1.0926913
  2910   6 C     3227   1 H                                       1.0932156
  2910   6 C     3228   1 H                                       1.0936135
  2909   6 C     3229   1 H                                       1.0928357
  2909   6 C     3230   1 H                                       1.0923403
  2908   6 C     3231   1 H                                       1.0934033
  2908   6 C     3232   1 H                                       1.0936877
  2907   6 C     3233   1 H                                       1.0927867
  2907   6 C     3234   1 H                                       1.0921623
  2906   6 C     3235   1 H                                       1.0936040
  2906   6 C     3236   1 H                                       1.0936917
  2905   6 C     3237   1 H                                       1.0927082
  2905   6 C     3238   1 H                                       1.0921279
  2904   6 C     3239   1 H                                       1.0937323
  2904   6 C     3240   1 H                                       1.0936929
  2903   6 C     3241   1 H                                       1.0926424
  2903   6 C     3242   1 H                                       1.0921509
  2902   6 C     3243   1 H                                       1.0938175
  2902   6 C     3244   1 H                                       1.0937284
  2901   6 C     3245   1 H                                       1.0926186
  2901   6 C     3246   1 H                                       1.0922150
  2900   6 C     3247   1 H                                       1.0939418
  2900   6 C     3248   1 H                                       1.0938329
  2899   6 C     3249   1 H                                       1.0926019
  2899   6 C     3250   1 H                                       1.0923104
  2898   6 C     3251   1 H                                       1.0936959
  2898   6 C     3252   1 H                                       1.0935895
  2897   6 C     3253   1 H                                       1.0877314
  2897   6 C     3254   1 H                                       1.0882390
  2897   6 C     3255   1 H                                       1.0874735
  3016   6 C     3256   1 H                                       1.0885062
  3016   6 C     3257   1 H                                       1.0876806
  3016   6 C     3258   1 H                                       1.0881147

 * 2 distinct bonds (by element types)

   Z      Z             #   av. dist./Å        max./Å        min./Å
   1 H    6 C        2178     1.0926243     1.0946885     1.0865758
   6 C    6 C        1071     1.5270516     1.5344820     1.5228253


optimized geometry written to: xtbopt.xyz


           -------------------------------------------------
          | TOTAL ENERGY            -3427.663457074586 Eh   |
          | GRADIENT NORM               0.000742255120 Eh/α |
          | HOMO-LUMO GAP              11.183116006657 eV   |
           -------------------------------------------------

------------------------------------------------------------------------
 * finished run on 2024/06/20 at 19:57:50.844     
------------------------------------------------------------------------
 total:
 * wall-time:     3 d,  4 h, 39 min,  4.899 sec
 *  cpu-time:    16 d, 20 h, 14 min, 10.568 sec
 * ratio c/w:     5.274 speedup
 SCF:
 * wall-time:     0 d,  0 h,  7 min, 21.678 sec
 *  cpu-time:     0 d,  0 h, 39 min,  1.124 sec
 * ratio c/w:     5.301 speedup
 ANC optimizer:
 * wall-time:     3 d,  4 h, 31 min,  1.710 sec
 *  cpu-time:    16 d, 19 h, 34 min, 12.736 sec
 * ratio c/w:     5.274 speedup

