3864
 energy: -5104.209416544274 gnorm: 0.000991560652 xtb: 6.6.1 (8d0f1dd)
C           43.18450983998219       43.31346518452151       47.96513745259989
C           43.79863195510266       44.29334662925616       47.19713107524039
C           45.17549118970540       44.22719979804431       47.02124431226517
C           45.90677414577179       43.19242017828142       47.57009207380685
C           45.28383882834007       42.21407966411409       48.32461352235179
C           43.91794443430437       42.28503869842204       48.53128938988151
C           42.98598342698383       45.39232006023357       46.55751850987795
C           43.16519261004207       46.70561843571461       47.31926041800835
C           43.39154691363508       45.54531935330809       45.08584800674625
C           42.36205198543499       46.23664948961632       44.18038898452595
C           43.01231074501355       46.46720392830404       42.83897068367103
C           43.44146164674491       45.40512557214929       42.05055832894092
C           44.08108340270518       45.62498513991422       40.84518621415335
C           44.28684294530372       46.91827370230342       40.39473059167127
C           43.85942572014064       47.98253152165836       41.16740396747063
C           43.23425688414265       47.75749042672268       42.38091835135396
C           41.06832387547771       45.41619706234744       44.06538865384631
C           40.16075117351685       45.87490532201207       42.91692705308819
C           39.98727152615209       47.37459042232889       42.91532940800625
C           39.56196330280426       48.06036443034748       44.04740168060291
C           39.43394457271713       49.43767210799371       44.03748594800206
C           39.73106745534583       50.15540210051392       42.89129680637977
C           40.15276005606577       49.48545179529061       41.75674863909466
C           40.26973415699437       48.10679826154231       41.77045134739239
C           38.76939238285308       45.22158132217307       42.97706909768261
C           38.73995952127957       43.69342772378794       43.13545601480160
C           37.29891026134345       43.25587944230935       43.24518675341086
C           36.42227291460014       43.36164342854126       42.17052760199689
C           35.09870481911423       42.97834333432671       42.29098589842562
C           34.62293348007294       42.48390808195201       43.49465865670526
C           35.48367438786664       42.37964435953136       44.57359601503371
C           36.80783690756364       42.76059859322545       44.44630025271643
C           39.45541115094674       42.97444536566447       41.98904837703424
C           39.58490121226444       41.46513793194727       42.24586858343871
C           40.43924781216797       41.20973592586790       43.46200175668861
C           39.90333183933841       40.57071209101072       44.57241358179548
C           40.66359987118961       40.35806021047610       45.70970557029893
C           41.97775427143261       40.78700173473524       45.75653432513653
C           42.52768892008213       41.42228690775147       44.65596644302362
C           41.76571841638018       41.62814050544449       43.51997311807470
C           40.12146995454449       40.78032501578540       40.98138189928682
C           40.26112226378216       39.25069063300269       41.10807996120700
C           39.83444625513717       38.58031994822549       39.82676818270281
C           40.41837375309368       38.93320993606157       38.61427962237229
C           40.03248530705515       38.31741022464373       37.43739082833313
C           39.05627132547853       37.33450786605979       37.45188892071127
C           38.46804848258490       36.97510675308836       38.65204457660066
C           38.85438924213511       37.59627827688497       39.82730013551190
C           41.70931509814301       38.86917045988038       41.43922619324228
C           41.91302506486986       37.36010912768037       41.63637596250050
C           41.45727651302787       36.93450792897808       43.00775990782998
C           40.41848268517489       36.02505840788881       43.15703042453953
C           39.99085880042067       35.63266067278289       44.41385796999233
C           40.60230292764569       36.14304468275859       45.54564342793259
C           41.64407112020110       37.04471439004340       45.41012066449188
C           42.06499632383107       37.43598198934380       44.15310938773953
C           43.38757907361119       36.99185194037220       41.40268633962249
C           43.72437395334966       36.97341993902847       39.90086034897987
C           43.37698495588142       35.62855889475983       39.31542058686765
C           42.29846288536800       35.49794646942311       38.45011052986430
C           41.95810751286341       34.26598867184636       37.91893964976425
C           42.69835006605767       33.14234446778410       38.24170144852452
C           43.77801513276750       33.26059265272924       39.10149812397452
C           44.11165227083756       34.49178825280046       39.63534465884540
C           45.19291495833127       37.32704175355793       39.62452484293429
C           45.50908372104810       38.80591910278476       39.87544171812812
C           44.63887608812727       39.74876979242320       39.07849896312020
C           44.14296547397502       40.89269440257932       39.69638285642173
C           43.37948672564167       41.80959532029880       38.99681874969260
C           43.08764371557307       41.59571359028494       37.66023426687765
C           43.57530818328780       40.46091235124699       37.03385480986034
C           44.34751184906225       39.54893647584099       37.73431651641216
C           46.99438364776348       39.12287771185697       39.60017342223406
C           47.87787490292393       38.98546012139251       40.85072391391378
C           47.96988654407878       37.54850651407239       41.29573937883124
C           47.40435132686176       37.13876806334552       42.49746885210293
C           47.45806960269940       35.81398221857499       42.89432784447069
C           48.09038074548464       34.87514907953253       42.09861702503521
C           48.66893102196118       35.27190731268587       40.90383448856914
C           48.60677228367766       36.59461595125473       40.50720057140694
C           49.26515940065745       39.58080777197894       40.57852903022117
C           50.24702542633475       39.46580386382447       41.76602260027042
C           51.61911449416418       39.24337657181326       41.17472613322860
C           52.08633428235351       37.94557914344402       40.99614502987919
C           53.30244921202506       37.70522801771133       40.38331135827332
C           54.07612081581300       38.76431378714134       39.93883546867760
C           53.62643553369001       40.06021873695449       40.11805912201859
C           52.40589583433612       40.29757627476985       40.72679334138716
C           50.20586015008394       40.67796538582499       42.71129837250888
C           49.12200958492927       40.59646107635427       43.81430025699422
C           48.26113177549050       41.83587478901645       43.81331939516827
C           48.78203548075323       43.06868425361110       44.19381620794653
C           47.98969899151390       44.20251317435226       44.20242534363548
C           46.66234617387327       44.12874586047614       43.81533345049475
C           46.13438371404308       42.91049995088302       43.42983529154363
C           46.92526621198395       41.77529491960514       43.43790900412779
C           49.76252802991179       40.37757184905799       45.19432228493834
C           48.72872256840205       40.38890526454794       46.32796676565481
C           47.74137009167260       39.25628346476027       46.19906007795247
C           46.39093680647104       39.52231568368757       46.00685336680257
C           45.46584610216621       38.49482338771969       45.94635223517240
C           45.87644195055190       37.18023750539858       46.08723115409516
C           47.22018611556459       36.90353000803085       46.28150525233277
C           48.14457499951360       37.93162438990446       46.33211857534634
C           49.40055111710221       40.33090598879767       47.71434170437603
C           49.55195359670044       41.70231808314380       48.39297247765658
C           50.59845389469326       42.56430665469269       47.73649544440664
C           50.25801866743050       43.80583965540649       47.21479692410898
C           51.21630882835214       44.62551537727468       46.64563453905894
C           52.53618011178972       44.21606096476286       46.59157646752879
C           52.88971538346137       42.98036061258677       47.10487181483975
C           51.92855829477766       42.16352391016534       47.67088221701547
C           49.83920310746294       41.53370139056825       49.90175035166886
C           48.82643585032191       42.26452241595358       50.81074764587435
C           48.67828103547488       41.45924252938033       52.07496151598087
C           49.56114662400279       41.56114416416913       53.14190192126846
C           49.40357627007047       40.76179198469050       54.26010610559341
C           48.38489767647840       39.82760735819794       54.32082487288323
C           47.52116988535478       39.69615171307252       53.24801683999893
C           47.66097723232313       40.51460744963182       52.14434889307037
C           49.23827121473551       43.72265069319079       51.03515629459563
C           48.39992813157936       44.45126482789038       52.09366817793831
C           46.92095197890046       44.42708699429255       51.79608700131359
C           46.02487137328075       43.89904531384504       52.71627657252792
C           44.65895449376679       43.99578756320656       52.51385906784435
C           44.16658140895498       44.62064827384291       51.38224943622753
C           45.05060107020922       45.11892615093748       50.44174820387148
C           46.41274458403641       45.02027705604520       50.64629842970893
C           48.82726064294422       45.92572734707907       52.21296229309815
C           50.12263144274147       46.17736199722501       53.00693410276142
C           50.73721405831198       47.46438186855272       52.51318253605479
C           50.02609787404330       48.65856161711518       52.54569868343538
C           50.54395126271653       49.81117509574555       51.98482723759635
C           51.79584121160330       49.79641964088320       51.39375611590363
C           52.52702579923950       48.62222100589530       51.38045220574540
C           51.99880480253671       47.46926141321842       51.93353269025064
C           49.85364367793795       46.20006149031738       54.51628563106984
C           51.13809150800900       46.28762948115651       55.35417289327695
C           52.04632755220235       45.11235665080255       55.09158243319409
C           51.65322676207943       43.81535747183420       55.40449943936547
C           52.50822608891346       42.74796423674970       55.19899739933146
C           53.76673171376990       42.95264819848461       54.66250747326080
C           54.16185416372122       44.23566849801260       54.32868844352942
C           53.30997586473632       45.30410787803308       54.54639782190630
C           50.79177424473010       46.36663852797782       56.84853751383182
C           52.02151567264155       46.60813274629976       57.73790633441659
H           41.93277564461098       45.10104688298542       46.61270279556221
H           44.31706592636889       46.12491489329306       45.03581603020204
H           43.59536071245840       44.55094077758987       44.68303200830974
H           42.11532684744231       47.21591840367332       44.60299013662039
H           41.32224048304812       44.36458164570417       43.92310175467114
H           40.51388984888801       45.49747726725398       45.00028710474412
H           40.63527376216438       45.60059104635859       41.96885334787800
H           38.21310121444160       45.64604457640733       43.81618678991316
H           38.23942084920220       45.49078841499639       42.06193869032035
H           39.23821130221911       43.42795831594941       44.07264401829190
H           40.45026964353259       43.39973675700913       41.86084642131169
H           38.58245533756466       41.06620001788516       42.44392007032936
H           39.42632641910220       41.00371938585379       40.16779815024419
H           41.08821628123074       41.20791104922792       40.71041748008707
H           39.61377119179662       38.89641536779009       41.91823264996254
H           42.34617338217134       39.21472230580525       40.62436650721942
H           42.01178608187391       39.39192994930722       42.34662691165254
H           41.31602930390493       36.81851663372148       40.89389878113089
H           44.02146672645256       37.70803808528572       41.92480291091740
H           43.58939081922977       36.00680434464762       41.82964783578496
H           43.10475343058111       37.71848434949963       39.39225453552032
H           45.32155084272681       39.01595289588138       40.93350502328575
H           47.36953525123890       38.47642384876410       38.80550901926265
H           47.07585958255680       40.15237254235959       39.24250838051202
H           47.41322596607336       39.56656235663382       41.65112721209198
H           49.69740669828608       39.06676565807634       39.71583245458212
H           49.15375211420470       40.63215558638834       40.30305918391276
H           49.98622498349621       38.56839534504332       42.33839612353839
H           51.18240822307166       40.77058378008726       43.19187520890950
H           50.05395488546240       41.58480286867680       42.12207793769829
H           48.47736219216732       39.73473079473782       43.61835518672345
H           50.29168533810397       39.42151361607922       45.18789838686427
H           50.49378583456878       41.16434523817327       45.39030038110933
H           48.16669538017982       41.32559792274325       46.25555899801886
H           48.78022518870654       39.70815664434786       48.36476018934647
H           50.37545498823790       39.84870942272029       47.62343845689279
H           48.58940753307706       42.21228475103626       48.29535274281511
H           49.81103005419365       40.47049207058431       50.15341868361386
H           50.84356475418419       41.89289098581109       50.13377148866825
H           47.84717093317111       42.26455815247795       50.31719950680266
H           50.28712310792311       43.75964050094485       51.33144632996522
H           49.16206541310345       44.24725868230044       50.08032861966854
H           48.55634830818519       43.95709775669894       53.05780877834678
H           48.95309255154737       46.32865693473254       51.20523691471163
H           48.01328679466183       46.48235475283541       52.68215932410281
H           50.82783116524089       45.36561913674612       52.80281119595765
H           49.21995522428797       47.05673484943203       54.75778705868355
H           49.30882153020023       45.29333618046903       54.78750520425189
H           42.11399778932613       43.35601922416060       48.11678142931356
H           43.42069158479780       41.53146028715489       49.12705598486136
H           45.85810418103856       41.39872324622335       48.74219756969449
H           46.97186318908464       43.15077948199293       47.39487955663451
H           45.68549848534987       44.98352955807302       46.44396243763812
H           43.27580895645394       44.39129323733753       42.38519362356087
H           44.43452411382450       44.78967115491317       40.25673284853725
H           44.77951817580900       47.08340590910549       39.44679978725733
H           44.00488300553399       49.00053072863872       40.83754013262570
H           42.90968299832858       48.60213750736784       42.97255666668917
H           39.34063965127414       47.51927272143638       44.95646252737507
H           39.11502300965755       49.95261035447061       44.93259841445780
H           39.63699848986453       51.23218808060592       42.88156731042117
H           40.40634855328308       50.03563325852856       40.86224945829128
H           40.60226503630057       47.58769032379762       40.88190194027920
H           36.76770418693695       43.74352578508958       41.22115582853775
H           34.43453460851558       43.07055450205418       41.44222662817681
H           33.58870150153351       42.18494000092794       43.59144381888108
H           35.12391710337963       41.99840570023854       45.51920287158574
H           37.46936898365590       42.67015681599615       45.29510492738658
H           38.90769830059430       43.13159775905378       41.05882030623881
H           38.87393551293599       40.23818787798441       44.54849012333720
H           40.22610775068028       39.85466333256469       46.56090093504973
H           42.57375373343762       40.63289719427187       46.64419518640635
H           43.55535645864266       41.75632578795610       44.69459430395712
H           42.20851835014617       42.11261519194152       42.66088680068787
H           41.18078922585747       39.69770102344153       38.58417226701135
H           40.49823613432959       38.60378944459907       36.50492188010491
H           38.75646951070638       36.85071051289432       36.53330232710263
H           37.70556665347290       36.20913495387762       38.67279339237369
H           38.38755170772447       37.31269335712942       40.76103717064201
H           39.94048816823416       35.61658749409549       42.27662249789928
H           39.17907591429569       34.92492161701514       44.50946968620385
H           40.26915403740163       35.83743733351107       46.52745875480311
H           42.12757338744211       37.44310432663331       46.29075284227391
H           42.87872420688516       38.13958428796315       44.06139674490314
H           41.71452651491055       36.36974592937283       38.18957326693350
H           41.11219482270441       34.18507529491891       37.25101889755227
H           42.43670779119216       32.17967951069358       37.82670321696050
H           44.36097369391285       32.38714122016557       39.35741343597735
H           44.95437901868357       34.56822505735841       40.30771341281561
H           45.83988145652071       36.71849165053484       40.25593947997200
H           45.41865736732802       37.07352628139706       38.58605386011626
H           44.36066210626380       41.06682050739182       40.74117754821180
H           43.01423096261103       42.69619156741276       39.49406995482060
H           42.48832569474261       42.30508158289572       37.10808918763250
H           43.35170287762146       40.28593846388542       35.99030120449661
H           44.71620602525411       38.67205579844759       37.22345747283538
H           46.90730697568443       37.85476435566697       43.13791859654017
H           47.00295619084637       35.51841450057679       43.82811490942695
H           48.13366243696962       33.83932310061849       42.40524836137721
H           49.16710728125275       34.54442888581193       40.27814471763068
H           49.05707245843706       36.88466254636455       39.56907787515404
H           51.48540746074583       37.11176144916504       41.33474032796290
H           53.64702242294766       36.68852025161039       40.25315605146888
H           55.02384356706435       38.57754662181331       39.45347860014682
H           54.22753886096412       40.89389672661023       39.78742625989787
H           52.07206376875176       41.31521244979781       40.86018021078862
H           49.81412600085901       43.13731325624185       44.50460847256748
H           48.40627763504871       45.15041288192187       44.51234183191765
H           46.04163815855689       45.01235684912641       43.80927282639922
H           45.10205727171939       42.84528579152459       43.11856668644748
H           46.49120037237302       40.82449215215053       43.15887751955608
H           46.05763612068422       40.54708800006080       45.91282296228070
H           44.41928772283752       38.72195734345664       45.79772141807472
H           45.15093098308993       36.37883281121235       46.04860554883938
H           47.55384291914622       35.88157727313547       46.40367876706195
H           49.18713679386506       37.69287707191552       46.48877345813958
H           49.22957168089545       44.13903610752731       47.25362128891681
H           50.93849432762232       45.59012182939791       46.24614747551070
H           53.28268904031984       44.86193623922301       46.15514274523767
H           53.92045641496141       42.65984935943050       47.06869061384560
H           52.22305976910746       41.20361110806029       48.06972837661419
H           50.37720534897522       42.26823869566136       53.10797020592968
H           50.08402094044101       40.86534951705097       55.09248880286833
H           48.26942134517213       39.20478253077565       55.19467632675458
H           46.73615889088837       38.95247678140915       53.26081096270559
H           46.97294725731527       40.41519237534703       51.31563475908511
H           46.39518893355442       43.41479655187715       53.60980144446889
H           43.98317575472316       43.59226005875370       53.25493768748618
H           43.10144589334956       44.72529458737073       51.22727309104582
H           44.67658229118001       45.59384802186872       49.54906543747386
H           47.08643066160188       45.42603787688863       49.90611050648610
H           49.04909415622009       48.69414690954302       53.00289045424382
H           49.96405480996804       50.72309736620393       52.00702570129295
H           52.19515878540085       50.69444795861406       50.94366400429841
H           53.50953191651011       48.59520962901858       50.93261461632786
H           52.57623650746648       46.55659761494286       51.90826740576632
H           53.62931425465777       46.30359572094994       54.28264121188975
H           55.13427552001122       44.40893877143490       53.89125836738665
H           54.43403359404684       42.11817314679386       54.50519947779601
H           52.19425812944487       41.74664543155662       55.45834739950782
H           50.66983916493757       43.62959063429911       55.81294340088624
H           42.58575346746925       47.49808015877048       46.85085283815675
H           42.83375533178267       46.59582195036971       48.35063263480701
H           44.21333039144639       46.99781532001212       47.31848716429086
H           51.66601827663734       47.20675286770599       55.07177925013048
H           50.07313420799503       47.17447723501678       57.00675687327797
H           50.31304448464471       45.43364161086497       57.15056791808511
C           51.69180873212091       46.33888056064247       59.21619241645569
C           52.51662585224184       48.01834545195369       57.55124546440243
C           51.76339199385993       49.09652279525699       58.00099457815779
C           52.18397777500155       50.39369227374629       57.78070913692667
C           53.37605985812872       50.63481375262094       57.12112859431038
C           54.15491271312933       49.57029169799986       56.70176094644613
C           53.72273892242841       48.27199787527528       56.91228762725084
H           50.83554045714074       48.92543791115903       58.52722587434383
H           51.57547872558315       51.22251099578777       58.10985174428782
H           53.68259306166789       51.65474848984278       56.93265226009697
H           55.10038674919511       49.74491922574132       56.20507151456165
H           54.32877752705082       47.44258400605685       56.57268364642044
C           51.76130034021003       44.85034229336423       59.55031990889071
H           52.40699555226424       46.88462029600156       59.83649976171496
H           50.69375566397671       46.72168103710631       59.43971141102260
C           51.18344554715215       44.46926617267565       60.88647320934324
C           50.93591966065617       45.39356835812393       61.89282915134220
C           50.38743503474021       44.99318858991152       63.10077605321816
C           50.10601287103827       43.66022969824028       63.33798140711414
C           50.36538202704205       42.72755437956464       62.34849721021783
C           50.88416627179713       43.13260684084357       61.13310447092419
H           51.16294337926090       46.43710225720225       61.73788604602624
H           50.18392750120262       45.73363650559741       63.86262938213654
H           49.68403833569192       43.34345032939097       64.28114839911292
H           50.15495571424519       41.68273259785125       62.52313248052813
H           51.04663329674135       42.40024555771306       60.35397444432262
H           52.81445377613543       45.91676903733018       57.42951508500336
H           51.23776414643649       44.27644704471433       58.78080209034864
H           52.80857485940130       44.53059348157226       59.51682912587979
C           50.25821529917999       52.14596468582059       54.33001888853398
C           49.11839523973948       52.93460871193737       54.41650674248572
C           48.11203293667894       52.54387156828983       55.29125880763625
C           48.24125713641703       51.39324288317979       56.04661364844187
C           49.37139621946716       50.60330445768680       55.93141317514738
C           50.38562781531014       50.98548901064949       55.07214191037893
C           48.98435002395100       54.17334652664697       53.56676448499162
C           47.80901104938643       54.03255266509026       52.59545759531598
C           48.82096884378841       55.42650754587248       54.43415395217634
C           50.02368478243012       55.65632298896123       55.35744571758783
C           51.27416261032455       55.97302156344447       54.57955130894163
C           51.35847173019933       57.11681176319695       53.79377925719619
C           52.52298135846211       57.42627086274270       53.11803927744123
C           53.63215596774509       56.60557907524756       53.22805340482802
C           53.56118165190135       55.46122893660128       54.00317342338299
C           52.38687022717187       55.14569480001489       54.66495282012774
C           49.71839130812425       56.78482881764965       56.35084933729440
C           50.89200263998615       57.07674908901478       57.29457716864437
C           51.33814306800134       55.82711050334736       58.00960550660594
C           50.43940268136701       55.07470682763991       58.75755954156764
C           50.85182183128136       53.93820756464889       59.42831908131996
C           52.17778330109302       53.53993576186252       59.37754570094029
C           53.08032878552287       54.27955234156741       58.63372164733928
C           52.66155483517363       55.41106630922145       57.95504476128868
C           50.52053719174817       58.17552375444277       58.31442285217999
C           51.24653414064059       59.50493012839338       58.06828551898940
C           51.01298679580789       60.06723179424567       56.68962894189191
C           49.73186209647154       60.18630555245537       56.16298851585667
C           49.52887624701966       60.74670828974290       54.91495281703197
C           50.59638084902789       61.25322116752950       54.19474232921828
C           51.87540350022941       61.15246708546555       54.71199362996353
C           52.07926235616029       60.54262455434963       55.93699958931711
C           50.79419371882230       60.53094436384387       59.11946791109679
C           51.72407066993634       61.74713332757306       59.24703336919762
C           53.08270668091878       61.31776031835889       59.73862219043895
C           53.24768721936518       60.69948855367875       60.97294914282187
C           54.49420615395827       60.28089250217165       61.40113322961584
C           55.59926912731051       60.46035050180321       60.58888310559167
C           55.45151824045366       61.07512123578827       59.35715995052545
C           54.20504610021197       61.51191381837832       58.94532478004596
C           51.07774497302125       62.76563071231948       60.19797590380669
C           51.98043631287651       63.95122975529220       60.55028832518272
C           52.42511623647861       64.70654006516786       59.32134100030586
C           53.75319891856915       65.08161922966988       59.17194318937731
C           54.16636346166211       65.81371042649545       58.07331381796963
C           53.26041760175836       66.16744016885731       57.08984359382956
C           51.93369746485759       65.79647003936519       57.22448734578362
C           51.52100082973374       65.08256761662604       58.33418655355386
C           51.29371574925124       64.95403253114722       61.50396454639921
C           50.50186453046447       64.34040733980203       62.67307023576804
C           49.82286464427559       65.44585967939615       63.44565009979740
C           50.55639213129844       66.37728839038903       64.17239157357362
C           49.92446094012762       67.38416466054413       64.87871403758150
C           48.54291878132241       67.48127225702105       64.87141361964677
C           47.80149527542752       66.56762024681672       64.14370790475279
C           48.43840138443757       65.56265257253328       63.43706337821465
C           51.36468163191665       63.47599144603488       63.60293074775090
C           50.53508986685149       62.57913334826301       64.54056928812521
C           51.39233943860577       62.07227441590128       65.67718920217929
C           50.95957860843239       62.19559640524628       66.99093650591527
C           51.70740815707697       61.68612601646148       68.03791207552139