3795
 energy: -5103.640231679809 gnorm: 0.000870055572 xtb: 6.6.1 (8d0f1dd)
C           97.38435218753266      123.91036568680727      113.12280194547925
C           98.67691647325098      124.44708759083957      112.57340481312775
C           97.66842029867740      123.04999818874097      114.36088669085940
C           96.40927270849305      122.32135053545302      114.82332197732543
H           98.43955453419331      122.31589841458808      114.11530366501054
H           98.04961951169318      123.68227152798949      115.16460257232899
C           96.64642788580072      121.58901479230428      116.14724399496909
H           95.59788721094462      123.03844430520218      114.95381700282701
H           96.11016297694967      121.59772936421381      114.06256285773014
C           97.77532606956075      120.59021875354404      115.99084275585511
H           96.89636762550599      122.30653939594360      116.92774350289099
H           95.74073357362174      121.04824788734226      116.42477437520719
N           98.88865084629741      120.89187810082950      116.65862756290235
O           99.23986552616819      125.35649458781464      113.34753006301148
O           99.18235067599421      124.06682694337812      111.53714098777543
H          100.07175760029234      125.70549823887505      112.93942780114234
H           96.90474356906725      123.30826526636581      112.35085977033980
H           96.73954266729960      124.74442131585586      113.39829721305719
C          100.08429533019169      120.08008752251034      116.55598180940019
H           98.95098090515323      121.76995641208912      117.16637209146506
C          101.31744123463213      120.82374155871473      117.04557344300004
H           99.94515271109591      119.17038674376403      117.15034337921009
H          100.20554657570668      119.77563701166446      115.51238033149642
C          101.60699884773780      122.11945512733681      116.29192663212255
H          101.18622188598738      121.05893867255546      118.10274891856611
H          102.17638574612970      120.15603009859245      116.97228219364548
C          101.91112681293718      121.92940393173102      114.80928197343907
H          100.76505779541371      122.80441857865887      116.39264118490497
H          102.47558541132129      122.58626538862946      116.76224936063696
C          102.31707147274516      123.26052719439218      114.18484628929239
H          102.72279916301449      121.20901089515370      114.69308010329468
H          101.03882899126106      121.53802940626096      114.28358516765545
C          102.87293815190304      123.13645833301587      112.77165725195140
H          101.46515085080260      123.94229640356586      114.17720389805368
H          103.09557596655702      123.71982673193759      114.79785902761169
N          101.87769270971330      122.82616522639528      111.77022784454280
H          103.33843222052248      124.08990328162304      112.50680949538808
H          103.62792923785418      122.34798170866408      112.71871093709198
C          102.08072305875733      121.93834358273314      110.78716547888729
H          101.08159754159945      123.44740981319211      111.70367306519933
O           97.67084511688289      119.57764075968360      115.29574239786923
C          101.03821389656548      121.97643444100208      109.68915316548180
C          100.22661877127578      120.68506908138828      109.55285365429376
H          100.36230667465365      122.81012979316712      109.87480510170518
H          101.59124151534081      122.15329730328259      108.76237908466044
C          101.00337429967870      119.59210414655394      108.82743418411749
H           99.92572819182271      120.33832982215201      110.54410148469081
H           99.31482483544750      120.90963540880017      108.99401985609002
C          100.14331822713578      118.34694148826101      108.60060714538041
H          101.33920605521226      119.97043568983047      107.86015363373086
H          101.88908963208218      119.33644005153577      109.40867448130703
C          100.96263780594934      117.26343904069678      107.93318558470000
H           99.77846687326270      117.96545187324180      109.55663699694927
H           99.29150074495301      118.60559760831724      107.97256898292633
N          101.16319296542285      117.42728190371982      106.62328542824918
C          102.03367709055262      116.54447651500729      105.87418110673377
H          100.94595650486555      118.32240762819967      106.19294426475909
O          103.05197123446042      121.18405002156757      110.77222050177998
C          101.93280968350209      116.75987918993042      104.36972616176305
H          103.07128538538710      116.69687759835780      106.19708183728842
H          101.76155259084723      115.51296574997659      106.11861699683072
C          103.01092953910738      115.93438880363313      103.66843010873475
H          100.94718255110436      116.44666221194633      104.02185015900361
H          102.06073530464697      117.82055370189217      104.14665512418489
C          102.91922626051021      115.97503899822308      102.14434607154139
H          103.99653199634491      116.29806530495208      103.96919228788779
H          102.91470901368889      114.90271018809305      104.00901907377127
C          104.13894582956857      115.33121603602596      101.48004712166586
H          102.00902664162894      115.46784548436284      101.81831395428826
H          102.85648336625748      117.01603296610678      101.82101107282959
C          104.24602799767425      113.84116512626088      101.78535463179986
N          105.32240524540047      113.20197763613243      101.05125022297197
H          104.43554595126926      113.67493893173864      102.84912168468824
H          103.29997063122038      113.34666478286759      101.52713847994077
C          105.95250033226573      112.11738454479566      101.50806853905509
H          105.71408991011657      113.69949605293311      100.25873029768869
O          101.39467367677165      116.29629743343666      108.56206781124497
C          107.01923753670241      111.54765122307423      100.59679822949212
C          106.48543636117573      111.13745629318795       99.21878071898045
H          107.80489230926119      112.29314753345221      100.46549474851771
H          107.45927955836562      110.68076513383213      101.09089241934910
C          105.15831103490808      110.37548735574040       99.26242464110994
H          106.35034802264931      112.02932840865481       98.60466035114850
H          107.24793573550954      110.51480343206120       98.74607364144408
C          105.15073376238540      109.17854895779372      100.22152570070396
H          104.36727950348995      111.05744108532298       99.58119328129784
H          104.92105579382688      110.03759748455747       98.25163208609773
C          106.16645203061023      108.10879557858665       99.85946543758160
H          105.37510114792235      109.52629493584872      101.22922111878323
H          104.15267593961650      108.73465137479651      100.22256814753635
N          105.80066401373193      107.32618088510677       98.83064163969644
C          106.55404024508320      106.17495740225789       98.38424522780963
H          104.89704459014793      107.46555457530009       98.40535746610739
H          104.07937218964757      115.46210822210578      100.39815454746592
H          105.03537126765760      115.84417871145264      101.83087519570662
O          105.67544184586477      111.58413743000480      102.58485909724808
O          107.22358502818521      107.96962138318628      100.45974223186325
C          105.77111732521082      104.87001961820276       98.55142893953747
H          106.81447872157733      106.30452686072286       97.32882151764034
H          107.47303585528277      106.14836171561684       98.97091559922718
C          105.36290598094605      104.56379188113343       99.99405541173255
H          104.87294066298301      104.91254240779759       97.93146868285935
H          106.39800505061245      104.05801528029951       98.18097920793741
C          106.56011747975892      104.42211762407213      100.93083356493774
H          104.70474488218845      105.35078822297154      100.36975365761937
H          104.79592954816786      103.63073367175865       99.99563511355305
C          106.17709112843697      103.84095921947952      102.29074738668244
H          107.31705809904616      103.78042151546101      100.47593255125147
H          107.01171822608772      105.40297167647800      101.08852327388826
C          107.41926672777232      103.71627007093169      103.16983315502455
H          105.44952061702459      104.49078003744826      102.77996600097231
H          105.71816590084924      102.85905367894040      102.15925326368261
N          107.08060802385864      103.36270052274266      104.52874549401535
H          108.08828415271839      102.96923048331502      102.73948400016752
H          107.94697845312301      104.67575393660181      103.15345195061869
C          107.79864389890517      102.66884983569896      105.41820011168703
H          106.22515714827233      103.78543719817408      104.89760429257167
C          109.18071164633453      102.19099152226985      105.01730040605200
C          110.20827970331877      103.32317373461200      104.92166550465531
H          109.50741791616510      101.46300501243769      105.76301588969682
H          109.11493847073228      101.68492600520075      104.05267799154009
C          110.46186623689815      104.01497226296212      106.25814543026195
H          111.14797311716768      102.89846403798768      104.56290876389802
H          109.88588686568725      104.06182125802194      104.18697943088971
C          111.49518411898485      105.13905891335011      106.10867982759727
H          109.52601842019604      104.42312424757360      106.64362417243612
H          110.82559212572531      103.28161571023804      106.98217763545684
C          111.94591999890154      105.61348108118993      107.47588261714932
H          112.36381199074083      104.76298614482259      105.56602780882177
H          111.06463972586535      105.96904469913375      105.54940634804498
N          111.15610501080130      106.52295959648448      108.04402697568113
C          111.42894048550194      107.07428241133036      109.35535026368376
H          110.42601133525869      106.95406412175848      107.48274576228266
O          107.32509608179606      102.40371397617244      106.52473334061695
C          110.96253189268894      108.52352336974110      109.48871862070182
H          110.92999868311432      106.45997376118217      110.11629366884976
H          112.50636841492427      106.98802091809104      109.52111100441425
C          111.36703610152914      109.41771342830623      108.31672982710421
H          109.87477702625210      108.54081493034852      109.56314541961974
H          111.36934745974196      108.92820692268617      110.41693941539684
C          112.87773085042176      109.54337731472997      108.12199712372490
H          110.92059444248753      109.03299677826668      107.39888216243286
H          110.93970114085495      110.40917734628125      108.48066331779135
C          113.17958052429620      110.18135618940812      106.77137101860545
H          113.30871984255607      110.14530793336934      108.92360709932734
H          113.34064961156922      108.55739203681213      108.14666630451651
C          114.66362793973258      110.41915412028209      106.51729241343646
H          112.79466195634001      109.52739372200793      105.98639030943549
H          112.65915040173138      111.13782203807929      106.68992751234829
N          114.85017019016591      110.85188194189980      105.14929284363230
H          115.05671056815056      111.17361137282590      107.20861736235690
H          115.23909260555635      109.49818179552220      106.64898818003830
O          112.94133046742957      105.14970658896509      108.03242104569026
C          115.82163426058351      110.38918627325761      104.36192651478602
H          114.13665025852616      111.47062540587024      104.76192547164885
C          115.73545249987623      110.85545692089670      102.91705953219312
C          116.52443768963413      109.95746546625445      101.97018877972455
H          114.68966340492776      110.91455143079087      102.61899254738965
H          116.14910955889853      111.86705404362341      102.88311140561335
C          115.98363328261952      108.53112118173846      101.86975838021759
H          116.54244047768871      110.41044803330473      100.97734179270081
H          117.54893014999219      109.90305405922233      102.34225854860208
C          114.70394745992405      108.38377714738314      101.03761409056922
H          116.75696367054918      107.91376845060107      101.40955285590002
H          115.80356926931962      108.14330506696767      102.87331768278825
C          114.42439716873344      106.90132789513063      100.86538294610860
H          113.85953668316094      108.85458254708271      101.54154130467373
H          114.84361715866801      108.84170761901603      100.05863487250309
N          114.99623445485260      106.35383353621313       99.78908128280473
O          116.72236998647861      109.66299891307953      104.77631013379781
C          114.95755057697895      104.93541153679914       99.50923022391504
H          115.43922376283776      106.94685666450015       99.08970155033144
C          116.31118142349133      104.40670631205943       99.04106870693798
H          114.67123049445075      104.43708942697788      100.43800255202748
H          114.19451808510070      104.72568719209720       98.75018725959193
C          116.28176005800680      102.88245300624052       98.94284319518368
H          116.55988753154023      104.84328153498507       98.07301889731524
H          117.08152390064139      104.71191042369696       99.75074059930965
C          117.65336984766459      102.27913171010002       98.64852322687568
H          115.92123917948703      102.47568292047289       99.89027148262787
H          115.57852682716945      102.58475192607580       98.16240515523907
C          117.56760783526440      100.75644855989415       98.54013473776941
H          118.04575469240883      102.69156409678239       97.71754490628963
H          118.34464574415760      102.55209219313105       99.44751010950007
C          118.93135566926088      100.09635699851836       98.38334549127437
H          117.08684476177251      100.35711592706095       99.43514063699151
H          116.95121896876975      100.49073408071331       97.68043526748863
N          119.67779827597614      100.15598752793851       99.62534676581143
H          118.82002725333801       99.04364015158112       98.09975614589550
H          119.50580580253832      100.58750923072111       97.58944520839333
C          120.86160884466257       99.55878028914076       99.79366918676882
H          119.27965864937696      100.69156887464524      100.38602186740623
O          113.77347827621489      106.24994445123514      101.68304164682635
C          121.44354844700587       99.71745805393867      101.18844591599894
C          122.93200031081601      100.05953867358998      101.14736950152010
H          120.88889878114625      100.49413812715849      101.71317505876956
H          121.30229650168812       98.77003230158145      101.71391224656307
C          123.47399104081816      100.33290708263330      102.54737711552819
H          123.47699168611230       99.23670285370385      100.68147140547987
H          123.08011134822145      100.94412653615915      100.52344447452190
C          124.94355205405152      100.76842605977640      102.52031993861097
H          122.87754243665353      101.12749466289755      103.00400227644641
H          123.36425840764878       99.43827465623116      103.16339326756255
C          125.35525138526916      101.24354277036662      103.90146059048517
H          125.57191755093245       99.94070805303211      102.19155620583214
H          125.06388973711469      101.59484490347329      101.81756994626073
N          125.68865068897715      100.27378410140412      104.75772907994900
C          126.07290556618528      100.52828376837948      106.13462321845496
H          125.69311378114013       99.31467543151867      104.44969674831128
O          121.42744580889092       98.92807527345316       98.90300556833570
C          126.56180629611615       99.26716870391915      106.83799614915131
H          126.87268702173304      101.27598984172072      106.13380467480593
H          125.23273339430322      100.96508882775078      106.68130269776273
C          125.54443625684874       98.12406280445927      106.93549177063409
H          127.45823084285541       98.89678028882777      106.33614204154701
H          126.84360463859737       99.56742638959254      107.84745413590210
C          124.22215790045129       98.55748394903020      107.56360962139664
H          125.34920213614495       97.69874086454840      105.94785465606586
H          125.99751533609432       97.33749598838911      107.54191982967518
C          123.23642228141659       97.41006691327068      107.79246297196870
H          124.41479021257751       99.06618277509358      108.50892764717663
H          123.74416454022926       99.27573309956169      106.89781079384906
C          123.66192512085874       96.40630325572495      108.86641003243605
H          122.27268028606200       97.83560213820745      108.08274652520551
H          123.09192963076538       96.86005061481931      106.86071095153901
N          123.86531985517759       97.02279633368323      110.15670745365055
H          122.89297143134863       95.62888039561976      108.95105322736393
H          124.60468592248802       95.92367863644876      108.60075065013403
C          125.00062960496683       96.89813008715278      110.85731912429463
H          123.10441462403092       97.55308345816505      110.56001754670538
O          125.34197341968263      102.42974334532022      104.21789765777181
C          125.02225730544797       97.68707849272900      112.15315140376872
C          125.27191532833726       99.17583538841126      111.88151035861003
H          124.06832917496877       97.56649108634726      112.66596302211721
H          125.82325118726567       97.28573091652150      112.77524098403153
C          126.48900030977673       99.38497062964888      110.98466221074469
H          124.39431320924395       99.61100372410876      111.40134242066648
H          125.42944400687605       99.68804611153277      112.83279941422467
C          126.90587201896820      100.85536422440703      110.89522414151396
H          127.32853487602208       98.79966538806897      111.36656905631993
H          126.26191911195552       99.01181460396403      109.98477303113629
C          125.74229413764631      101.72898845178243      110.45165997236349
H          127.26363811568193      101.19602932054804      111.86580792850744
H          127.70819193623329      100.94434621277153      110.16145150230184
N          125.26326529751451      102.51645128014712      111.42259518355344
O          125.94862390379855       96.21302773040701      110.48221875449937
C          124.12554426835440      103.39051872043163      111.26299691635515
H          125.71882605490090      102.50433358508749      112.32709029956649
C          123.05082957748158      103.14537314991306      112.32456865263435
H          124.45335983172274      104.43461309225920      111.29695380125966
H          123.71587181955167      103.18845380861639      110.27058494136352
C          123.44073914297424      103.59237119061635      113.73680982503727
H          122.14941367281118      103.68232985092712      112.02017897075419
H          122.82144285794311      102.07824056115521      112.33419882587913
C          123.62550626355474      105.10673961147761      113.84224963084718
H          122.64235453449162      103.28907842290896      114.41671463447616
H          124.35656999148463      103.08442441157575      114.04227633124347
C          123.60498048515301      105.63070641529322      115.27827891550822
H          124.56959568305301      105.39623825165978      113.37798003283881
H          122.81911693382573      105.59417979611507      113.29158635305897
C          123.76383488215289      107.15255540374554      115.27617694410051
H          122.65435441358140      105.37649849657268      115.75114671468431
H          124.41391441209677      105.18162022351000      115.85671342719834
N          123.69845243076800      107.74746448925738      116.59399771399629
H          124.72855953951313      107.41761717776959      114.83185239726252
H          122.96199908534012      107.59422167439097      114.68042707721288
C          122.70022887203872      108.54042198568334      116.98347619088044
H          124.51228884907407      107.61927606309482      117.19537899956073
O          125.29817443612549      101.71531405488093      109.30827151019959
C          122.88173750962301      109.18544999979578      118.34553244751248
C          121.82301454833588      110.25334477985992      118.62567508929635
H          122.83277015269897      108.40039626949726      119.10355187047560
H          123.88171724198052      109.62027953814106      118.38205764886980
C          122.18073769471833      111.10816604346796      119.84253126952927
H          121.71870239018305      110.89651890485659      117.75054004982583
H          120.86087890583089      109.76687181444790      118.78224350685893
C          120.95508989156477      111.66682427666132      120.57486692571050
H          122.77216998973775      110.51930236724932      120.54773594866178
H          122.79356823715652      111.95023342349216      119.52204551694700
C          121.46461964224569      112.54732569440912      121.70167805983164
H          120.36994611657029      112.27417148337010      119.88333200371595
H          120.33242738311868      110.86085547313313      120.96451234094847
N          121.57676116911946      111.94744378876597      122.89482658512622
C          122.24497503051815      112.59298171311443      124.00202997016312
H          121.21920287771184      111.00999394398583      123.04630892189026
O          121.70515951784566      108.75059304770801      116.29016317930731
C          123.61846103158301      111.98048774733331      124.30722171946786
H          122.36327414156830      113.63995967028035      123.71443000684903
H          121.61492766993561      112.52647197437858      124.89193723114262
C          124.41820667301013      111.66641138415459      123.04439535244823
H          124.17237839728811      112.68735266422784      124.92777625226753
H          123.48085152531011      111.07056088688303      124.89147710467785
C          125.89640720327519      111.41796900253647      123.33997907456406
H          123.99234917956967      110.78310534530695      122.56483290743962
H          124.32842327822335      112.49814491556370      122.34154008958028
C          126.59632154643523      110.70621544918599      122.18285617041882
H          126.38058077810629      112.37784312835335      123.52075659681938
H          126.00028925711011      110.81308506262766      124.24285987272937
C          128.11229285468980      110.71283833586725      122.32402268469136
H          126.25223009847554      109.67233226630114      122.13379136135538
H          126.33605158937613      111.19288862758593      121.24159682440960
N          128.63011241734188      112.03951662968367      122.05919496242458
H          128.39942020054369      110.40232784803347      123.33551762093070
H          128.57146239039386      110.00862456364214      121.61980993199974
C          129.92891745951394      112.30026787604653      121.90624003681184
H          127.94737634140161      112.75431729511438      121.82443510050477
O          121.80315846356010      113.70988212566745      121.50671837028280
C          130.23439881425139      113.74768853253781      121.57731444097286
C          129.92596343799116      114.06468170774558      120.11081005860524
H          129.61709618134262      114.38298652039103      122.21173040983261
H          131.28733204537784      113.92886614951873      121.79139962995984
C          129.83808030606144      115.56675130724672      119.85193887214905
H          130.69223053024336      113.62371838118057      119.47020801453257
H          128.96605300526409      113.61855187804258      119.84694939957528
C          131.14055928270508      116.29084631556437      120.18583052831524
H          129.60106519810302      115.73232800005970      118.79820249642076
H          129.02571944788932      115.98960943516043      120.44603531169697
C          131.02760310366480      117.78256225885526      119.94958838654361
H          131.36918036295739      116.15791055860861      121.24493764417672
H          131.96423220427965      115.88558176564088      119.60045969848612
N          132.02932222160746      118.31166357131799      119.24523926175263
O          130.80703081617423      111.44841971892265      122.03794328062666
C          132.18623448752655      119.73138866758812      119.01312386361315
H          132.76249000965439      117.70216302514207      118.90101790650567
C          132.77010104825547      120.01690690032162      117.63482463977672
H          131.20420681406154      120.19790120197258      119.12520383748360
H          132.85011210724699      120.15099193629649      119.78071789516207
C          133.11875424788897      121.49435467866196      117.48471388937033
H          133.67107728432200      119.41415620374970      117.50216841906250
H          132.05562688423817      119.73305315587480      116.86037100457550
C          133.67463841631874      121.81907389991500      116.10105516953500
H          132.22480567375365      122.09919866781422      117.65102998465325
H          133.85123441860756      121.77511867925692      118.24571886001516
C          133.87053521405943      123.32339069702121      115.93776494689939
H          134.62204867673123      121.29764348691629      115.94647302813684
H          132.96978068868475      121.45971770012603      115.34818386467424
C          134.27070346223999      123.71956310554465      114.51261007879867
H          132.92826045577758      123.81655604821692      116.19550801593022
H          134.62592643029481      123.67462576127927      116.64615183577085
N          134.16538866681375      125.14935842338913      114.23779037115862
H          135.29688649583815      123.40880415745653      114.30319093017674
H          133.61717543521709      123.20113759861874      113.80687076507391
H          133.27203789064447      125.47611248139290      114.59788101472084
H          134.88099370821570      125.64616807669988      114.75807507478980
O          130.09233200391586      118.44750246157813      120.39508410880350
C          127.76980870019776      113.08750299900559      111.65475784518864
C          128.10634092301686      111.80494228520169      110.93610598962954
C          126.93852208718342      114.05376158537898      110.80258570597296
C          127.78890561275296      114.78956612876576      109.76942578595627
H          126.14212148981839      113.49733456298883      110.30973413327271
H          126.47749070166114      114.78925897432337      111.46397088081750
C          126.95268586964472      115.78869929371703      108.96508843592402
H          128.58161153341950      115.33455480405271      110.28701451866148
H          128.26058192305106      114.07037356935756      109.09546131313583
C          127.83529689056711      116.62388755883413      108.05706660897827
H          126.23262211700489      115.24831009502840      108.34998391352775
H          126.42766887565064      116.45083311799438      109.65426982628000
N          128.43011827151531      117.65143698854151      108.65869076176473
O          127.05839282253868      111.03532253233260      110.73651240306575
O          129.23285331202456      111.49535765362722      110.59671584308235
H          127.30197311247538      110.14678376667234      110.34991131397189
H          128.69981998826111      113.56607706120009      111.95930695986385
H          127.19702531860661      112.81653674389605      112.54377996347668
C          129.30021321238044      118.57487693064186      107.95773345214147
H          128.12971112889701      117.90073299370582      109.59763878256331
C          129.46233447957638      119.87705640003480      108.73056420736225
H          130.27930572005414      118.10144778794890      107.81446088870017
H          128.87107953675297      118.76029215661286      106.96702601069615
C          128.18853205111449      120.72136507492885      108.75293675627239
H          129.75691405885570      119.63442961092336      109.75439974679828
H          130.27382512559106      120.44522988357188      108.27344179127103
C          128.40388268180229      122.03015540382239      109.51155006115687
H          127.88316247844284      120.94101886208395      107.72897713689170
H          127.38692759711635      120.15368831453164      109.22810201127142
C          127.13502253422782      122.87580224638310      109.57759125950331
H          128.72245537009101      121.80207498081978      110.53122567492417
H          129.19776784908308      122.60364632588185      109.02932656872339
C          127.34776849127661      124.18355099453191      110.35028831483852
H          126.79215291672890      123.11882170021154      108.57130392832589
H          126.34673644242680      122.30189015676605      110.06708646846505
N          127.97922374270073      125.19883646794690      109.53515718263355
H          126.38247148221905      124.58654072570484      110.66342108062592
H          127.96084665025511      123.99531594464378      111.23503528018286