3258
 energy: -3427.588766259740 gnorm: 0.000670145679 xtb: 6.6.1 (8d0f1dd)
C          104.38914269572489      126.44424440974123      112.27244619011240
C          105.80625989154458      126.80537484760836      111.84253356306581
C          106.65309442075785      125.55900357936927      111.60121512306188
C          108.10439884750350      125.88460105823353      111.25285749819147
C          108.88700317337154      124.61789286607443      110.91693503628977
C          110.38294778345784      124.85636383512599      110.72135642996578
C          111.08159258828891      123.57443477389889      110.27487866575034
C          112.60028488057651      123.69707799239751      110.17563863362304
C          113.20443847177228      122.40635129854046      109.62833996629939
C          114.72915471464721      122.41147383431408      109.56054646046564
C          115.23507675691910      121.11956381230996      108.92236356254259
C          116.75001304664102      120.93556307094602      108.97485124760985
C          117.55577222865303      121.99105731067822      108.21658476020252
C          117.21862212751002      122.11746329853389      106.72994580088910
C          117.49007438909105      120.84703201012559      105.92687587282163
C          117.28277766414784      121.07334564676810      104.43111937841132
C          117.62579265157113      119.84005858867481      103.59947509392214
C          117.44439810637830      120.09417628788036      102.10541025478240
C          117.84147438514213      118.89013253466398      101.25622241022872
C          117.61784797290787      119.13258074143103       99.76525850741018
C          118.08397038508970      117.94920270462480       98.92097700103960
C          117.89212799149472      118.14855268793998       97.41669769185674
C          116.43069101865007      118.06138467119064       96.98348902529737
C          116.26879411890688      118.15902754742146       95.46789108089580
C          114.84572146285200      117.85422022581878       94.99817608649778
C          113.83201585995208      118.91726957254591       95.41390202940534
C          112.41267838951522      118.54996968863900       94.98960798176252
C          111.37396394810658      119.61240133581785       95.35028636317270
C          111.23124979873836      119.83987849452900       96.85457722764242
C          110.07158726759029      120.78076803597973       97.17294209828118
C          110.04877523612630      121.25238749853574       98.62817847447698
C          109.83367582972757      120.15193146236001       99.66910539853806
C          108.51907335794159      119.39838197271430       99.47504579195001
C          108.00263867535517      118.71425176139478      100.74153381920571
C          108.88776996897425      117.57485751477216      101.23954391406798
C          108.26861520056816      116.80033790409108      102.40405751135009
C          108.24246735833167      117.57479123574784      103.71843130051776
C          107.67269067160427      116.74104413584342      104.86410747967089
C          107.58723255139768      117.54147288013976      106.16015982189874
C          107.07069986829677      116.71701609519641      107.33677378004428
C          106.92149181846699      117.57352147419046      108.58995188310284
C          106.47899311446265      116.78693530970858      109.82130378774932
C          106.11222805614547      117.72120850805869      110.97182664392304
C          105.77566834420089      116.98739695915326      112.26730210319927
C          105.19827276130701      117.93668962248609      113.31625345053514
C          105.02398139189950      117.27199510306525      114.67887310760601
C          104.28158070908849      118.16859594388221      115.66809998325391
C          104.14886068945009      117.51914317169317      117.04297362891990
C          103.27456681094583      118.32707177197366      117.99868829758269
C          103.20770814180595      117.67927177910349      119.37841633114057
C          102.21330002088244      118.35752333125816      120.31618806949469
C          102.18251342571975      117.68034102485076      121.68373512659215
C          101.11379852416431      118.26849739003315      122.60115449465745
C          101.01668642190771      117.56915140423413      123.96054481516146
C          100.62802786331719      116.08968978477837      123.89622736026932
C           99.19537139524014      115.84752338059350      123.41520346234947
C           98.99726599689909      114.47258115831504      122.77168745687442
C           99.73860788609137      114.27319050186208      121.44704086492216
C           99.33659851178336      115.27272681068207      120.36635287726085
C          100.06159374732864      115.03297380534059      119.04462968674929
C           99.67437694545782      116.08334508642288      118.00681117259232
C          100.34335989267258      115.84674708100312      116.65636279308868
C           99.99716217350360      116.90505879131652      115.60429917316226
C           98.50068097779381      117.17898768671215      115.42870031390056
C           97.69468114762930      115.93769582089902      115.04819076928868
C           96.19624552513243      116.13000386895662      115.26880665463456
C           95.36503382845950      114.90824069264478      114.86973131642590
C           95.79101376114698      113.62917794103508      115.58893888601256
C           94.81054646557604      112.47767748817921      115.37542458016502
C           95.38126825175141      111.16245442296650      115.90179103535999
C           94.38888584114494      110.00601794764255      115.81285911130267
C           95.03163420069717      108.68271439047967      116.22269022576691
C           94.03035483251770      107.52962430147682      116.23153863456071
C           94.66389636092900      106.19232584379475      116.62268576956996
C           95.50182185845790      105.57926414947393      115.50322271470417
C           96.21548167463393      104.30361811503556      115.94334195183616
C           97.05089774415941      103.70681239787669      114.81419996242667
C           97.86604086382607      102.49719142902981      115.26403809498979
C           98.70211917293645      101.92453180346661      114.12257634644534
C           99.65728919359185      100.82833047137628      114.58632804874324
C          100.60118070960016      100.38168477450952      113.47069650607793
C          101.77349167438091       99.56056813385645      114.00071380871677
C          102.84082088685204       99.31092740565850      112.93586661009356
C          104.15286589957671       98.77935060173110      113.51521227082959
C          104.88885489025617       99.81112380244944      114.36575219945814
C          106.23362614437923       99.29963846589037      114.87588743898010
C          106.84880733265592      100.22597951913241      115.92625875484536
C          106.16687578231877      100.11178767303977      117.28700298825095
C          106.61454224081510      101.19101292005850      118.26972522667077
C          105.87118192478999      101.05549029296805      119.59577225517940
C          105.98155054359906      102.28346887239755      120.49373546846421
C          105.06658816167661      102.17743761456175      121.71277299435923
C          105.06597502114529      103.46037023668025      122.53728949231920
C          104.15868354421139      103.40791530832085      123.76704983214491
C          102.67178349755964      103.19809842197438      123.47085140681128
C          102.04864784356357      104.29556482234526      122.60975706489151
C          100.53866579808133      104.10647950385570      122.47012318904555
C           99.85023903537363      105.20174785552950      121.65235162844756
C          100.20797936075782      105.16829966657066      120.16906174153159
C           99.40718069539189      106.17317088412770      119.34294172196097
C           99.87748436331650      106.18633635511266      117.89104152221829
C           99.09123545012616      107.14538628061521      117.00048388279386
C           99.74665349049499      107.28008071184874      115.62727015904839
C           98.92836945175823      108.13318503176359      114.66111435509268
C           99.71448313667744      108.55604004129633      113.41945868169653
C          100.29031903983066      107.40212686484396      112.60019227586345
C           99.24374578800183      106.43475173143774      112.05100787632622
C           99.90909623744156      105.33596323169505      111.22939834671843
C           98.96624123748963      104.22261301377560      110.77929289998363
C           99.75554110268662      103.10945476227900      110.09029216018584
C           99.02417427798372      101.77255193687705      110.02246571953788
C           99.94840673933594      100.67106515672711      109.50757480317938
C           99.35620714314739       99.27168172465834      109.65328774043678
C          100.40076801977507       98.19635487814352      109.36843101865817
C           99.91633052794991       96.78687598420329      109.69874778756436
C          101.06304920220050       95.77888421227304      109.66146032941994
C          100.61934562577463       94.37157092073066      110.05762583383061
C          101.79048746815810       93.44789406284835      110.39557044404668
C          102.71612644204119       93.17672898271496      109.21260393304813
C          103.84208116681629       92.22109479565518      109.58812517024111
H          102.13565188716220       92.75151323607656      108.39025598589839
H          103.14787737635112       94.11551169363538      108.86394560526202
H          102.37087829355590       93.89276299585212      111.20831552230375
H          101.39454654116837       92.49558854337982      110.75894104051525
H           99.97348748321069       94.44089173890924      110.93730098351456
H          100.02709952280392       93.93217966574647      109.25119915989319
H          101.48969169792954       95.76204791412501      108.65709247983393
H          101.84281334686445       96.11116416963191      110.35225397789972
H           99.47526511780858       96.78549888650822      110.69947310585636
H           99.13557513541342       96.48628498844946      108.99589430187353
H          100.69378505036060       98.24620655665034      108.31787925308488
H          101.29122857923242       98.40858116216290      109.96621847500822
H           98.98825159614840       99.14411274521238      110.67553755331043
H           98.50413242406724       99.15012348884295      108.98154167382086
H          100.19699360423428      100.85579047861177      108.46021565408569
H          100.88048257262876      100.70702242966365      110.07832987278191
H           98.68327241773530      101.50524441224169      111.02616143510727
H           98.14358462002596      101.85355436730171      109.38283319908437
H          100.03523878953271      103.42389763297413      109.08284285204202
H          100.67880904505797      102.95406414603447      110.65269565668939
H           98.45534585069780      103.81423931175355      111.65541714119948
H           98.20306133248138      104.62049910817572      110.10685472903118
H          100.38932490954566      105.77986758621950      110.35357754606464
H          100.69337977500935      104.88446531458278      111.84260466766939
H           98.69298610775304      105.97581467256748      112.87504539196254
H           98.52755710083716      106.98017922458384      111.43308939777077
H          100.85147312034867      107.82270424326948      111.76081597201915
H          101.00169820513095      106.84681558604268      113.21510394977956
H           99.06000397407936      109.15731815979296      112.78199769324166
H          100.54260966281834      109.19669253295359      113.73375102734595
H           98.02835185859874      107.59149802170278      114.36123350168987
H           98.60093427458342      109.03816979818251      115.17896589805328
H          100.73420961858049      107.73143450149024      115.75160752449462
H           99.88792289587208      106.28201567651601      115.20641453468281
H           98.06637073403185      106.78443906994839      116.88787301985016
H           99.04212679261765      108.12726543781575      117.47570943764219
H          100.93380803833520      106.46747941785569      117.87129247663849
H           99.80224608771682      105.17501385543559      117.48236074904403
H           98.34427897462390      105.92049172630615      119.38673145661303
H           99.52314141678364      107.17225658541432      119.77076029363880
H          101.27125853728369      105.38452523866846      120.04653765672455
H          100.02340843198793      104.16503215690112      119.77802075634526
H           98.76770842891854      105.08241557261466      121.75434612813511
H          100.11240794482106      106.17701977517304      122.06674183180532
H          100.33510969771388      103.13500738663436      122.01062400754289
H          100.09624266727643      104.08893143023683      123.47029984768031
H          102.24737852723041      105.26865865480498      123.06481277178473
H          102.50791262341872      104.28443445244261      121.62133436828299
H          102.52553940482626      102.23154142933167      122.98363077963991
H          102.14018224118307      103.15754356020469      124.42613769595768
H          104.49642728852139      102.59972606347007      124.42197913762934
H          104.27279560264073      104.34372394361861      124.32074953452623
H          106.08563356332843      103.66667860084179      122.87306830946829
H          104.76278442603213      104.29266747581794      121.90020733147722
H          104.05222011444016      101.96960466738528      121.37025186673355
H          105.38197094801419      101.34080854074581      122.34017594602878
H          107.01659451628552      102.41489052336993      120.81745637171700
H          105.70307527475816      103.17092310448808      119.91960786135313
H          104.81578509318385      100.88703503722178      119.37129649739623
H          106.22930378247331      100.17302920338027      120.12822558973593
H          107.69107310372083      101.12088304422770      118.43495204502881
H          106.41067640640958      102.17481755059910      117.83781769566187
H          105.08410695949505      100.18881278389939      117.16227627998812
H          106.37524362062656       99.12694059699361      117.71456945048183
H          107.90492152260718       99.98038653222125      116.04525220874154
H          106.78507105561818      101.25904593208314      115.57373624998928
H          106.10082695635043       98.30858213796007      115.31092123790822
H          106.92172826402391       99.19927735798495      114.03282710148180
H          105.04741101755576      100.71493069328046      113.77281571486951
H          104.26699774214725      100.08311826727981      115.21831412006213
H          103.94918780603744       97.88826728218019      114.11551136737150
H          104.80574907056914       98.47920370066453      112.69153646708953
H          102.45426248817802       98.59863947741536      112.20191694520106
H          103.04744654148131      100.24554139582931      112.40898308954013
H          102.22004543808984      100.10666388422958      114.83306845867192
H          101.41212746621910       98.60609626281367      114.39216898420166
H          100.05178942760558       99.80801354142642      112.72201641352370
H          100.99527988373421      101.27206598545848      112.97413280159792
H          100.24985077121291      101.21688215253963      115.41844373755333
H           99.09033702958115       99.97326277446466      114.96258102861545
H           98.03709125065630      101.53272718443030      113.34847089457710
H           99.28953302798840      102.73237755581501      113.67887269577803
H           98.52990337535900      102.79730771081103      116.07921743953536
H           97.19692414506636      101.72611059296284      115.65408315318557
H           96.39393481733461      103.41822388908733      113.98990016934113
H           97.73387369772034      104.47292108440523      114.43822285906693
H           96.86677440661036      104.52981455192071      116.79167748973654
H           95.47984430191033      103.56943145393146      116.28200275694836
H           94.85586691231987      105.35583433961845      114.65084012091310
H           96.24831126245006      106.30077949034558      115.16748439594382
H           95.28943110183367      106.33952238387083      117.50695378235531
H           93.87395763758313      105.48748281053010      116.89518650279952
H           93.23290122053895      107.76629349796161      116.94082216945355
H           93.57143813828414      107.43639768724530      115.24393773230753
H           95.84758138240730      108.45995173910532      115.53337421549449
H           95.46277777758205      108.78752176384207      117.22166195571845
H           93.53194249491609      110.21237353370736      116.45926368607978
H           94.01360566388551      109.92455205471036      114.78941852582119
H           96.27622887204436      110.91043249120314      115.32699276017128
H           95.68691618850960      111.29240178105158      116.94300572005754
H           93.86729829795873      112.69855266609586      115.88125542728648
H           94.59580469756972      112.37641323343509      114.30893531306245
H           96.76973764203785      113.31710656720811      115.22141168222782
H           95.88223661458279      113.82681900880753      116.66013295258136
H           94.31520155910545      115.11327190061907      115.09653148338484
H           95.44516626658259      114.75357584182044      113.79212860367763
H           96.02092992439161      116.34888557946455      116.32616468467171
H           95.85198044852559      116.99502519724427      114.69545609715129
H           97.87976173533734      115.68276119790082      114.00208166539768
H           98.02526047944099      115.10213189104208      115.66156554491077
H           98.10258267306978      117.59435005628252      116.35696928914996
H           98.37284484593106      117.94601308141000      114.65974289004293
H          100.47915055585607      117.84694466911220      115.88135359049102
H          100.41951197294325      116.59036377227100      114.64663242084430
H          101.42766725616512      115.84686855434771      116.79251912802347
H          100.06717645926283      114.85782840802536      116.29064071748282
H           98.58947256095801      116.06111239379371      117.88928731401646
H           99.94574715434845      117.07584011346022      118.37572983990088
H          101.14081465324405      115.06229444947350      119.21337674305227
H           99.81375065759131      114.03980326751379      118.66507779629379
H           98.25651803182325      115.21151539864064      120.20437015965500
H           99.56344024108381      116.28584631878967      120.69927769042584
H          100.81625030138810      114.33328765261500      121.61212944958559
H           99.52654512019134      113.26380610278324      121.08836103022701
H           99.32401156027353      113.70110556912653      123.47458714704382
H           97.92794575705567      114.32363066524577      122.59783957151981
H           98.51315777753997      115.93740799427736      124.26505034552146
H           98.90535653240390      116.61587307583140      122.69992434177618
H          101.33059000213724      115.56876495951671      123.24778783185222
H          100.73896937290475      115.65647550120464      124.89376616772054
H          101.98624834460475      117.65007024898924      124.45932868392005
H          100.28604252262539      118.10100721936045      124.57654172879842
H          101.33920217994664      119.32419775199229      122.77577346310174
H          100.14558112965334      118.23095165884421      122.09605166744184
H          101.99078480879000      116.61791809551198      121.53180998008689
H          103.15957111048790      117.77880263382905      122.16178785898458
H          102.47125814960336      119.41159206066943      120.43523675787323
H          101.21549362353116      118.31569068407627      119.87129288173213
H          102.92477616488716      116.63038528897040      119.26357721968159
H          104.20090400755797      117.70284361188649      119.83204255243083
H          103.67310797855585      119.34095159749015      118.09168207457286
H          102.26640958602340      118.40780144385538      117.58574628179237
H          103.72029791545451      116.52111681717116      116.92439137914866
H          105.13997897487907      117.39583095780515      117.48338450509269
H          104.81004506289287      119.12202916665196      115.76428629686072
H          103.28498219824442      118.38503627825196      115.27470716215747
H          104.46870071101590      116.33955690430882      114.55653280019824
H          106.00680710881568      117.01655331392421      115.08367517597695
H          105.85437115927803      118.80502171382514      113.42078764084062
H          104.22583484787712      118.29824579718901      112.97072854649517
H          105.05357001125738      116.19516235278425      112.05977978776981
H          106.67640818902940      116.51088707086996      112.66129438384881
H          106.94168284465599      118.41002959576132      111.15671370624635
H          105.25038329232385      118.32467500615743      110.67255307367132
H          105.61281095666796      116.17153332066299      109.57110975971229
H          107.28279263782990      116.11661398936209      110.13351245782174
H          107.87788333960398      118.05572159122201      108.80206009210232
H          106.19364312281455      118.36430601590403      108.39141281483096
H          106.10350053373493      116.27988261729938      107.07809013114563
H          107.76084046775573      115.89435749436423      107.53387962174936
H          108.57821448602228      117.93260967744577      106.40613287097926
H          106.92630374323960      118.39933222882371      106.00574398480374
H          106.67643901887131      116.38487393094000      104.59072365045131
H          108.30023523847687      115.86120124050156      105.02094175512393
H          109.25827968743222      117.89220701037574      103.97152924291521
H          107.63567591739314      118.47512731941599      103.60286118124233
H          107.24940315781932      116.50979202400339      102.13833109618338
H          108.83967686460437      115.88040623725314      102.55474348330149
H          109.04552004906590      116.87891047377830      100.41390457054960
H          109.86277151757888      117.96210733059732      101.54185908920913
H          107.88938916524829      119.46955628773850      101.52193604812932
H          107.01178717876370      118.30712001871726      100.52738458981874
H          107.76160048451740      120.11604169947182       99.14677838384121
H          108.63270920144681      118.65262368431080       98.68483966746754
H          110.67317365594994      119.45680124977071       99.64375185476047
H          109.82903651360868      120.62215258494561      100.65486881145210
H          110.99345799881097      121.76021386767934       98.84432718792682
H          109.25058888746331      121.99285419030693       98.73623281921986
H          110.15499608191141      121.66523165817435       96.53427908947884
H          109.12602320452424      120.29368937059489       96.92629131203533
H          111.07424189032407      118.87878964331378       97.34492904685841
H          112.15251165215867      120.27264656426559       97.24981537384070
H          111.63912164443326      120.55656259597727       94.86625025023041
H          110.40502949247549      119.30185087948087       94.94850281314653
H          112.39463030724870      118.39403782525990       93.90787485133920
H          112.13314096845771      117.60438345452491       95.45985682329038
H          113.86219691874572      119.03686851929012       96.49665129680119
H          114.10561337723618      119.87471703283838       94.96232285624119
H          114.84105957388928      117.76687956649346       93.90825463984095
H          114.53949136757416      116.88708425881771       95.40387727344095
H          116.55781495279754      119.15707048083775       95.13101247513896
H          116.95095667305522      117.44504735071705       94.99799614441407
H          116.01826583223176      117.10790136763991       97.32269708461872
H          115.86613812097410      118.86240777453897       97.46141676350258
H          118.30778183355061      119.11616654804465       97.12204482007679
H          118.45816224730137      117.37578611078574       96.88884320563677
H          119.14397829419509      117.77441680142833       99.12135107224924
H          117.53953825444810      117.05444787461091       99.23118840592325
H          116.55510476212359      119.31037936408170       99.59260380674095
H          118.16148650570564      120.03108267492610       99.46075531511006
H          118.89466882438975      118.65774619466868      101.43117527759146
H          117.25588451564388      118.02278098245476      101.56999777711030
H          116.39957274817738      120.34552718365887      101.91260076982117
H          118.04698016633016      120.95721113980639      101.81016752610452
H          118.66120530843268      119.55085295548180      103.79415341066822
H          116.98571538199973      119.00844875602365      103.90423463083872
H          116.24248479679024      121.35501361069953      104.24858432550650
H          117.90891622056108      121.90825722745188      104.10434369044960
H          118.51870992613256      120.52338752666104      106.10312803547551
H          116.82600009678090      120.04752011995612      106.25999927307031
H          116.17266979249824      122.40579251036462      106.61027318491854
H          117.82392050576375      122.92830858688235      106.31390188397735
H          117.40679985084689      122.96387322069302      108.69091577181248
H          118.61688713866067      121.74412045923671      108.31358251513196
H          117.07037558172723      120.94657246854902      110.01935821481214
H          116.99078819727262      119.94826951691873      108.57543057167092
H          114.77776233659516      120.27893516160778      109.45100077338104
H          114.89328400241219      121.07126166590167      107.88724315548518
H          115.06439897878109      123.27407593317042      108.98116460042949
H          115.13876715050053      122.50633687550739      110.56927652736995
H          112.88618498631057      121.57336550653420      110.26061822261903
H          112.80773767024179      122.22939021027506      108.62557537090676
H          112.86112472871338      124.53222678929821      109.52053813300780
H          113.01542880448746      123.90768377117585      111.16373295919099
H          110.84219567282865      122.77535210346876      110.98156101133908
H          110.68516216756485      123.27938389707123      109.30054665610614
H          110.53545266711120      125.63656473806567      109.97134301136798
H          110.82060316955202      125.20806056392949      111.65830845437632
H          108.74674964645045      123.89093818243668      111.72165147856377
H          108.47283042692703      124.17921166890538      110.00659267210537
H          108.13149923340946      126.56668995958572      110.39922339614071
H          108.57497450692594      126.39674259793968      112.09574189947399
H          106.63053302174977      124.93374479278035      112.49770530006612
H          106.20973746631104      124.97964418879668      110.78793445260190
H          105.76978384849292      127.40150605323150      110.92735379665207
H          106.27407736916851      127.42068148507829      112.61510770255713
H          103.79104063690538      127.34032782282810      112.42124863993604
H          103.90662051909673      125.82967799431484      111.51519136765849
H          104.40727855305121      125.88476746876253      113.20536480768097
H          104.42225135275743       92.62542405070899      110.41547218605176
H          103.44237694646880       91.25642272881834      109.89450872208886
H          104.50998951018870       92.06480793316861      108.74407013187566
C          122.99785707723586      118.99733559246737      111.88889521416752
C          122.10284716508785      120.16380141667184      111.48892780458289
C          120.79244215589482      120.16851380212546      112.27225180206116
C          119.87556184588236      121.31101174881877      111.84085530325122
C          118.55838750773799      121.35478572621118      112.61596711412027
C          118.71557950453784      121.82816889825502      114.05880699122110
C          117.38303291302087      121.82920617492958      114.80292677289206
C          117.52724711299987      122.30719279949102      116.24513000213885
C          116.22733039898910      122.16100010469695      117.03149085552839
C          116.37936933353383      122.59428305011394      118.48729226660512
C          115.15683387746738      122.23111270294470      119.32599615021363
C          115.39464719550693      122.49427319703069      120.81022246917979
C          114.18613749492626      122.17573673889842      121.68957416184585
C          113.88554728298962      120.68260706234548      121.82369897150342
C          112.53026587309377      120.45472374979835      122.49217026715029
C          111.97499343864574      119.04281147475274      122.30959586513444
C          110.50163375524738      118.98773186621281      122.70833400469466
C          109.82225279842109      117.66021348001611      122.38164552835138
C          108.33316102715328      117.71823970239042      122.71250215981613
C          107.59027569930657      116.41054176888500      122.45120498894759
C          106.09538939706908      116.58597767407836      122.70959538293802