3258
 energy: -3427.585685297215 gnorm: 0.000916209258 xtb: 6.6.1 (8d0f1dd)
C          104.39015482937752      126.44434799914400      112.27267921331297
C          105.80713453543667      126.80593827969115      111.84326030890591
C          106.65360822459138      125.55937830187716      111.60143852254281
C          108.10494839112320      125.88545324751900      111.25329657908320
C          108.88722054201288      124.61844819577135      110.91713006971092
C          110.38327441732955      124.85717343430233      110.72170876487029
C          111.08161033204330      123.57496077794879      110.27495484045042
C          112.60047977263474      123.69798348075537      110.17598570268119
C          113.20448946110703      122.40704357028453      109.62851288596775
C          114.72945023763535      122.41266454484507      109.56098937132985
C          115.23478146423011      121.12035464863436      108.92266209106906
C          116.75004972390634      120.93597398431469      108.97514490284642
C          117.55499749712935      121.99167455302475      108.21609817122516
C          117.21702993973395      122.11749348829521      106.72965424780105
C          117.48922483501603      120.84686990452425      105.92682664821214
C          117.28155071414137      121.07388915721191      104.43101261293151
C          117.62489174479255      119.84032989934991      103.59953424862451
C          117.44309597440738      120.09475284814113      102.10535127815639
C          117.84058909595819      118.89038187720467      101.25637499098033
C          117.61667013785819      119.13299825304441       99.76524019742038
C          118.08304780566286      117.94930543760736       98.92110621522532
C          117.89164037830169      118.14897921750753       97.41662082140883
C          116.42999623456043      118.06162254901243       96.98329194330877
C          116.26839447908132      118.16004516161594       95.46738784441429
C          114.84502901277335      117.85519988561207       94.99788560464708
C          113.83131026709954      118.91841920633591       95.41407966025956
C          112.41193231715414      118.55055455642605       94.98953498225545
C          111.37330807471915      119.61315356989324       95.35038479698329
C          111.23039768124482      119.84002528829703       96.85495155585406
C          110.07018973051390      120.78071867180618       97.17295589314675
C          110.04784135508000      121.25265244344500       98.62804868702673
C          109.83341510191015      120.15231793543298       99.66950312677501
C          108.51867758990119      119.39876309784360       99.47469955313339
C          108.00140519826212      118.71496345937089      100.74120885901391
C          108.88716300416854      117.57566860535994      101.23923376276923
C          108.26794616832407      116.80076923877178      102.40391930084444
C          108.24240464736253      117.57579779859401      103.71830518234266
C          107.67249271716538      116.74137351243414      104.86389853695559
C          107.58711910382186      117.54255434666707      106.15993213441367
C          107.07060634987366      116.71746007765374      107.33660075503236
C          106.92110860804809      117.57476737456990      108.58967573810538
C          106.47878240933635      116.78749152936959      109.82114970318975
C          106.11188702245119      117.72224222002230      110.97174413382614
C          105.77533758244235      116.98789874209972      112.26736111513841
C          105.19751636674224      117.93769356276985      113.31617057518629
C          105.02315387193609      117.27229712128867      114.67881733428682
C          104.28071986977348      118.16963033495396      115.66785253238653
C          104.14844084248018      117.51974531461561      117.04295765564309
C          103.27382418429050      118.32808500319251      117.99857828608280
C          103.20739611930099      117.67982245793318      119.37847381909883
C          102.21267701631169      118.35845458697474      120.31615125183392
C          102.18242617816088      117.68096984756168      121.68383910731103
C          101.11330404031126      118.26922463196351      122.60114320135240
C          101.01740480350669      117.56920713599216      123.96022519962052
C          100.62919434359037      116.08944487222071      123.89581442966876
C           99.19636684262071      115.84778314673849      123.41442985658956
C           98.99784492008796      114.47277170042675      122.77140515593489
C           99.73906021420733      114.27293775847306      121.44655472621699
C           99.33631233750167      115.27318326934500      120.36652553807043
C          100.06114847318702      115.03367568660605      119.04445534170836
C           99.67327425675072      116.08435027453785      118.00684455431245
C          100.34298005892830      115.84782655841612      116.65640990715120
C           99.99627612516348      116.90649569977927      115.60428823049180
C           98.49946148091500      117.17910308326417      115.42920983417305
C           97.69412169691761      115.93732831980161      115.04824960614889
C           96.19551988990492      116.12951400207567      115.26898342343996
C           95.36484392203617      114.90775187729007      114.86928598652999
C           95.79072204060911      113.62864467070366      115.58868950507247
C           94.80988523075196      112.47739783969340      115.37482645681352
C           95.38060115600202      111.16220297586506      115.90151871541181
C           94.38811051695409      110.00576990350963      115.81217714352546
C           95.03127583947074      108.68267922392310      116.22233471066092
C           94.03005634912022      107.52942433266513      116.23091786333659
C           94.66387729042751      106.19256237657797      116.62252406662840
C           95.50165524232624      105.57937828028537      115.50289067263327
C           96.21513464752736      104.30374657313038      115.94375342345309
C           97.05050751747116      103.70692869022872      114.81440755732704
C           97.86585205825763      102.49750938383995      115.26490309375022
C           98.70234603408430      101.92548483373599      114.12320903505078
C           99.65684614602708      100.82861150743378      114.58745914652195
C          100.60073397331212      100.38190869391495      113.47154134297422
C          101.77312561734038       99.56078892112858      114.00211505450706
C          102.83985124986511       99.31052690378813      112.93640803768439
C          104.15191662848629       98.77817390995182      113.51544740832684
C          104.88799283210521       99.81030743368125      114.36588936686098
C          106.23268518078432       99.29784813075943      114.87586557419786
C          106.84820169363120      100.22491776867568      115.92589831491354
C          106.16605062631653      100.11071832453976      117.28692000215311
C          106.61433741812898      101.19047368833472      118.26929879136867
C          105.87116399375066      101.05473742087517      119.59582427949675
C          105.98157698886001      102.28333655524911      120.49350860064810
C          105.06651605378705      102.17696774769290      121.71283672918510
C          105.06611202172017      103.46056017765250      122.53688440568594
C          104.15881037674457      103.40738529921254      123.76696213571761
C          102.67204824589612      103.19750376782282      123.47020330705847
C          102.04930184648499      104.29538252245347      122.60892435680555
C          100.53912008749762      104.10582595985009      122.46955436232494
C           99.85059850868203      105.20149208978911      121.65248353534528
C          100.20841863995388      105.16796147461001      120.16898130264836
C           99.40662324708639      106.17287835443103      119.34346085285469
C           99.87729218907252      106.18575614115338      117.89144391386145
C           99.09057897037121      107.14496731594669      117.00098119823268
C           99.74672414578833      107.27934005420205      115.62768398979745
C           98.92802771134248      108.13247523686074      114.66139347581654
C           99.71403317945305      108.55606684301323      113.41964515394048
C          100.29023479014344      107.40193828336886      112.60020767090650
C           99.24308200262534      106.43460101452348      112.05134274173064
C           99.90912868131224      105.33579230634524      111.22972092114875
C           98.96581419847816      104.22239878356119      110.77969084647413
C           99.75564002662277      103.10910867905119      110.09079274379788
C           99.02369906596098      101.77215877789445      110.02336014330879
C           99.94807388217053      100.67056394767367      109.50817098558677
C           99.35510564768175       99.27126418821635      109.65395188469928
C          100.40007133094915       98.19620161287699      109.36857688417471
C           99.91519267101935       96.78671430293736      109.69875837347581
C          101.06244180223693       95.77918874179467      109.66115490809170
C          100.61854907758048       94.37161271939237      110.05645377942672
C          101.78991303312232       93.44847247595513      110.39435920512945
C          102.71549467885669       93.17767255632579      109.21120257608000
C          103.84117645713567       92.22189464540179      109.58725928564319
H          102.13503798674537       92.75195924488813      108.38956515240334
H          103.14701056932833       94.11652800575939      108.86193971656471
H          102.37006052871239       93.89299357045525      111.20746871795600
H          101.39428925689023       92.49611510061260      110.75647955071300
H           99.97295916086887       94.44119352080783      110.93582174983268
H          100.02726634975778       93.93313941141564      109.24937694424604
H          101.48947667802295       95.76347189050885      108.65693140230647
H          101.84191685052896       96.11156753208260      110.35236037043107
H           99.47510921895494       96.78592582094100      110.69937675719920
H           99.13512763170668       96.48711604069533      108.99548779620572
H          100.69298460258236       98.24694437975170      108.31803790039659
H          101.29077798741351       98.40888185271874      109.96596321680870
H           98.98808321674046       99.14415230653610      110.67598784296732
H           98.50396380463711       99.15064576455930      108.98171754049520
H          100.19664562653924      100.85583632122801      108.46093792340636
H          100.88049338800549      100.70663807052466      110.07850458784097
H           98.68394709490511      101.50556830406191      111.02705768107205
H           98.14406248421224      101.85389042463322      109.38338156992380
H          100.03554260851625      103.42374538225110      109.08356674648934
H          100.67888664135678      102.95405592412794      110.65341150157009
H           98.45599210106455      103.81435343298675      111.65591598307550
H           98.20390681690378      104.62055630425499      110.10689328075948
H          100.38966153305904      105.78011913882818      110.35439259759018
H          100.69321645666986      104.88461277490646      111.84334112268782
H           98.69342884511296      105.97593783357696      112.87555948139193
H           98.52806712493791      106.98033314756155      111.43322811764041
H          100.85133538595595      107.82265565997820      111.76093232682655
H          101.00163063445869      106.84693463913122      113.21526735742853
H           99.05940771568935      109.15642937322291      112.78210309476849
H          100.54235352439393      109.19693180649463      113.73306147750908
H           98.02926862169842      107.59040862151393      114.36070936742586
H           98.60100743522673      109.03738676539723      115.17896455215664
H          100.73427578306983      107.73106883425548      115.75152461551210
H           99.88811211671562      106.28160256058230      115.20671029178131
H           98.06673799636204      106.78351033347020      116.88725310718395
H           99.04180941675973      108.12693939694671      117.47546973552741
H          100.93374000615131      106.46691309868993      117.87094543085674
H           99.80169500419881      105.17500517651141      117.48256999170972
H           98.34475890436680      105.91904657844699      119.38618600824938
H           99.52226172152778      107.17198117297833      119.77071709497480
H          101.27179421911167      105.38434283068796      120.04564058113218
H          100.02345566160551      104.16519621731251      119.77783602385037
H           98.76875985045413      105.08149166045025      121.75331758747595
H          100.11291809883559      106.17669786040950      122.06657622069004
H          100.33611006682167      103.13499691793734      122.00961240347320
H          100.09807451201503      104.08901232025252      123.46959887650549
H          102.24818010984143      105.26824093216608      123.06426650962361
H          102.50919577616305      104.28544390817432      121.62057153534838
H          102.52629303866048      102.23131614408351      122.98305459779556
H          102.14104547324798      103.15840943115668      124.42507496890912
H          104.49721474152152      102.59907416708747      124.42052598200866
H          104.27365506473768      104.34327197468090      124.31985830998653
H          106.08588401381473      103.66706540387499      122.87161031001526
H          104.76250455402045      104.29225904638183      121.89909099082085
H          104.05262045075438      101.96947590643742      121.36993617184038
H          105.38310410562919      101.34122701361795      122.33981635329717
H          107.01663187657100      102.41475687799452      120.81668956533976
H          105.70321008052692      103.17053031621798      119.91895824305045
H          104.81624899112801      100.88637608454673      119.37114449542808
H          106.23066730328047      100.17319299325356      120.12788413290309
H          107.69086749304006      101.12022440681048      118.43399754518454
H          106.41081681792645      102.17430394885999      117.83731481379164
H          105.08380090432969      100.18813540245851      117.16208539299744
H          106.37568300682267       99.12675983211923      117.71430474744872
H          107.90428185401259       99.97955774922487      116.04495988813855
H          106.78455701959064      101.25794346217747      115.57311726617317
H          106.09949716821043       98.30785366511033      115.31203504772387
H          106.92060802043868       99.19722327116210      114.03282908471591
H          105.04774855399857      100.71402552235854      113.77309675898675
H          104.26685588802266      100.08241382733401      115.21856389971168
H          103.94809346655229       97.88855600008868      114.11655769946648
H          104.80534257035801       98.47862092047143      112.69217761912093
H          102.45303639699239       98.59748268810519      112.20405673669448
H          103.04729492795978      100.24422586893155      112.40787638346291
H          102.22003141757791      100.10637251855367      114.83450118810737
H          101.41183824691019       98.60655178395092      114.39199135536444
H          100.05191120680973       99.80718782401848      112.72386742105672
H          100.99470068888108      101.27188608855926      112.97375631109595
H          100.24916369963552      101.21627371908794      115.41996425262909
H           99.08944491052509       99.97392574421089      114.96155332909011
H           98.03785688538272      101.53375560263932      113.34909939043780
H           99.29035228789306      102.73352249153056      113.67995479568495
H           98.52943678299185      102.79742442972979      116.08020235957029
H           97.19681590304992      101.72649722247172      115.65309747990911
H           96.39362004059730      103.41759020503433      113.99071840422671
H           97.73335966460132      104.47302550974956      114.43750902622035
H           96.86629209013836      104.52950422547475      116.79212137868181
H           95.47936504338358      103.56996850930966      116.28078961447916
H           94.85564651379741      105.35518292509029      114.65117044204777
H           96.24803974742613      106.30077848939857      115.16600347569570
H           95.28938133355365      106.33992352924685      117.50665848967741
H           93.87438590230543      105.48767515136912      116.89401712211769
H           93.23349516705900      107.76646794917464      116.94033250898471
H           93.57176546911164      107.43627783317527      115.24334931010129
H           95.84800153111625      108.46034713344935      115.53347796287005
H           95.46216450799538      108.78785657488902      117.22131430248862
H           93.53230220882672      110.21221992307876      116.45903404844270
H           94.01335685104793      109.92439534194332      114.78881057662269
H           96.27647028548395      110.91021337417368      115.32746915374636
H           95.68582917496367      111.29234931465034      116.94273901853815
H           93.86769856080340      112.69815366868616      115.88131016287305
H           94.59551520901843      112.37613893703454      114.30847558563821
H           96.76985159840228      113.31608186946400      115.22177990126281
H           95.88181120619417      113.82620997412745      116.65972008461756
H           94.31565533947933      115.11205190246935      115.09692856846723
H           95.44508979758837      114.75305746318917      113.79182337809480
H           96.02076508755188      116.34759083986033      116.32611663218219
H           95.85228570452063      116.99400964282201      114.69529180905604
H           97.87975679242865      115.68298032298604      114.00210721525194
H           98.02517818436866      115.10137415162947      115.66110490547126
H           98.10230528716143      117.59352454042924      116.35771080058196
H           98.37217426278939      117.94539728914197      114.66027236794679
H          100.47773919521616      117.84777140485393      115.88285500468550
H          100.42025825126719      116.59245717504220      114.64700009280638
H          101.42746187610408      115.84739774404419      116.79231190286343
H          100.06730222066294      114.85871397918886      116.29065174576682
H           98.58911860198418      116.06034632890403      117.88835156869473
H           99.94479071016696      117.07642061784526      118.37529142556005
H          101.14066818963950      115.06257635609511      119.21232330384807
H           99.81363911967317      114.04059355031929      118.66450330557835
H           98.25707556868755      115.21080475295817      120.20427997689579
H           99.56380546133447      116.28575419218323      120.69945338818563
H          100.81703177081015      114.33253788206240      121.61058752358554
H           99.52701984031859      113.26389189749413      121.08713514902369
H           99.32496093003981      113.70124131665622      123.47357126302215
H           97.92922743573669      114.32409859115191      122.59643457461350
H           98.51526905573844      115.93678164108120      124.26432159307183
H           98.90647413613127      116.61601802605705      122.69936584693470
H          101.33233171832492      115.56779414937638      123.24828691580640
H          100.73939785680592      115.65720074214539      124.89339526892414
H          101.98701012177189      117.65117108607832      124.45863179092109
H          100.28613354600213      118.09992585570497      124.57528642976776
H          101.33936601837502      119.32435289208173      122.77545777142747
H          100.14589116304296      118.23059187538757      122.09567909678137
H          101.99117678569571      116.61855477792314      121.53135319280989
H          103.15970103589686      117.77937223471631      122.16134534919254
H          102.47133938774819      119.41187701913715      120.43468930376469
H          101.21577289203800      118.31527883499555      119.87089959218187
H          102.92478071697698      116.63099648326792      119.26307026182342
H          104.20084320737877      117.70308059802400      119.83139322899677
H          103.67308372346838      119.34105576533429      118.09128152026103
H          102.26632467309403      118.40748391293850      117.58543038899020
H          103.72026456315588      116.52171476163265      116.92396280075175
H          105.13964392054623      117.39617232510417      117.48298502952902
H          104.80977099502252      119.12207054681717      115.76371458754457
H          103.28450977922174      118.38457172307133      115.27436698506044
H          104.46744222791119      116.34031921596171      114.55594374678076
H          106.00584942951902      117.01614619357957      115.08321153070759
H          105.85409195824280      118.80506563166827      113.42080095640698
H          104.22530681190524      118.29791916767962      112.97063103911358
H          105.05353594540559      116.19570565486633      112.05949030747276
H          106.67597812413165      116.51136088679625      112.66133292348937
H          106.94143111358476      118.41023170375570      111.15658882638223
H          105.24993827276715      118.32436341245709      110.67252627001176
H          105.61269317115685      116.17237128206989      109.57083217279428
H          107.28242466241828      116.11710791984251      110.13331902252295
H          107.87709543894132      118.05687686141395      108.80189789709073
H          106.19235630414492      118.36380558394031      108.39111971963885
H          106.10360486427135      116.28054168354802      107.07827645981206
H          107.76059367464042      115.89485227177472      107.53414954442533
H          108.57776881640252      117.93314404687155      106.40608178371684
H          106.92532344414276      118.39877917200171      106.00555107422211
H          106.67638179615243      116.38549000001467      104.59089542420182
H          108.29976047176925      115.86141946737187      105.02095648560642
H          109.25803497133184      117.89208437778471      103.97126740024747
H          107.63510720395875      118.47499893412531      103.60297731399156
H          107.24879277297509      116.51070949607650      102.13860132878355
H          108.83875260169475      115.88073713002680      102.55461848036842
H          109.04475036557000      116.87892390399358      100.41437130685851
H          109.86188178839565      117.96234484417974      101.54206434776806
H          107.88886718548115      119.46942471455742      101.52189295644996
H          107.01132093070318      118.30649032434788      100.52718170117728
H          107.76171493712083      120.11639260176806       99.14729387856678
H          108.63237396378513      118.65263069247513       98.68510065370936
H          110.67263879033210      119.45676349345969       99.64485602835562
H          109.82773382545987      120.62199722330031      100.65523364641142
H          110.99240796902106      121.75972728844714       98.84422553128356
H          109.24923146061811      121.99161939529999       98.73690505745085
H          110.15503651363763      121.66470951199295       96.53506876340749
H          109.12494402652453      120.29371233669055       96.92601324984250
H          111.07408991981775      118.87858067627688       97.34535739924840
H          112.15114543690095      120.27314487665912       97.25036889259133
H          111.63999529921342      120.55683108769593       94.86793276132771
H          110.40483212606117      119.30279552910595       94.94830461237837
H          112.39466740518365      118.39523547831925       93.90812364361192
H          112.13279092712968      117.60425525911475       95.45907866102198
H          113.86165066639033      119.03808194649392       96.49679942622407
H          114.10465957447492      119.87471447785347       94.96156351229003
H          114.84038904245814      117.76881244071791       93.90827697459096
H          114.53898679947363      116.88747269879460       95.40303471925280
H          116.55663730499973      119.15811857504464       95.13175453154412
H          116.95044244977838      117.44613926069174       94.99769307402576
H          116.01725437483269      117.10789579163135       97.32245566690787
H          115.86559441331788      118.86236674966248       97.46133433002392
H          118.30610483699122      119.11664675918611       97.12292402608253
H          118.45760291819273      117.37622406942666       96.88911845216033
H          119.14278552869918      117.77469245036151       99.12135814388310
H          117.53849832224219      117.05424825452329       99.23109877989494
H          116.55401731291182      119.31035652996709       99.59240600430145
H          118.16078001158051      120.03051250399265       99.46106418059850
H          118.89365501846466      118.65876733356157      101.43071122971021
H          117.25562657275987      118.02237538161690      101.57016801876608
H          116.39837518367817      120.34572065887890      101.91253003273282
H          118.04615365160245      120.95661975748322      101.81033563265026
H          118.66028277313772      119.55193254343499      103.79360372753507
H          116.98549912530007      119.00801322352612      103.90439389801122
H          116.24146589994220      121.35544853680882      104.24870025462378
H          117.90837141092354      121.90752240216088      104.10471778779049
H          118.51793744291778      120.52423670239710      106.10268931509579
H          116.82600060534263      120.04639757431420      106.25985796638177
H          116.17115394539262      122.40540289521287      106.60986545032445
H          117.82272741300126      122.92716465486039      106.31378011972011
H          117.40507272388525      122.96369121552428      108.69062022997750
H          118.61561071368388      121.74422596488373      108.31297888813707
H          117.07008230607855      120.94681633421587      110.01955918550328
H          116.98992821616970      119.94838844201664      108.57589911748708
H          114.77668918904368      120.27937158409847      109.45041869252636
H          114.89365364695992      121.07273303411267      107.88752503254743
H          115.06378704594013      123.27386143511441      108.98033791589712
H          115.13917245035049      122.50762941774684      110.56932678984424
H          112.88587649605886      121.57321734297409      110.25991597851589
H          112.80841608463554      122.23056289472962      108.62560809479797
H          112.86047932463353      124.53173489450789      109.52001559938493
H          113.01571088875050      123.90846979776336      111.16369277969338
H          110.84188404300798      122.77494185871134      110.98083498843951
H          110.68574441611980      123.28039900761526      109.30041768822747
H          110.53516639659402      125.63589325468512      109.97106271561458
H          110.82130792531437      125.20858282425898      111.65821747720121
H          108.74666730466319      123.89058480134973      111.72123591130641
H          108.47360684825520      124.18020410399573      110.00648528457239
H          108.13184548193001      126.56623646069551      110.39939604044078
H          108.57577427919263      126.39707159510584      112.09591615819559
H          106.63088101992994      124.93310940292288      112.49732130104643
H          106.21063889013627      124.98075932118873      110.78757525243996
H          105.77065422589786      127.40124048503837      110.92807490069515
H          106.27482755785371      127.42074031253645      112.61593878235868
H          103.79222413015587      127.34050668084916      112.42077410451890
H          103.90774032132680      125.82965365482463      111.51545089181715
H          104.40718394952289      125.88534720122155      113.20603886188334
H          104.42116768714826       92.62546603296610      110.41521492954951
H          103.44024362919583       91.25785482911076      109.89311483574241
H          104.50968580583177       92.06501833650599      108.74372751318361
C          122.99671339775053      118.99682544348569      111.88965117270709
C          122.10203220173703      120.16326079174624      111.48915901898184
C          120.79167939211801      120.16802396844173      112.27268216174564
C          119.87557303569379      121.31123363436942      111.84118574705954
C          118.55824412078537      121.35527965790597      112.61619510638749
C          118.71637300236749      121.82793986844351      114.05935817929252
C          117.38336261694546      121.82944227168592      114.80301433543637
C          117.52815873760341      122.30745946990133      116.24537325397895
C          116.22794474918564      122.16093954837849      117.03162250418463
C          116.38035410013285      122.59448555536710      118.48757741422413
C          115.15733364351708      122.23092957378607      119.32589726332895
C          115.39533638913007      122.49405765775604      120.81037836576252
C          114.18630466340340      122.17612738148647      121.68949597775337
C          113.88560405621702      120.68267682778438      121.82367117737783
C          112.52990246833744      120.45516198061662      122.49203931821943
C          111.97503095772049      119.04278042627182      122.30944458724724
C          110.50139545108775      118.98834679273945      122.70835731978443
C          109.82233153901399      117.66032104171813      122.38156661712236
C          108.33294380723882      117.71885842946435      122.71260370376861
C          107.59049872189537      116.41050284158250      122.45108213998517
C          106.09532906580027      116.58633494551368      122.70965130571108