      -----------------------------------------------------------      
     |                   =====================                   |     
     |                           x T B                           |     
     |                   =====================                   |     
     |                         S. Grimme                         |     
     |          Mulliken Center for Theoretical Chemistry        |     
     |                    University of Bonn                     |     
      -----------------------------------------------------------      

   * xtb version 6.6.1 (8d0f1dd) compiled by 'stahn@M-Bot' on 2023-08-01

   xtb is free software: you can redistribute it and/or modify it under
   the terms of the GNU Lesser General Public License as published by
   the Free Software Foundation, either version 3 of the License, or
   (at your option) any later version.
   
   xtb is distributed in the hope that it will be useful,
   but WITHOUT ANY WARRANTY; without even the implied warranty of
   MERCHANTABILITY or FITNESS FOR A PARTICULAR PURPOSE.  See the
   GNU Lesser General Public License for more details.
   
   Cite this work as:
   * C. Bannwarth, E. Caldeweyher, S. Ehlert, A. Hansen, P. Pracht,
     J. Seibert, S. Spicher, S. Grimme, WIREs Comput. Mol. Sci., 2020, 11,
     e01493. DOI: 10.1002/wcms.1493
   
   for GFN2-xTB:
   * C. Bannwarth, S. Ehlert and S. Grimme., J. Chem. Theory Comput., 2019,
     15, 1652-1671. DOI: 10.1021/acs.jctc.8b01176
   for GFN1-xTB:
   * S. Grimme, C. Bannwarth, P. Shushkov, J. Chem. Theory Comput., 2017,
     13, 1989-2009. DOI: 10.1021/acs.jctc.7b00118
   for GFN0-xTB:
   * P. Pracht, E. Caldeweyher, S. Ehlert, S. Grimme, ChemRxiv, 2019, preprint.
     DOI: 10.26434/chemrxiv.8326202.v1
   for GFN-FF:
   * S. Spicher and S. Grimme, Angew. Chem. Int. Ed., 2020, 59, 15665-15673.
     DOI: 10.1002/anie.202004239
   
   for ALPB and GBSA implicit solvation:
   * S. Ehlert, M. Stahn, S. Spicher, S. Grimme, J. Chem. Theory Comput.,
     2021, 17, 4250-4261. DOI: 10.1021/acs.jctc.1c00471
   
   for DFT-D4:
   * E. Caldeweyher, C. Bannwarth and S. Grimme, J. Chem. Phys., 2017,
     147, 034112. DOI: 10.1063/1.4993215
   * E. Caldeweyher, S. Ehlert, A. Hansen, H. Neugebauer, S. Spicher,
     C. Bannwarth and S. Grimme, J. Chem. Phys., 2019, 150, 154122.
     DOI: 10.1063/1.5090222
   * E. Caldeweyher, J.-M. Mewes, S. Ehlert and S. Grimme, Phys. Chem. Chem. Phys.
     2020, 22, 8499-8512. DOI: 10.1039/D0CP00502A
   
   for sTDA-xTB:
   * S. Grimme and C. Bannwarth, J. Chem. Phys., 2016, 145, 054103.
     DOI: 10.1063/1.4959605
   
   in the mass-spec context:
   * V. Asgeirsson, C. Bauer and S. Grimme, Chem. Sci., 2017, 8, 4879.
     DOI: 10.1039/c7sc00601b
   * J. Koopman and S. Grimme, ACS Omega 2019, 4, 12, 15120-15133.
     DOI: 10.1021/acsomega.9b02011
   
   for metadynamics refer to:
   * S. Grimme, J. Chem. Theory Comput., 2019, 155, 2847-2862
     DOI: 10.1021/acs.jctc.9b00143
   
   for SPH calculations refer to:
   * S. Spicher and S. Grimme, J. Chem. Theory Comput., 2021, 17, 1701-1714
     DOI: 10.1021/acs.jctc.0c01306
   
   with help from (in alphabetical order)
   P. Atkinson, C. Bannwarth, F. Bohle, G. Brandenburg, E. Caldeweyher
   M. Checinski, S. Dohm, S. Ehlert, S. Ehrlich, I. Gerasimov, C. Hölzer
   A. Katbashev, J. Koopman, C. Lavigne, S. Lehtola, F. März, M. Müller,
   F. Musil, H. Neugebauer, J. Pisarek, C. Plett, P. Pracht, F. Pultar,
   J. Seibert, P. Shushkov, S. Spicher, M. Stahn, M. Steiner, T. Strunk,
   J. Stückrath, T. Rose, and J. Unsleber
   
 * started run on 2024/10/04 at 12:43:08.621     

           -------------------------------------------------
          |                Calculation Setup                |
           -------------------------------------------------

          program call               : /home/abt-grimme/AK-bin/xtb input.xyz --input input.inp --opt
          hostname                   : boar084.thch.uni-bonn.de
          coordinate file            : input.xyz
          omp threads                :                     8

   ID    Z sym.   atoms
    1    6 C      1-90, 273-362, 545-634, 817-906, 1089-1178, 1361-1450,
                  1633-1722, 1905-1994, 2177-2266, 2449-2538, 2721-2810,
                  2993-3082, 3265-3354
    2    1 H      91-272, 363-544, 635-816, 907-1088, 1179-1360, 1451-1632,
                  1723-1904, 1995-2176, 2267-2448, 2539-2720, 2811-2992,
                  3083-3264, 3355-3536

molecular fragmentation (1/2 indicates fragments):
111111111111111111111111111111111111111111111111111111111111111111111111
111111111111111111111111111111111111111111111111111111111111111111111111
111111111111111111111111111111111111111111111111111111111111111111111111
111111111111111111111111111111111111111111111111111111112222222222222222
222222222222222222222222222222222222222222222222222222222222222222222222
222222222222222222222222222222222222222222222222222222222222222222222222
222222222222222222222222222222222222222222222222222222222222222222222222
222222222222222222222222222222222222222222222222222222222222222222222222
222222222222222222222222222222222222222222222222222222222222222222222222
222222222222222222222222222222222222222222222222222222222222222222222222
222222222222222222222222222222222222222222222222222222222222222222222222
222222222222222222222222222222222222222222222222222222222222222222222222
222222222222222222222222222222222222222222222222222222222222222222222222
222222222222222222222222222222222222222222222222222222222222222222222222
222222222222222222222222222222222222222222222222222222222222222222222222
222222222222222222222222222222222222222222222222222222222222222222222222
222222222222222222222222222222222222222222222222222222222222222222222222
222222222222222222222222222222222222222222222222222222222222222222222222
222222222222222222222222222222222222222222222222222222222222222222222222
222222222222222222222222222222222222222222222222222222222222222222222222
222222222222222222222222222222222222222222222222222222222222222222222222
222222222222222222222222222222222222222222222222222222222222222222222222
222222222222222222222222222222222222222222222222222222222222222222222222
222222222222222222222222222222222222222222222222222222222222222222222222
222222222222222222222222222222222222222222222222222222222222222222222222
222222222222222222222222222222222222222222222222222222222222222222222222
222222222222222222222222222222222222222222222222222222222222222222222222
222222222222222222222222222222222222222222222222222222222222222222222222
222222222222222222222222222222222222222222222222222222222222222222222222
222222222222222222222222222222222222222222222222222222222222222222222222
222222222222222222222222222222222222222222222222222222222222222222222222
222222222222222222222222222222222222222222222222222222222222222222222222
222222222222222222222222222222222222222222222222222222222222222222222222
222222222222222222222222222222222222222222222222222222222222222222222222
222222222222222222222222222222222222222222222222222222222222222222222222
222222222222222222222222222222222222222222222222222222222222222222222222
222222222222222222222222222222222222222222222222222222222222222222222222
222222222222222222222222222222222222222222222222222222222222222222222222
222222222222222222222222222222222222222222222222222222222222222222222222
222222222222222222222222222222222222222222222222222222222222222222222222
222222222222222222222222222222222222222222222222222222222222222222222222
222222222222222222222222222222222222222222222222222222222222222222222222
222222222222222222222222222222222222222222222222222222222222222222222222
222222222222222222222222222222222222222222222222222222222222222222222222
222222222222222222222222222222222222222222222222222222222222222222222222
222222222222222222222222222222222222222222222222222222222222222222222222
222222222222222222222222222222222222222222222222222222222222222222222222
222222222222222222222222222222222222222222222222222222222222222222222222
222222222222222222222222222222222222222222222222222222222222222222222222
22222222
# atoms in fragment 1/2:   272  3264
 fragment masses (1/2) :     1264.41    15172.94
CMA distance (Bohr)    :  24.972
constraining FC (au)   :  0.0500

           -------------------------------------------------
          |                 G F N 2 - x T B                 |
           -------------------------------------------------

        Reference                      10.1021/acs.jctc.8b01176
      * Hamiltonian:
        H0-scaling (s, p, d)           1.850000    2.230000    2.230000
        zeta-weighting                 0.500000
      * Dispersion:
        s8                             2.700000
        a1                             0.520000
        a2                             5.000000
        s9                             5.000000
      * Repulsion:
        kExp                           1.500000    1.000000
        rExp                           1.000000
      * Coulomb:
        alpha                          2.000000
        third order                    shell-resolved
        anisotropic                    true
        a3                             3.000000
        a5                             4.000000
        cn-shift                       1.200000
        cn-exp                         4.000000
        max-rad                        5.000000


          ...................................................
          :                      SETUP                      :
          :.................................................:
          :  # basis functions                7046          :
          :  # atomic orbitals                7046          :
          :  # shells                         4706          :
          :  # electrons                      7046          :
          :  max. iterations                   250          :
          :  Hamiltonian                  GFN2-xTB          :
          :  restarted?                      false          :
          :  GBSA solvation                  false          :
          :  PC potential                    false          :
          :  electronic temp.          300.0000000     K    :
          :  accuracy                    1.0000000          :
          :  -> integral cutoff          0.2500000E+02      :
          :  -> integral neglect         0.1000000E-07      :
          :  -> SCF convergence          0.1000000E-05 Eh   :
          :  -> wf. convergence          0.1000000E-03 e    :
          :  Broyden damping             0.4000000          :
          ...................................................

 iter      E             dE          RMSdq      gap      omega  full diag
   1  -3766.7076913 -0.376671E+04  0.226E+00   11.39       0.0  T
   2  -3771.7705731 -0.506288E+01  0.125E+00   11.41       1.0  T
   3  -3771.9830877 -0.212515E+00  0.558E-01   11.37       1.0  T
   4  -3772.0046844 -0.215967E-01  0.143E-01   11.37       1.0  T
   5  -3772.0248287 -0.201443E-01  0.511E-02   11.37       1.0  T
   6  -3772.0248478 -0.191410E-04  0.713E-03   11.37       1.0  T
   7  -3772.0248810 -0.331343E-04  0.150E-03   11.37       1.1  T
   8  -3772.0248828 -0.184562E-05  0.549E-04   11.37       3.1  T
   9  -3772.0248829 -0.967284E-07  0.185E-04   11.37       9.1  T
  10  -3772.0248829 -0.159635E-07  0.692E-05   11.37      24.3  T

   *** convergence criteria satisfied after 10 iterations ***

         #    Occupation            Energy/Eh            Energy/eV
      -------------------------------------------------------------
         1        2.0000           -0.6268719             -17.0581
       ...           ...                  ...                  ...
      3517        2.0000           -0.3954341             -10.7603
      3518        2.0000           -0.3953791             -10.7588
      3519        2.0000           -0.3953622             -10.7584
      3520        2.0000           -0.3947569             -10.7419
      3521        2.0000           -0.3944751             -10.7342
      3522        2.0000           -0.3940317             -10.7221
      3523        2.0000           -0.3939739             -10.7206 (HOMO)
      3524                          0.0238520               0.6490 (LUMO)
      3525                          0.0253070               0.6886
      3526                          0.0278203               0.7570
      3527                          0.0278840               0.7588
      3528                          0.0287357               0.7819
       ...                                ...                  ...
      7046                          0.3968928              10.8000
      -------------------------------------------------------------
                  HL-Gap            0.4178258 Eh           11.3696 eV
             Fermi-level           -0.1850610 Eh           -5.0358 eV

 SCC (total)                   0 d,  0 h, 16 min, 52.775 sec
 SCC setup                      ...        0 min,  0.486 sec (  0.048%)
 Dispersion                     ...        0 min,  4.235 sec (  0.418%)
 classical contributions        ...        0 min,  0.143 sec (  0.014%)
 integral evaluation            ...        0 min,  7.184 sec (  0.709%)
 iterations                     ...       12 min, 32.106 sec ( 74.262%)
 molecular gradient             ...        3 min, 57.613 sec ( 23.462%)
 printout                       ...        0 min, 11.009 sec (  1.087%)

         :::::::::::::::::::::::::::::::::::::::::::::::::::::
         ::                     SUMMARY                     ::
         :::::::::::::::::::::::::::::::::::::::::::::::::::::
         :: total energy           -3716.248044832139 Eh    ::
         :: gradient norm              0.019036523272 Eh/a0 ::
         :: HOMO-LUMO gap             11.369619755050 eV    ::
         ::.................................................::
         :: SCC energy             -3772.024882913423 Eh    ::
         :: -> isotropic ES            0.586914728089 Eh    ::
         :: -> anisotropic ES          1.294436883922 Eh    ::
         :: -> anisotropic XC          2.078695126748 Eh    ::
         :: -> dispersion             -4.532125958656 Eh    ::
         :: repulsion energy          55.110506255867 Eh    ::
         :: add. restraining           0.000000000000 Eh    ::
         :: total charge              -0.000000000009 e     ::
         :::::::::::::::::::::::::::::::::::::::::::::::::::::

      ----------------------------------------------------------- 
     |              Fast Inertial Relaxation Engine              |
      ----------------------------------------------------------- 

          ...................................................
          :                      SETUP                      :
          :.................................................:
          :   energy convergence        0.5000000E-05 Eh    :
          :   grad. convergence         0.1000000E-02 Eh/a0 :
          :   optimization log               true           :
          :   writing optlog all                1     steps :
          :   Hessian reset                    20     steps :
          :   time step scaling                 5     steps :
          :   maximium step len.        1.0000000     a0    :
          :   initial time step         0.2500000     fs    :
          :   maximum time step         1.2500000     fs    :
          :   power reset thr           0.0000000     au    :
          :   alpha parameter           0.1000000           :
          :   BFGS update                   false           :
          :   preconditioning               false           :
          ...................................................

........................................................................
.............................. CYCLE    1 ..............................
........................................................................

 iter      E             dE          RMSdq      gap      omega  full diag
   1  -3772.0283464 -0.377203E+04  0.256E-04   11.37       0.0  T
   2  -3772.0283465 -0.276614E-07  0.152E-04   11.37      11.1  T
   3  -3772.0283465 -0.505224E-09  0.486E-05   11.37      34.6  T
     SCC iter.                  ...        3 min, 51.482 sec
     gradient                   ...        3 min, 57.924 sec
 * total energy  : -3716.2480858 Eh     change    :  -0.4091880E-04 Eh
   gradient norm :     0.0176410 Eh/a0  converged?    E=F G=F D=F
   time step     :     0.2500000 fs     power     :   0.2088170E-08
   step length   :     0.0022310 a0     speed     :   0.2158651E-03

........................................................................
.............................. CYCLE    2 ..............................
........................................................................

 iter      E             dE          RMSdq      gap      omega  full diag
   1  -3772.0333846 -0.377203E+04  0.376E-04   11.37       0.0  T
   2  -3772.0333846 -0.561208E-07  0.223E-04   11.37       7.6  T
   3  -3772.0333846 -0.783075E-09  0.682E-05   11.37      24.6  T
     SCC iter.                  ...        3 min, 45.004 sec
     gradient                   ...        3 min, 57.894 sec
 * total energy  : -3716.2481400 Eh     change    :  -0.5428979E-04 Eh
   gradient norm :     0.0156434 Eh/a0  converged?    E=F G=F D=F
   time step     :     0.2500000 fs     power     :   0.2704404E-08
   step length   :     0.0032645 a0     speed     :   0.3158544E-03

........................................................................
.............................. CYCLE    3 ..............................
........................................................................

 iter      E             dE          RMSdq      gap      omega  full diag
   1  -3772.0397717 -0.377204E+04  0.481E-04   11.37       0.0  T
   2  -3772.0397718 -0.899095E-07  0.285E-04   11.37       5.9  T
   3  -3772.0397718 -0.137879E-08  0.860E-05   11.37      19.6  T
     SCC iter.                  ...        3 min, 41.315 sec
     gradient                   ...        3 min, 58.210 sec
 * total energy  : -3716.2482000 Eh     change    :  -0.5996674E-04 Eh
   gradient norm :     0.0131766 Eh/a0  converged?    E=F G=F D=F
   time step     :     0.2500000 fs     power     :   0.2898217E-08
   step length   :     0.0041792 a0     speed     :   0.4043570E-03

........................................................................
.............................. CYCLE    4 ..............................
........................................................................

 iter      E             dE          RMSdq      gap      omega  full diag
   1  -3772.0472107 -0.377205E+04  0.569E-04   11.37       0.0  T
   2  -3772.0472109 -0.122269E-06  0.337E-04   11.37       5.0  T
   3  -3772.0472109 -0.180125E-08  0.996E-05   11.37      16.9  T
     SCC iter.                  ...        3 min, 46.319 sec
     gradient                   ...        4 min,  0.191 sec
 * total energy  : -3716.2482575 Eh     change    :  -0.5750327E-04 Eh
   gradient norm :     0.0104524 Eh/a0  converged?    E=F G=F D=F
   time step     :     0.2500000 fs     power     :   0.2664780E-08
   step length   :     0.0049437 a0     speed     :   0.4783271E-03

........................................................................
.............................. CYCLE    5 ..............................
........................................................................

 iter      E             dE          RMSdq      gap      omega  full diag
   1  -3772.0553243 -0.377206E+04  0.636E-04   11.37       0.0  T
   2  -3772.0553244 -0.146350E-06  0.377E-04   11.37       4.5  T
   3  -3772.0553244 -0.217278E-08  0.108E-04   11.37      15.6  T
     SCC iter.                  ...        3 min, 46.570 sec
     gradient                   ...        3 min, 58.316 sec
 * total energy  : -3716.2483055 Eh     change    :  -0.4794657E-04 Eh
   gradient norm :     0.0078314 Eh/a0  converged?    E=F G=F D=F
   time step     :     0.2500000 fs     power     :   0.2078159E-08
   step length   :     0.0055309 a0     speed     :   0.5351471E-03

........................................................................
.............................. CYCLE    6 ..............................
........................................................................

 iter      E             dE          RMSdq      gap      omega  full diag
   1  -3772.0644899 -0.377206E+04  0.751E-04   11.37       0.0  T
   2  -3772.0644901 -0.190886E-06  0.446E-04   11.37       3.8  T
   3  -3772.0644901 -0.282853E-08  0.121E-04   11.37      13.9  T
     SCC iter.                  ...        3 min, 43.884 sec
     gradient                   ...        4 min,  0.083 sec
 * total energy  : -3716.2483418 Eh     change    :  -0.3636528E-04 Eh
   gradient norm :     0.0058629 Eh/a0  converged?    E=F G=F D=F
   time step     :     0.2750000 fs     power     :   0.1198887E-08
   step length   :     0.0065464 a0     speed     :   0.5758210E-03

........................................................................
.............................. CYCLE    7 ..............................
........................................................................

 iter      E             dE          RMSdq      gap      omega  full diag
   1  -3772.0738185 -0.377207E+04  0.842E-04   11.37       0.0  T
   2  -3772.0738187 -0.204320E-06  0.501E-04   11.37       3.4  T
   3  -3772.0738187 -0.300179E-08  0.121E-04   11.37      13.9  T
     SCC iter.                  ...        3 min, 48.582 sec
     gradient                   ...        3 min, 57.401 sec
 * total energy  : -3716.2483609 Eh     change    :  -0.1904261E-04 Eh
   gradient norm :     0.0059097 Eh/a0  converged?    E=F G=F D=F
   time step     :     0.3025000 fs     power     :   0.2786625E-09
   step length   :     0.0073341 a0     speed     :   0.5864562E-03

........................................................................
.............................. CYCLE    8 ..............................
........................................................................

 iter      E             dE          RMSdq      gap      omega  full diag
   1  -3772.0818206 -0.377208E+04  0.877E-04   11.37       0.0  T
   2  -3772.0818207 -0.162619E-06  0.523E-04   11.37       3.2  T
   3  -3772.0818207 -0.236287E-08  0.996E-05   11.37      16.9  T
     SCC iter.                  ...        3 min, 44.078 sec
     gradient                   ...        3 min, 57.718 sec
 * total energy  : -3716.2483645 Eh     change    :  -0.3590718E-05 Eh
   gradient norm :     0.0074616 Eh/a0  converged?    E=T G=F D=F
   time step     :     0.3327500 fs     power     :  -0.2966543E-09
   step length   :     0.0076104 a0     speed     :   0.5532313E-03

........................................................................
.............................. CYCLE    9 ..............................
........................................................................
 * reset velocities

 iter      E             dE          RMSdq      gap      omega  full diag
   1  -3772.0815461 -0.377208E+04  0.301E-05   11.37       0.0  T
   2  -3772.0815461 -0.102227E-08  0.146E-05   11.37     115.4  T
   3  -3772.0815461 -0.122327E-09  0.796E-06   11.37     211.1  T
     SCC iter.                  ...        3 min, 40.051 sec
     gradient                   ...        3 min, 57.324 sec
 * total energy  : -3716.2483659 Eh     change    :  -0.1440115E-05 Eh
   gradient norm :     0.0073417 Eh/a0  converged?    E=T G=F D=T
   time step     :     0.1663750 fs     power     :   0.1133887E-09
   step length   :     0.0001937 a0     speed     :   0.2815430E-04

........................................................................
.............................. CYCLE   10 ..............................
........................................................................

 iter      E             dE          RMSdq      gap      omega  full diag
   1  -3772.0810014 -0.377208E+04  0.461E-05   11.37       0.0  T
   2  -3772.0810014 -0.536602E-09  0.274E-05   11.37      61.4  T
   3  -3772.0810014 -0.295586E-10  0.740E-06   11.37     227.4  T
     SCC iter.                  ...        3 min, 44.152 sec
     gradient                   ...        3 min, 58.257 sec
 * total energy  : -3716.2483687 Eh     change    :  -0.2776650E-05 Eh
   gradient norm :     0.0070993 Eh/a0  converged?    E=T G=F D=T
   time step     :     0.1663750 fs     power     :   0.2174972E-09
   step length   :     0.0003842 a0     speed     :   0.5585581E-04

........................................................................
.............................. CYCLE   11 ..............................
........................................................................

 iter      E             dE          RMSdq      gap      omega  full diag
   1  -3772.0801982 -0.377208E+04  0.669E-05   11.37       0.0  T
   2  -3772.0801982 -0.129512E-08  0.397E-05   11.37      42.4  T
   3  -3772.0801982 -0.131877E-10  0.108E-05   11.37     156.0  T
     SCC iter.                  ...        3 min, 40.163 sec
     gradient                   ...        3 min, 56.869 sec
 * total energy  : -3716.2483726 Eh     change    :  -0.3938508E-05 Eh
   gradient norm :     0.0067454 Eh/a0  converged?    E=T G=F D=T
   time step     :     0.1663750 fs     power     :   0.3056156E-09
   step length   :     0.0005684 a0     speed     :   0.8263989E-04

........................................................................
.............................. CYCLE   12 ..............................
........................................................................

 iter      E             dE          RMSdq      gap      omega  full diag
   1  -3772.0791536 -0.377208E+04  0.874E-05   11.37       0.0  T
   2  -3772.0791536 -0.225236E-08  0.519E-05   11.37      32.4  T
   3  -3772.0791536 -0.363798E-10  0.139E-05   11.37     121.0  T
     SCC iter.                  ...        3 min, 42.910 sec
     gradient                   ...        3 min, 57.263 sec
 * total energy  : -3716.2483775 Eh     change    :  -0.4842028E-05 Eh
   gradient norm :     0.0062913 Eh/a0  converged?    E=T G=F D=T
   time step     :     0.1663750 fs     power     :   0.3723683E-09
   step length   :     0.0007434 a0     speed     :   0.1080778E-03

........................................................................
.............................. CYCLE   13 ..............................
........................................................................

 iter      E             dE          RMSdq      gap      omega  full diag
   1  -3772.0778906 -0.377208E+04  0.106E-04   11.37       0.0  T
   2  -3772.0778906 -0.323098E-08  0.631E-05   11.37      26.6  T
   3  -3772.0778906 -0.454747E-10  0.167E-05   11.37     100.8  T
     SCC iter.                  ...        3 min, 40.359 sec
     gradient                   ...        3 min, 58.146 sec
 * total energy  : -3716.2483829 Eh     change    :  -0.5448506E-05 Eh
   gradient norm :     0.0057531 Eh/a0  converged?    E=F G=F D=T
   time step     :     0.1663750 fs     power     :   0.4141286E-09
   step length   :     0.0009064 a0     speed     :   0.1317727E-03

........................................................................
.............................. CYCLE   14 ..............................
........................................................................

 iter      E             dE          RMSdq      gap      omega  full diag
   1  -3772.0764381 -0.377208E+04  0.123E-04   11.37       0.0  T
   2  -3772.0764381 -0.430236E-08  0.733E-05   11.37      23.0  T
   3  -3772.0764381 -0.331966E-10  0.191E-05   11.37      88.2  T
     SCC iter.                  ...        3 min, 40.401 sec
     gradient                   ...        3 min, 57.616 sec
 * total energy  : -3716.2483886 Eh     change    :  -0.5707930E-05 Eh
   gradient norm :     0.0051531 Eh/a0  converged?    E=F G=F D=F
   time step     :     0.1663750 fs     power     :   0.4293853E-09
   step length   :     0.0010549 a0     speed     :   0.1533669E-03

........................................................................
.............................. CYCLE   15 ..............................
........................................................................

 iter      E             dE          RMSdq      gap      omega  full diag
   1  -3772.0746526 -0.377207E+04  0.154E-04   11.37       0.0  T
   2  -3772.0746526 -0.649015E-08  0.912E-05   11.37      18.4  T
   3  -3772.0746526 -0.102318E-09  0.234E-05   11.37      71.8  T
     SCC iter.                  ...        3 min, 41.082 sec
     gradient                   ...        3 min, 59.056 sec
 * total energy  : -3716.2483949 Eh     change    :  -0.6241662E-05 Eh
   gradient norm :     0.0044536 Eh/a0  converged?    E=F G=F D=F
   time step     :     0.1830125 fs     power     :   0.4163461E-09
   step length   :     0.0013201 a0     speed     :   0.1744762E-03

........................................................................
.............................. CYCLE   16 ..............................
........................................................................

 iter      E             dE          RMSdq      gap      omega  full diag
   1  -3772.0725276 -0.377207E+04  0.187E-04   11.37       0.0  T
   2  -3772.0725276 -0.926457E-08  0.111E-04   11.37      15.2  T
   3  -3772.0725276  0.454747E-12  0.276E-05   11.37      61.0  T
     SCC iter.                  ...        3 min, 44.666 sec
     gradient                   ...        3 min, 56.974 sec
 * total energy  : -3716.2484012 Eh     change    :  -0.6348530E-05 Eh
   gradient norm :     0.0037056 Eh/a0  converged?    E=F G=F D=F
   time step     :     0.2013138 fs     power     :   0.3707099E-09
   step length   :     0.0016154 a0     speed     :   0.1941016E-03

........................................................................
.............................. CYCLE   17 ..............................
........................................................................

 iter      E             dE          RMSdq      gap      omega  full diag
   1  -3772.0701026 -0.377207E+04  0.220E-04   11.37       0.0  T
   2  -3772.0701026 -0.120881E-07  0.131E-04   11.37      12.8  T
   3  -3772.0701026 -0.138698E-09  0.310E-05   11.37      54.2  T
     SCC iter.                  ...        3 min, 50.451 sec
     gradient                   ...        3 min, 57.522 sec
 * total energy  : -3716.2484071 Eh     change    :  -0.5895043E-05 Eh
   gradient norm :     0.0030428 Eh/a0  converged?    E=F G=F D=F
   time step     :     0.2214451 fs     power     :   0.2944584E-09
   step length   :     0.0019301 a0     speed     :   0.2108299E-03

........................................................................
.............................. CYCLE   18 ..............................
........................................................................

 iter      E             dE          RMSdq      gap      omega  full diag
   1  -3772.0675076 -0.377207E+04  0.251E-04   11.37       0.0  T
   2  -3772.0675076 -0.140089E-07  0.149E-04   11.37      11.3  T
   3  -3772.0675076 -0.130058E-09  0.324E-05   11.37      51.9  T
     SCC iter.                  ...        3 min, 42.175 sec
     gradient                   ...        3 min, 57.219 sec
 * total energy  : -3716.2484120 Eh     change    :  -0.4868830E-05 Eh
   gradient norm :     0.0027144 Eh/a0  converged?    E=T G=F D=F
   time step     :     0.2435896 fs     power     :   0.2016688E-09
   step length   :     0.0022406 a0     speed     :   0.2224924E-03

........................................................................
.............................. CYCLE   19 ..............................
........................................................................

 iter      E             dE          RMSdq      gap      omega  full diag
   1  -3772.0650082 -0.377207E+04  0.271E-04   11.37       0.0  T
   2  -3772.0650082 -0.134187E-07  0.162E-04   11.37      10.4  T
   3  -3772.0650082  0.109139E-10  0.301E-05   11.37      55.9  T
     SCC iter.                  ...        3 min, 44.468 sec
     gradient                   ...        3 min, 57.550 sec
 * total energy  : -3716.2484156 Eh     change    :  -0.3657254E-05 Eh
   gradient norm :     0.0028823 Eh/a0  converged?    E=T G=F D=F
   time step     :     0.2679486 fs     power     :   0.1217614E-09
   step length   :     0.0025054 a0     speed     :   0.2261744E-03

........................................................................
.............................. CYCLE   20 ..............................
........................................................................

 iter      E             dE          RMSdq      gap      omega  full diag
   1  -3772.0629518 -0.377206E+04  0.280E-04   11.37       0.0  T
   2  -3772.0629518 -0.100831E-07  0.166E-04   11.37      10.1  T
   3  -3772.0629518 -0.247383E-09  0.240E-05   11.37      70.2  T
     SCC iter.                  ...        3 min, 43.250 sec
     gradient                   ...        3 min, 58.564 sec
 * total energy  : -3716.2484185 Eh     change    :  -0.2893926E-05 Eh
   gradient norm :     0.0033204 Eh/a0  converged?    E=T G=F D=F
   time step     :     0.2947435 fs     power     :   0.8514352E-10
   step length   :     0.0027037 a0     speed     :   0.2218860E-03
 * RMSD in coord.:     0.0006819 a0     energy gain  -0.3736827E-03 Eh

........................................................................
.............................. CYCLE   21 ..............................
........................................................................

 iter      E             dE          RMSdq      gap      omega  full diag
   1  -3772.0619133 -0.377206E+04  0.216E-04   11.37       0.0  T
   2  -3772.0619133 -0.369937E-08  0.128E-04   11.37      13.1  T
   3  -3772.0619133 -0.161435E-09  0.131E-05   11.37     128.2  T
     SCC iter.                  ...        3 min, 52.856 sec
     gradient                   ...        3 min, 57.975 sec
 * total energy  : -3716.2484209 Eh     change    :  -0.2413976E-05 Eh
   gradient norm :     0.0035984 Eh/a0  converged?    E=T G=F D=F
   time step     :     0.2500000 fs     power     :   0.1051261E-09
   step length   :     0.0021928 a0     speed     :   0.2121606E-03

........................................................................
.............................. CYCLE   22 ..............................
........................................................................

 iter      E             dE          RMSdq      gap      omega  full diag
   1  -3772.0615809 -0.377206E+04  0.200E-04   11.37       0.0  T
   2  -3772.0615809 -0.226964E-08  0.118E-04   11.37      14.3  T
   3  -3772.0615809 -0.850378E-10  0.107E-05   11.37     156.9  T
     SCC iter.                  ...        3 min, 47.559 sec
     gradient                   ...        3 min, 58.241 sec
 * total energy  : -3716.2484240 Eh     change    :  -0.3054209E-05 Eh
   gradient norm :     0.0036610 Eh/a0  converged?    E=T G=F D=F
   time step     :     0.2500000 fs     power     :   0.1468693E-09
   step length   :     0.0021227 a0     speed     :   0.2053810E-03

........................................................................
.............................. CYCLE   23 ..............................
........................................................................

 iter      E             dE          RMSdq      gap      omega  full diag
   1  -3772.0619102 -0.377206E+04  0.192E-04   11.37       0.0  T
   2  -3772.0619102 -0.252157E-08  0.112E-04   11.37      14.9  T
   3  -3772.0619102 -0.146429E-09  0.133E-05   11.37     126.3  T
     SCC iter.                  ...        3 min, 52.227 sec
     gradient                   ...        3 min, 57.778 sec
 * total energy  : -3716.2484278 Eh     change    :  -0.3805531E-05 Eh
   gradient norm :     0.0034905 Eh/a0  converged?    E=T G=F D=F
   time step     :     0.2500000 fs     power     :   0.1884300E-09
   step length   :     0.0021006 a0     speed     :   0.2032437E-03

........................................................................
.............................. CYCLE   24 ..............................
........................................................................

 iter      E             dE          RMSdq      gap      omega  full diag
   1  -3772.0628312 -0.377206E+04  0.193E-04   11.37       0.0  T
   2  -3772.0628312 -0.405862E-08  0.112E-04   11.37      15.0  T
   3  -3772.0628312 -0.105956E-09  0.185E-05   11.37      91.0  T
     SCC iter.                  ...        3 min, 46.978 sec
     gradient                   ...        3 min, 58.095 sec
 * total energy  : -3716.2484321 Eh     change    :  -0.4329610E-05 Eh
   gradient norm :     0.0031127 Eh/a0  converged?    E=T G=F D=F
   time step     :     0.2500000 fs     power     :   0.2130336E-09
   step length   :     0.0021225 a0     speed     :   0.2053637E-03

........................................................................
.............................. CYCLE   25 ..............................
........................................................................

 iter      E             dE          RMSdq      gap      omega  full diag
   1  -3772.0642550 -0.377206E+04  0.198E-04   11.37       0.0  T
   2  -3772.0642550 -0.615046E-08  0.114E-04   11.37      14.7  T
   3  -3772.0642550 -0.227374E-10  0.235E-05   11.37      71.6  T
     SCC iter.                  ...        3 min, 43.605 sec
     gradient                   ...        3 min, 58.030 sec
 * total energy  : -3716.2484365 Eh     change    :  -0.4408412E-05 Eh
   gradient norm :     0.0025864 Eh/a0  converged?    E=T G=F D=F
   time step     :     0.2500000 fs     power     :   0.2114892E-09
   step length   :     0.0021727 a0     speed     :   0.2102240E-03

........................................................................
.............................. CYCLE   26 ..............................
........................................................................

 iter      E             dE          RMSdq      gap      omega  full diag
   1  -3772.0662791 -0.377207E+04  0.225E-04   11.37       0.0  T
   2  -3772.0662792 -0.100445E-07  0.130E-04   11.37      13.0  T
   3  -3772.0662792 -0.986802E-10  0.303E-05   11.37      55.4  T
     SCC iter.                  ...        3 min, 39.457 sec
     gradient                   ...        3 min, 57.444 sec
 * total energy  : -3716.2484409 Eh     change    :  -0.4379200E-05 Eh
   gradient norm :     0.0019643 Eh/a0  converged?    E=T G=F D=F
   time step     :     0.2750000 fs     power     :   0.1782726E-09
   step length   :     0.0024685 a0     speed     :   0.2171309E-03

........................................................................
.............................. CYCLE   27 ..............................
........................................................................

 iter      E             dE          RMSdq      gap      omega  full diag
   1  -3772.0688249 -0.377207E+04  0.250E-04   11.37       0.0  T
   2  -3772.0688249 -0.138266E-07  0.144E-04   11.37      11.7  T
   3  -3772.0688249 -0.991349E-10  0.353E-05   11.37      47.6  T
     SCC iter.                  ...        3 min, 42.378 sec
     gradient                   ...        3 min, 58.418 sec
 * total energy  : -3716.2484445 Eh     change    :  -0.3605051E-05 Eh
   gradient norm :     0.0015561 Eh/a0  converged?    E=T G=F D=F
   time step     :     0.3025000 fs     power     :   0.1179552E-09
   step length   :     0.0027942 a0     speed     :   0.2234322E-03

........................................................................
.............................. CYCLE   28 ..............................
........................................................................

 iter      E             dE          RMSdq      gap      omega  full diag
   1  -3772.0715754 -0.377207E+04  0.258E-04   11.37       0.0  T
   2  -3772.0715754 -0.140981E-07  0.149E-04   11.37      11.3  T
   3  -3772.0715754 -0.118234E-09  0.349E-05   11.37      48.1  T
     SCC iter.                  ...        3 min, 40.003 sec
     gradient                   ...        3 min, 57.696 sec
 * total energy  : -3716.2484469 Eh     change    :  -0.2427673E-05 Eh
   gradient norm :     0.0017714 Eh/a0  converged?    E=T G=F D=F
   time step     :     0.3327500 fs     power     :   0.5874445E-10
   step length   :     0.0030801 a0     speed     :   0.2239052E-03

........................................................................
.............................. CYCLE   29 ..............................
........................................................................

 iter      E             dE          RMSdq      gap      omega  full diag
   1  -3772.0740045 -0.377207E+04  0.241E-04   11.37       0.0  T
   2  -3772.0740045 -0.919545E-08  0.139E-04   11.37      12.1  T
   3  -3772.0740045 -0.118234E-10  0.271E-05   11.37      62.0  T
     SCC iter.                  ...        3 min, 38.989 sec
     gradient                   ...        3 min, 57.658 sec
 * total energy  : -3716.2484487 Eh     change    :  -0.1718251E-05 Eh
   gradient norm :     0.0022730 Eh/a0  converged?    E=T G=F D=F
   time step     :     0.3660250 fs     power     :   0.3775754E-10
   step length   :     0.0032518 a0     speed     :   0.2148975E-03

........................................................................
.............................. CYCLE   30 ..............................
........................................................................

 iter      E             dE          RMSdq      gap      omega  full diag
   1  -3772.0757043 -0.377208E+04  0.213E-04   11.37       0.0  T
   2  -3772.0757043 -0.351884E-08  0.123E-04   11.37      13.6  T
   3  -3772.0757043 -0.745786E-10  0.154E-05   11.37     109.5  T
     SCC iter.                  ...        3 min, 41.061 sec
     gradient                   ...        3 min, 57.958 sec
 * total energy  : -3716.2484509 Eh     change    :  -0.2207234E-05 Eh
   gradient norm :     0.0025725 Eh/a0  converged?    E=T G=F D=F
   time step     :     0.4026275 fs     power     :   0.5988394E-10
   step length   :     0.0033996 a0     speed     :   0.2042423E-03

........................................................................
.............................. CYCLE   31 ..............................
........................................................................

 iter      E             dE          RMSdq      gap      omega  full diag
   1  -3772.0763947 -0.377208E+04  0.195E-04   11.37       0.0  T
   2  -3772.0763947 -0.121918E-08  0.115E-04   11.37      14.6  T
   3  -3772.0763947 -0.877662E-10  0.897E-06   11.37     187.5  T
     SCC iter.                  ...        3 min, 41.826 sec
     gradient                   ...        3 min, 57.691 sec
 * total energy  : -3716.2484545 Eh     change    :  -0.3633994E-05 Eh
   gradient norm :     0.0024649 Eh/a0  converged?    E=T G=F D=F
   time step     :     0.4428903 fs     power     :   0.9969952E-10
   step length   :     0.0036474 a0     speed     :   0.1992054E-03

........................................................................
.............................. CYCLE   32 ..............................
........................................................................

 iter      E             dE          RMSdq      gap      omega  full diag
   1  -3772.0759493 -0.377208E+04  0.205E-04   11.37       0.0  T
   2  -3772.0759493 -0.548334E-08  0.124E-04   11.37      13.6  T
   3  -3772.0759493 -0.409273E-11  0.192E-05   11.37      87.4  T
     SCC iter.                  ...        3 min, 49.045 sec
     gradient                   ...        3 min, 57.127 sec
 * total energy  : -3716.2484595 Eh     change    :  -0.4982362E-05 Eh
   gradient norm :     0.0019633 Eh/a0  converged?    E=T G=F D=F
   time step     :     0.4871793 fs     power     :   0.1193445E-09
   step length   :     0.0040692 a0     speed     :   0.2020410E-03

........................................................................
.............................. CYCLE   33 ..............................
........................................................................

 iter      E             dE          RMSdq      gap      omega  full diag
   1  -3772.0745445 -0.377207E+04  0.232E-04   11.37       0.0  T
   2  -3772.0745445 -0.145965E-07  0.141E-04   11.37      11.9  T
   3  -3772.0745445  0.345608E-10  0.344E-05   11.37      48.9  T
     SCC iter.                  ...        3 min, 42.770 sec
     gradient                   ...        3 min, 57.877 sec
 * total energy  : -3716.2484646 Eh     change    :  -0.5069995E-05 Eh
   gradient norm :     0.0014969 Eh/a0  converged?    E=F G=F D=F
   time step     :     0.5358972 fs     power     :   0.9638683E-10
   step length   :     0.0046455 a0     speed     :   0.2096854E-03

........................................................................
.............................. CYCLE   34 ..............................
........................................................................

 iter      E             dE          RMSdq      gap      omega  full diag
   1  -3772.0730082 -0.377207E+04  0.235E-04   11.37       0.0  T
   2  -3772.0730082 -0.172313E-07  0.144E-04   11.37      11.7  T
   3  -3772.0730082 -0.180535E-09  0.370E-05   11.37      45.4  T
     SCC iter.                  ...        3 min, 40.761 sec
     gradient                   ...        3 min, 57.895 sec
 * total energy  : -3716.2484686 Eh     change    :  -0.4057608E-05 Eh
   gradient norm :     0.0017611 Eh/a0  converged?    E=T G=F D=F
   time step     :     0.5894869 fs     power     :   0.6137771E-10
   step length   :     0.0052362 a0     speed     :   0.2148600E-03

........................................................................
.............................. CYCLE   35 ..............................
........................................................................

 iter      E             dE          RMSdq      gap      omega  full diag
   1  -3772.0726287 -0.377207E+04  0.219E-04   11.37       0.0  T
   2  -3772.0726287 -0.757336E-08  0.133E-04   11.37      12.6  T
   3  -3772.0726287 -0.105501E-09  0.198E-05   11.37      84.9  T
     SCC iter.                  ...        3 min, 41.955 sec
     gradient                   ...        3 min, 58.874 sec
 * total energy  : -3716.2484727 Eh     change    :  -0.4104417E-05 Eh
   gradient norm :     0.0020884 Eh/a0  converged?    E=T G=F D=F
   time step     :     0.6484356 fs     power     :   0.6831026E-10
   step length   :     0.0057147 a0     speed     :   0.2131772E-03

........................................................................
.............................. CYCLE   36 ..............................
........................................................................

 iter      E             dE          RMSdq      gap      omega  full diag
   1  -3772.0742213 -0.377207E+04  0.265E-04   11.37       0.0  T
   2  -3772.0742213 -0.331875E-08  0.156E-04   11.37      10.8  T
   3  -3772.0742213 -0.432010E-10  0.154E-05   11.37     109.3  T
     SCC iter.                  ...        3 min, 43.178 sec
     gradient                   ...        3 min, 56.346 sec
 * total energy  : -3716.2484786 Eh     change    :  -0.5912812E-05 Eh
   gradient norm :     0.0018076 Eh/a0  converged?    E=F G=F D=F
   time step     :     0.7132792 fs     power     :   0.9614465E-10
   step length   :     0.0063360 a0     speed     :   0.2148662E-03

........................................................................
.............................. CYCLE   37 ..............................
........................................................................

 iter      E             dE          RMSdq      gap      omega  full diag
   1  -3772.0777238 -0.377208E+04  0.350E-04   11.37       0.0  T
   2  -3772.0777238 -0.151640E-07  0.203E-04   11.37       8.3  T
   3  -3772.0777238  0.254659E-10  0.357E-05   11.37      47.1  T
     SCC iter.                  ...        3 min, 42.640 sec
     gradient                   ...        3 min, 58.267 sec
 * total energy  : -3716.2484852 Eh     change    :  -0.6585090E-05 Eh
   gradient norm :     0.0013672 Eh/a0  converged?    E=F G=F D=F
   time step     :     0.7846071 fs     power     :   0.8391729E-10
   step length   :     0.0072522 a0     speed     :   0.2235799E-03

........................................................................
.............................. CYCLE   38 ..............................
........................................................................

 iter      E             dE          RMSdq      gap      omega  full diag
   1  -3772.0812818 -0.377208E+04  0.342E-04   11.37       0.0  T
   2  -3772.0812818 -0.179239E-07  0.199E-04   11.37       8.5  T
   3  -3772.0812818 -0.326054E-09  0.365E-05   11.37      46.0  T
     SCC iter.                  ...        3 min, 42.195 sec
     gradient                   ...        3 min, 59.992 sec
 * total energy  : -3716.2484908 Eh     change    :  -0.5593541E-05 Eh
   gradient norm :     0.0017373 Eh/a0  converged?    E=F G=F D=F
   time step     :     0.8630678 fs     power     :   0.6024962E-10
   step length   :     0.0082288 a0     speed     :   0.2306247E-03

........................................................................
.............................. CYCLE   39 ..............................
........................................................................

 iter      E             dE          RMSdq      gap      omega  full diag
   1  -3772.0822608 -0.377208E+04  0.275E-04   11.37       0.0  T
   2  -3772.0822609 -0.792352E-08  0.162E-04   11.37      10.4  T
   3  -3772.0822609 -0.323780E-09  0.270E-05   11.37      62.2  T
     SCC iter.                  ...        3 min, 41.568 sec
     gradient                   ...        3 min, 58.390 sec
 * total energy  : -3716.2484977 Eh     change    :  -0.6865667E-05 Eh
   gradient norm :     0.0016629 Eh/a0  converged?    E=F G=F D=F
   time step     :     0.9493746 fs     power     :   0.8116091E-10
   step length   :     0.0091403 a0     speed     :   0.2328820E-03

........................................................................
.............................. CYCLE   40 ..............................
........................................................................

 iter      E             dE          RMSdq      gap      omega  full diag
   1  -3772.0800916 -0.377208E+04  0.348E-04   11.37       0.0  T
   2  -3772.0800916 -0.245491E-07  0.207E-04   11.37       8.1  T
   3  -3772.0800916  0.140062E-09  0.503E-05   11.37      33.4  T
     SCC iter.                  ...        3 min, 49.084 sec
     gradient                   ...        4 min,  7.857 sec
 * total energy  : -3716.2485056 Eh     change    :  -0.7909818E-05 Eh
   gradient norm :     0.0013451 Eh/a0  converged?    E=F G=F D=F
   time step     :     1.0443120 fs     power     :   0.7197281E-10
   step length   :     0.0104387 a0     speed     :   0.2417864E-03

........................................................................
.............................. CYCLE   41 ..............................
........................................................................

 iter      E             dE          RMSdq      gap      omega  full diag
   1  -3772.0782752 -0.377208E+04  0.365E-04   11.37       0.0  T
   2  -3772.0782753 -0.137989E-07  0.217E-04   11.37       7.8  T
   3  -3772.0782753  0.486580E-10  0.311E-05   11.37      54.0  T
     SCC iter.                  ...        3 min, 43.306 sec
     gradient                   ...        3 min, 59.680 sec
 * total energy  : -3716.2485130 Eh     change    :  -0.7435165E-05 Eh
   gradient norm :     0.0016355 Eh/a0  converged?    E=F G=F D=F
   time step     :     1.1487432 fs     power     :   0.6443353E-10
   step length   :     0.0118166 a0     speed     :   0.2488190E-03

........................................................................
.............................. CYCLE   42 ..............................
........................................................................

 iter      E             dE          RMSdq      gap      omega  full diag
   1  -3772.0803967 -0.377208E+04  0.408E-04   11.37       0.0  T
   2  -3772.0803967 -0.205187E-07  0.237E-04   11.37       7.1  T
   3  -3772.0803967 -0.132331E-09  0.453E-05   11.37      37.1  T
     SCC iter.                  ...        3 min, 45.972 sec
     gradient                   ...        3 min, 58.959 sec
 * total energy  : -3716.2485219 Eh     change    :  -0.8923798E-05 Eh
   gradient norm :     0.0012660 Eh/a0  converged?    E=F G=F D=F
   time step     :     1.2500000 fs     power     :   0.7014784E-10
   step length   :     0.0132010 a0     speed     :   0.2554528E-03
 * RMSD in coord.:     0.0016827 a0     energy gain  -0.1034234E-03 Eh

........................................................................
.............................. CYCLE   43 ..............................
........................................................................

 iter      E             dE          RMSdq      gap      omega  full diag
   1  -3772.0808691 -0.377208E+04  0.686E-05   11.37       0.0  T
   2  -3772.0808691 -0.560249E-09  0.404E-05   11.37      41.6  T
   3  -3772.0808691 -0.145519E-10  0.638E-06   11.37     263.6  T
     SCC iter.                  ...        3 min, 45.494 sec
     gradient                   ...        3 min, 58.603 sec
 * total energy  : -3716.2485235 Eh     change    :  -0.1566654E-05 Eh
   gradient norm :     0.0012628 Eh/a0  converged?    E=T G=F D=F
   time step     :     0.2500000 fs     power     :   0.7908122E-10
   step length   :     0.0025290 a0     speed     :   0.2446991E-03

........................................................................
.............................. CYCLE   44 ..............................
........................................................................

 iter      E             dE          RMSdq      gap      omega  full diag
   1  -3772.0813021 -0.377208E+04  0.643E-05   11.37       0.0  T
   2  -3772.0813021 -0.665295E-09  0.376E-05   11.37      44.7  T
   3  -3772.0813021 -0.154614E-10  0.785E-06   11.37     214.2  T
     SCC iter.                  ...        3 min, 55.527 sec
     gradient                   ...        3 min, 58.586 sec
 * total energy  : -3716.2485252 Eh     change    :  -0.1690099E-05 Eh
   gradient norm :     0.0011845 Eh/a0  converged?    E=T G=F D=F
   time step     :     0.2500000 fs     power     :   0.8616625E-10
   step length   :     0.0024458 a0     speed     :   0.2366445E-03

........................................................................
.............................. CYCLE   45 ..............................
........................................................................

 iter      E             dE          RMSdq      gap      omega  full diag
   1  -3772.0816310 -0.377208E+04  0.706E-05   11.37       0.0  T
   2  -3772.0816310 -0.660293E-09  0.415E-05   11.37      40.5  T
   3  -3772.0816310 -0.227374E-11  0.773E-06   11.37     217.7  T
     SCC iter.                  ...        3 min, 41.963 sec
     gradient                   ...        4 min,  0.110 sec
 * total energy  : -3716.2485269 Eh     change    :  -0.1740141E-05 Eh
   gradient norm :     0.0010649 Eh/a0  converged?    E=T G=F D=F
   time step     :     0.2500000 fs     power     :   0.8833644E-10
   step length   :     0.0023914 a0     speed     :   0.2313761E-03

........................................................................
.............................. CYCLE   46 ..............................
........................................................................

 iter      E             dE          RMSdq      gap      omega  full diag
   1  -3772.0818170 -0.377208E+04  0.794E-05   11.37       0.0  T
   2  -3772.0818170 -0.675755E-09  0.467E-05   11.37      36.0  T
   3  -3772.0818170  0.663931E-10  0.765E-06   11.37     220.0  T
     SCC iter.                  ...        3 min, 40.383 sec
     gradient                   ...        3 min, 59.319 sec
 * total energy  : -3716.2485286 Eh     change    :  -0.1707866E-05 Eh
   gradient norm :     0.0009633 Eh/a0  converged?    E=T G=T D=F
   time step     :     0.2500000 fs     power     :   0.8566149E-10
   step length   :     0.0023603 a0     speed     :   0.2283758E-03

   *** GEOMETRY OPTIMIZATION CONVERGED AFTER 46 CYCLES ***

------------------------------------------------------------------------
 total energy gain   :        -0.0004838 Eh       -0.3036 kcal/mol
 total RMSD          :         0.0021428 a0        0.0011 Å
 total power (kW/mol):        -0.0276140 (step)   -0.0001 (real)
------------------------------------------------------------------------

 FIRE (total)                  0 d,  6 h, 12 min, 11.835 sec
 setup                          ...        0 min,  0.136 sec (  0.001%)
 velocities                     ...        0 min,  0.007 sec (  0.000%)
 propagation                    ...        0 min,  0.005 sec (  0.000%)
 singlepoint calculation        ...      372 min, 10.798 sec ( 99.995%)
 log and printout               ...        0 min,  0.808 sec (  0.004%)
 preconditioner                 ...        0 min,  0.000 sec (  0.000%)
 model hessian                  ...        0 min,  0.000 sec (  0.000%)
 hessian update                 ...        0 min,  0.000 sec (  0.000%)

================
 final structure:
================
3536
 xtb: 6.6.1 (8d0f1dd)
C           58.26670217298433       42.38755421221030       69.94147068224520
C           56.78858403413064       42.16540438591375       70.25305691756493
C           56.54373753269567       40.69127830124336       70.57465382178796
C           55.88986939618160       42.58285115005000       69.08281178436179
C           55.97734259963283       44.05553599383278       68.66704041301998
C           55.59811613629964       44.98040540096307       69.82322520444784
C           55.05969325758366       44.34253499709978       67.46853998502483
C           55.37572281145584       43.56681463166156       66.18424765791255
C           56.83517245243288       43.74546318619397       65.76221191612427
C           54.48398434775942       44.02900856590318       65.02350017688552
C           52.96461645718822       43.85914887684453       65.17984227904216
C           52.58533001599646       42.40543737978278       65.44458202152828
C           52.31789141412337       44.38245180180547       63.88933108777341
C           50.78550977107300       44.38718947556316       63.78763949120226
C           50.42840084819357       44.90642061550379       62.39405772611880
C           50.15171878450405       45.25198996873023       64.88388351260421
C           48.61022587222637       45.28676507729552       64.88824240212912
C           48.11170846235506       46.73007663371571       64.94283290249078
C           48.00574680679846       44.51923788104481       66.07089475916089
C           48.19326467100881       42.99998913535097       66.04093137660774
C           47.42140417204453       42.38308679352902       64.87480569103413
C           47.69796169396733       42.36298720841592       67.34794651926872
C           48.50702399875617       42.68049368980627       68.61297698918587
C           49.94436570212911       42.18013359135571       68.49024886494426
C           47.80078456696187       42.04682233378957       69.81999830594579
C           48.27687341679763       42.52439251569937       71.19959484287334
C           47.72710082869440       41.57648046898758       72.26578239988537
C           47.82676816944272       43.96322961337655       71.48566181067859
C           48.54078335558231       44.62594205765944       72.67922584970773
C           47.52262375077695       45.31772077911146       73.58725271278729
C           49.59648245292804       45.64879742740440       72.23539297533782
C           50.81508880428409       45.07039870199039       71.50696453116947
C           51.64336565484772       44.18013530189272       72.43489706301793
C           51.72492193420278       46.19099094963678       70.98014067098613
C           51.16407315265270       47.06504320619301       69.85281196455794
C           50.72168439096869       46.21898919038677       68.65954041155571
C           52.22196072012413       48.06492616101609       69.36098683349516
C           52.76117474616067       49.06475583904800       70.39008179372085
C           51.64800271848458       49.96780429055092       70.92170595444722
C           53.85290340421779       49.94376209436074       69.76135749391453
C           55.19552969498452       49.25559743064353       69.48172592012602
C           55.95166369241046       48.99518436431715       70.78383020896798
C           56.05148085681002       50.10829423739665       68.52201884664507
C           56.24484573129899       49.52771307947709       67.11168368395533
C           54.90901787381179       49.36065966192577       66.38799814665934
C           57.01010249371244       48.19812387855922       67.10032242904842
C           58.45945005000722       48.25885905055585       67.59786656833195
C           59.31645110195637       49.14741506358522       66.69974036012736
C           59.04197565328352       46.83894654056220       67.65815845504426
C           60.26000610412589       46.70113212090097       68.58151612260281
C           61.04256385837447       45.43836062746738       68.22492878479078
C           59.82961904529758       46.66084039224257       70.05387071495629
C           60.92137744536658       47.10191357223058       71.04005337398702
C           60.63130675842142       46.51778801169653       72.42114986992125
C           61.01282533928514       48.63274146955001       71.08549794480564
C           62.20522881113209       49.17656526558778       71.89478300040608
C           61.74205986203970       49.73841272360632       73.23979490610054
C           62.95425118764052       50.27679595333196       71.13026167495086
C           63.79876573356022       49.78686206637214       69.94717667306905
C           65.08494029025331       49.12166549241400       70.43471232227770
C           64.13724878756982       50.96728722621751       69.02335691309004
C           62.99982423556485       51.34709167467611       68.06191291359453
C           63.02306961807822       50.42775981608679       66.84384541786373
C           63.13759576312679       52.81927559245469       67.65446604131992
C           62.05836828647220       53.37565159171917       66.71192207561759
C           62.44442052275217       54.80462643940977       66.32927598582748
C           60.67397387847535       53.32610163970478       67.36901759224376
C           59.50429352968317       53.82834999025098       66.50992050668989
C           58.24432272332020       53.89043783093000       67.37507374075457
C           59.26375142796495       52.94575290616624       65.26888000915029
C           59.29046198976658       53.70773415511695       63.93847537457246
C           58.13662972703000       54.70772925083038       63.85719487701866
C           59.19124149970372       52.74957453337928       62.74217671197542
C           60.36202196635380       51.78086230308487       62.54036521681648
C           61.68492903047808       52.53129792744396       62.39067628058571
C           60.15326407393482       50.91216397152962       61.28943845895025
C           58.87190348079405       50.07178980037859       61.24408886760720
C           58.73600522867378       49.20040540755559       62.49233655672586
C           58.85658972182868       49.16710656313322       60.00188635587283
C           58.77734738623163       49.87400697994060       58.63960424584361
C           57.44041817427476       50.58856717715605       58.46296867196642
C           58.99379038129639       48.82224024310207       57.54220957940215
C           59.05484576068243       49.31583075616123       56.08737107248376
C           59.32740499740198       48.10662157344363       55.19156132727102
C           60.13464408040698       50.39251260189945       55.92269162485039
C           60.48070200670960       50.81756898450693       54.48802192451340
C           61.65673334810040       51.79212878558812       54.54504434289740
C           59.27934018387045       51.44354932468119       53.77166905355126
C           59.55325280970745       51.79071239901101       52.30835446443255
C           58.28392199460271       52.22353906180800       51.58551718355542
H           58.54346106054059       41.86916356511594       69.02514600577895
H           58.48862081647366       43.44484025427305       69.82154062782774
H           58.88485672772829       42.00399302880651       70.75049846842863
H           57.54553179347355       51.42573980566491       51.59131578096596
H           57.84778918045539       53.09492577356340       52.06824161237295
H           58.49560228574125       52.47779032262481       50.54920408325771
H           58.44293624957906       50.74236007813735       53.80295782980276
H           58.97379707234633       52.34801880969863       54.30379653331510
H           59.82578662056211       51.28730210915370       56.46770447081360
H           61.04918659156791       50.01854439991747       56.39065396469466
H           58.08065739981556       49.73178596360978       55.81313281336615
H           59.19900230952770       48.35384105395021       54.14204303341293
H           60.34222605213422       47.74474417258514       55.34273911818350
H           58.64007013652073       47.29823388531582       55.43018808424603
H           59.93055226777987       48.30055468737154       57.75228304993885
H           58.18782689520017       48.08752026854964       57.61606048660949
H           59.75931188204935       48.55052503566552       60.02091502651680
H           58.00326707762301       48.48828914374810       60.07976520529653
H           60.80251041927664       49.93728602425502       53.92393643122929
H           62.47874023369567       51.35853405853094       55.10999123331271
H           62.02142133320403       52.02337049620040       53.54828351357428
H           61.36000299071772       52.71962638155333       55.03083203063797
H           59.58212599155532       50.61045672532970       58.58224273152491
H           56.62072696246305       49.87355967664853       58.50863538016808
H           57.29046318229075       51.33320492086414       59.24047450395521
H           57.39821195038872       51.09772678872258       57.50364635830194
H           58.00839295430590       50.74052691866770       61.19861171507799
H           59.61785613258947       48.57646306316659       62.61842598931938
H           58.61102228157524       49.80969741329774       63.38341503414546
H           57.86740149739708       48.55161228721195       62.40647054462979
H           60.17214132268291       51.56871568264546       60.41808096403949
H           61.00645914816450       50.23259367971826       61.20757182637739
H           60.44508147298024       51.12132152698856       63.40828076598357
H           61.62018825417549       53.26933671111192       61.59336713405611
H           61.95492844776101       53.04292942831338       63.30935312614302
H           62.48704674516224       51.83704077797706       62.14966599164435
H           58.26921577142597       52.17638552953537       62.85471321393121
H           59.09322503030710       53.34818173050689       61.83276250380124
H           60.22739258744075       54.26829957598968       63.87188652915881
H           57.18071962135115       54.18789754289901       63.89528336900582
H           58.17436253457586       55.41779645105881       64.67929906240114
H           58.18442255218112       55.26766260090174       62.92480098786713
H           60.02058343691637       52.16269280453749       65.23611368579697
H           58.29439017630826       52.44902700846919       65.35724621775017
H           59.73240953836876       54.84714581517881       66.18832383523292
H           57.99306128328118       52.90277683484518       67.75852557598266
H           58.39329675199441       54.55449517135793       68.22426907873546
H           57.39910901725410       54.25986918662824       66.79943619354026
H           60.45600581708565       52.29775394854565       67.66383662609255
H           60.71221754377859       53.92813840093158       68.28050157697659
H           62.04587077011223       52.77236701007566       65.80007144119406
H           62.38519915520700       55.46118455749222       67.19400894476755
H           63.46492707536027       54.83227015327004       65.95101710573925
H           61.79067683701170       55.19584829579470       65.55449278655865
H           63.14377193226127       53.43125721704447       68.56098997309134
H           64.11102172065570       52.94488967321536       67.17298952874725
H           62.04901940000449       51.21311626988299       68.58622380675976
H           63.91813188551265       50.60861608878479       66.25346269194793
H           63.02401269122023       49.38485936673643       67.15251395155656
H           62.15612253926268       50.58911148829785       66.20951200673410
H           64.39538701755366       51.82521004737250       69.64853795361400
H           65.02243461083651       50.72435802725232       68.43084166360089
H           63.22534397278563       49.04554357787613       69.38159046111367
H           65.71249124406125       49.84515143648788       70.95179083087012
H           64.86824626936020       48.30616862544838       71.12009522181580
H           65.64817743850980       48.71472954408853       69.59751821737098
H           62.22073249435435       51.00442987581337       70.77738116403145
H           63.61822282465339       50.79907275267804       71.82366711280645
H           62.90171302346826       48.35576321645609       72.09061562976434
H           62.59596732186700       50.03528489234012       73.84590344536218
H           61.11378025415067       50.61347871056838       73.08395685772342
H           61.16961045704785       49.00176622347357       73.79670536387680
H           61.07873217138055       48.99996292438519       70.06012145917677
H           60.08361950697471       49.02581734799433       71.50472526512260
H           61.88503236013477       46.70866730691379       70.69756068501142
H           59.68134567857379       46.89194472151341       72.79840660525566
H           60.57465902893718       45.43210162567313       72.36929707856663
H           61.41305388062693       46.77874703725062       73.12925567516238
H           58.95559984414673       47.29736031438251       70.20479181494713
H           59.52389972835950       45.63906452955801       70.29076699457873
H           60.91828486822170       47.56087393306650       68.42637157527101
H           60.39177351859551       44.56640611140891       68.26059237200901
H           61.45945833944065       45.51756823260047       67.22418550704313
H           61.86179567237799       45.28076612560834       68.92201505519938
H           58.27304033363987       46.14579428837681       68.00582172609320
H           59.32027685479525       46.53378417271210       66.64666285927406
H           58.46897371164248       48.67750530769445       68.60775088305117
H           59.21428664869973       48.84101638332389       65.65996913007972
H           59.02218662488968       50.19047093249612       66.78214273165945
H           60.36428349944742       49.07348632762761       66.97749939301991
H           56.46657190151453       47.47236284216883       67.70803639431030
H           57.01822310856335       47.81690880797658       66.07502443574128
H           56.82929123020137       50.26030146150129       66.54414546463028
H           55.07386807171365       48.99518009033882       65.37645148545101
H           54.26657630059212       48.65034938429748       66.90178126334118
H           54.38838810824969       50.31428569760507       66.32633219467202
H           55.59659039046079       51.09611755704996       68.41778536106206
H           57.03695654724999       50.26638486013515       68.96264410781029
H           54.99919026330863       48.28829145977311       69.01501388997481
H           56.18228938128046       49.93367263695022       71.28496014677609
H           55.36375346173566       48.38080111183637       71.46130386469962
H           56.88396205336762       48.47122637835164       70.58404258989323
H           53.45954454051090       50.35075125653832       68.82773613307761
H           54.04622320490535       50.78431881181073       70.43145021099033
H           53.19365954629385       48.51937031763483       71.23222821919174
H           50.87297276347113       49.38763519246546       71.41543760544576
H           52.04625670245186       50.67670040047722       71.64497514368074
H           51.19643306122440       50.53086305758816       70.10648948112251
H           53.05678544270044       47.48467246987369       68.96203506851325
H           51.79254556356555       48.63384990673493       68.53130768114346
H           50.29568167472016       47.61940154962872       70.21786542395226
H           49.85780227393743       45.61109138333092       68.91154232740874
H           50.45292492997007       46.85734369388121       67.82060924761758
H           51.52724995067978       45.55868949108190       68.34404510082206
H           51.98803287262510       46.82874666234870       71.82636976155158
H           52.64861850295268       45.73544673079766       70.61445645316694
H           50.47509575399443       44.46274755453027       70.66615112005321
H           51.99145486842959       44.74777702311801       73.29579720944177
H           51.06589355780603       43.33338395589671       72.79586607053254
H           52.51386469113305       43.79017876089286       71.91042461521000
H           49.10607625433337       46.37911208422946       71.58794876733843
H           49.95312323652131       46.18492497096464       73.11938596602909
H           49.03529036191028       43.85424211291407       73.27418888534466
H           48.01576371983875       45.77147992905100       74.44464175606787
H           46.99507439025072       46.09797157390766       73.04374436564635
H           46.79182004970691       44.60145007632350       73.95659303617771
H           47.97959302333363       44.57929779922775       70.59866177168730
H           46.75090840503309       43.94359675594986       71.67554940248961
H           49.36822852734198       42.48000419585394       71.23608210523059
H           48.00511639203795       41.90362771274050       73.26458420434601
H           46.64066831878787       41.53749263536152       72.21112201690863
H           48.11289308078867       40.56970085073782       72.11952730640172
H           46.72851908223924       42.24497901838591       69.74599877352608
H           47.93489980914438       40.96383467660808       69.76077458293081
H           48.52564717586982       43.76437711522380       68.75285630359541
H           49.95725581932665       41.12873306265546       68.20988654616022
H           50.48905906571170       42.74553341827754       67.73930964620638
H           50.47577046752772       42.28666080105628       69.43236045595771
H           46.66385257988718       42.68103867717083       67.50773108766217
H           47.68795991951054       41.27701989513658       67.22126441720707
H           49.25295062892486       42.76905354888356       65.91187784300622
H           47.79119107422590       42.74886049087750       63.92037289293068
H           47.51924027922231       41.29915175822556       64.88220606128398
H           46.36527964323533       42.63337873183105       64.94857928621872
H           48.44244476111722       44.92083584953172       66.98627136644475
H           46.93217448865363       44.72387268667694       66.10341845154323
H           48.23268903735620       44.84593783293602       63.96379198806866
H           48.46185036809692       47.22273190790202       65.84684524492941
H           48.46886987299160       47.29204812785291       64.08492206371869
H           47.02550655113053       46.76267719934094       64.93640613274751
H           50.49343758937188       44.89596996701091       65.85567064490321
H           50.53413802655507       46.26877536326037       64.76493300051762
H           50.41244963797981       43.36277769299618       63.87420452650331
H           49.36048243760636       44.85312996933963       62.20572316284743
H           50.74398320771321       45.94199663435205       62.28242445241982
H           50.93569477214599       44.31964513474956       61.63091630052082
H           52.66177970547947       45.40873140248303       63.73278850946972
H           52.70133326969513       43.78240557360064       63.05879064531989
H           52.62658686087973       44.47336653020492       66.01890159394605
H           52.96138901356566       41.76470026426015       64.64964043509738
H           52.99719738265494       42.05971524294539       66.38932072452535
H           51.50609917253897       42.28861364049612       65.48918332606667
H           54.69371852963035       45.08600131845262       64.83590503832797
H           54.79099888972113       43.47353223742969       64.13277442817837
H           55.19759248966012       42.50175877960109       66.35388813329538
H           57.51471882424995       43.28254156744914       66.47183295927570
H           57.00351981813542       43.28406517860483       64.79117258266403
H           57.08164117776808       44.80252625763813       65.68612598295486
H           54.03191049175784       44.12555529505214       67.76851327342527
H           55.11816870673916       45.41022306708098       67.23856010898953
H           57.00476006387759       44.28410351446497       68.37473063407127
H           55.56479311618051       46.01566613981775       69.49091824741988
H           54.61851428111623       44.71572153354176       70.21646442406136
H           56.32075593409752       44.91722604664679       70.63214764597211
H           56.15220678446835       41.95745738366160       68.22743105617704
H           54.85191837434945       42.36078328166627       69.34665062496887
H           56.52520542931902       42.75148478573003       71.13893775563535
H           55.49707105707994       40.51808780508548       70.81536694397033
H           56.80669491333691       40.06793681121482       69.72213365289959
H           57.14573419116804       40.37909361681950       71.42512982538543
H           60.28601771742699       52.59699855637768       52.24637245875076
H           59.97455849550177       50.91724973456732       51.80573302857230
C           66.64397280265497       45.56159652010799       66.01798028379467
C           66.07827355756923       46.62140685947465       66.95974712435209
C           64.59069031937790       46.36330462950934       67.19470296424494
C           66.27333371278546       48.03739391363538       66.40487080206935
C           67.72739864741220       48.49181960318307       66.23393520729736
C           68.48966878289389       48.44593125141039       67.55915337684728
C           67.79354351837563       49.92575751355495       65.68897839615273
C           67.24577762244246       50.15859018902851       64.27566691310473
C           68.02343288357784       49.35507972851834       63.23390812242554
C           67.32774227626483       51.65299052188255       63.92717449174393
C           66.28223739846912       52.53635222196986       64.61774187814792
[...]
  3286   6 C     3287   6 C                                       1.5331159
  3287   6 C     3288   6 C                                       1.5293107
  3287   6 C     3289   6 C                                       1.5364670
  3289   6 C     3290   6 C                                       1.5341833
  3290   6 C     3291   6 C                                       1.5293304
  3290   6 C     3292   6 C                                       1.5372711
  3292   6 C     3293   6 C                                       1.5339563
  3293   6 C     3294   6 C                                       1.5277670
  3293   6 C     3295   6 C                                       1.5382150
  3295   6 C     3296   6 C                                       1.5340585
  3296   6 C     3297   6 C                                       1.5283269
  3296   6 C     3298   6 C                                       1.5368056
  3298   6 C     3299   6 C                                       1.5363426
  3299   6 C     3300   6 C                                       1.5277002
  3299   6 C     3301   6 C                                       1.5353135
  3301   6 C     3302   6 C                                       1.5348553
  3302   6 C     3303   6 C                                       1.5285712
  3302   6 C     3304   6 C                                       1.5327648
  3305   6 C     3306   6 C                                       1.5281961
  3305   6 C     3307   6 C                                       1.5333223
  3307   6 C     3308   6 C                                       1.5354774
  3308   6 C     3309   6 C                                       1.5266770
  3308   6 C     3310   6 C                                       1.5339890
  3310   6 C     3311   6 C                                       1.5345842
  3311   6 C     3312   6 C                                       1.5290835
  3311   6 C     3313   6 C                                       1.5330138
  3313   6 C     3314   6 C                                       1.5353789
  3314   6 C     3315   6 C                                       1.5280551
  3314   6 C     3316   6 C                                       1.5342898
  3316   6 C     3317   6 C                                       1.5347040
  3317   6 C     3318   6 C                                       1.5286929
  3319   6 C     3320   6 C                                       1.5335197
  3320   6 C     3321   6 C                                       1.5284165
  3320   6 C     3322   6 C                                       1.5361372
  3322   6 C     3323   6 C                                       1.5334632
  3323   6 C     3324   6 C                                       1.5296192
  3323   6 C     3325   6 C                                       1.5372556
  3325   6 C     3326   6 C                                       1.5340383
  3326   6 C     3327   6 C                                       1.5297546
  3326   6 C     3328   6 C                                       1.5375253
  3328   6 C     3329   6 C                                       1.5334686
  3329   6 C     3330   6 C                                       1.5288471
  3329   6 C     3331   6 C                                       1.5386844
  3331   6 C     3332   6 C                                       1.5327522
  3332   6 C     3333   6 C                                       1.5268174
  3334   6 C     3335   6 C                                       1.5398148
  3335   6 C     3336   6 C                                       1.5297647
  3335   6 C     3337   6 C                                       1.5370907
  3337   6 C     3338   6 C                                       1.5327875
  3338   6 C     3339   6 C                                       1.5279002
  3338   6 C     3340   6 C                                       1.5361000
  3340   6 C     3341   6 C                                       1.5326089
  3341   6 C     3342   6 C                                       1.5272994
  3341   6 C     3343   6 C                                       1.5381009
  3343   6 C     3344   6 C                                       1.5344155
  3344   6 C     3345   6 C                                       1.5284352
  3344   6 C     3346   6 C                                       1.5359566
  3346   6 C     3347   6 C                                       1.5363735
  3347   6 C     3348   6 C                                       1.5271385
  3347   6 C     3349   6 C                                       1.5377204
  3349   6 C     3350   6 C                                       1.5353043
  3350   6 C     3351   6 C                                       1.5290298
  3350   6 C     3352   6 C                                       1.5315266
  3352   6 C     3353   6 C                                       1.5290923
  3353   6 C     3354   6 C                                       1.5236570
  3265   6 C     3355   1 H                                       1.0887184
  3265   6 C     3356   1 H                                       1.0873521
  3265   6 C     3357   1 H                                       1.0871179
  3354   6 C     3358   1 H                                       1.0876656
  3354   6 C     3359   1 H                                       1.0880729
  3354   6 C     3360   1 H                                       1.0869936
  3352   6 C     3361   1 H                                       1.0900269
  3352   6 C     3362   1 H                                       1.0922824
  3349   6 C     3363   1 H                                       1.0938780
  3349   6 C     3364   1 H                                       1.0938054
  3347   6 C     3365   1 H                                       1.0946964
  3348   6 C     3366   1 H                                       1.0881602
  3348   6 C     3367   1 H                                       1.0872385
  3348   6 C     3368   1 H                                       1.0864619
  3346   6 C     3369   1 H                                       1.0928805
  3346   6 C     3370   1 H                                       1.0925473
  3343   6 C     3371   1 H                                       1.0918176
  3343   6 C     3372   1 H                                       1.0921973
  3350   6 C     3373   1 H                                       1.0919555
  3351   6 C     3374   1 H                                       1.0882672
  3351   6 C     3375   1 H                                       1.0881275
  3351   6 C     3376   1 H                                       1.0866669
  3344   6 C     3377   1 H                                       1.0936826
  3345   6 C     3378   1 H                                       1.0880683
  3345   6 C     3379   1 H                                       1.0889425
  3345   6 C     3380   1 H                                       1.0865243
  3341   6 C     3381   1 H                                       1.0935591
  3342   6 C     3382   1 H                                       1.0870844
  3342   6 C     3383   1 H                                       1.0872230
  3342   6 C     3384   1 H                                       1.0876853
  3340   6 C     3385   1 H                                       1.0925934
  3340   6 C     3386   1 H                                       1.0927096
  3338   6 C     3387   1 H                                       1.0926110
  3339   6 C     3388   1 H                                       1.0872734
  3339   6 C     3389   1 H                                       1.0856687
  3339   6 C     3390   1 H                                       1.0885937
  3337   6 C     3391   1 H                                       1.0920576
  3337   6 C     3392   1 H                                       1.0934879
  3335   6 C     3393   1 H                                       1.0918060
  3336   6 C     3394   1 H                                       1.0868825
  3336   6 C     3395   1 H                                       1.0887344
  3336   6 C     3396   1 H                                       1.0887762
  3334   6 C     3397   1 H                                       1.0919783
  3334   6 C     3398   1 H                                       1.0925925
  3332   6 C     3399   1 H                                       1.0952836
  3333   6 C     3400   1 H                                       1.0874724
  3333   6 C     3401   1 H                                       1.0872967
  3333   6 C     3402   1 H                                       1.0861198
  3331   6 C     3403   1 H                                       1.0934461
  3331   6 C     3404   1 H                                       1.0919780
  3329   6 C     3405   1 H                                       1.0936331
  3330   6 C     3406   1 H                                       1.0868861
  3330   6 C     3407   1 H                                       1.0883564
  3330   6 C     3408   1 H                                       1.0882011
  3328   6 C     3409   1 H                                       1.0914545
  3328   6 C     3410   1 H                                       1.0934384
  3326   6 C     3411   1 H                                       1.0927558
  3327   6 C     3412   1 H                                       1.0863633
  3327   6 C     3413   1 H                                       1.0881277
  3327   6 C     3414   1 H                                       1.0884274
  3325   6 C     3415   1 H                                       1.0918426
  3325   6 C     3416   1 H                                       1.0935888
  3323   6 C     3417   1 H                                       1.0924948
  3324   6 C     3418   1 H                                       1.0878260
  3324   6 C     3419   1 H                                       1.0869748
  3324   6 C     3420   1 H                                       1.0881624
  3322   6 C     3421   1 H                                       1.0915274
  3322   6 C     3422   1 H                                       1.0935615
  3320   6 C     3423   1 H                                       1.0940218
  3321   6 C     3424   1 H                                       1.0884265
  3321   6 C     3425   1 H                                       1.0867431
  3321   6 C     3426   1 H                                       1.0882563
  3319   6 C     3427   1 H                                       1.0901012
  3319   6 C     3428   1 H                                       1.0922557
  3317   6 C     3429   1 H                                       1.0945646
  3318   6 C     3430   1 H                                       1.0870177
  3318   6 C     3431   1 H                                       1.0885745
  3318   6 C     3432   1 H                                       1.0884065
  3316   6 C     3433   1 H                                       1.0916399
  3316   6 C     3434   1 H                                       1.0929072
  3314   6 C     3435   1 H                                       1.0930042
  3315   6 C     3436   1 H                                       1.0886744
  3315   6 C     3437   1 H                                       1.0881867
  3315   6 C     3438   1 H                                       1.0873949
  3313   6 C     3439   1 H                                       1.0902046
  3313   6 C     3440   1 H                                       1.0925178
  3311   6 C     3441   1 H                                       1.0932114
  3312   6 C     3442   1 H                                       1.0861603
  3312   6 C     3443   1 H                                       1.0888574
  3312   6 C     3444   1 H                                       1.0880610
  3310   6 C     3445   1 H                                       1.0935583
  3310   6 C     3446   1 H                                       1.0925138
  3308   6 C     3447   1 H                                       1.0927807
  3309   6 C     3448   1 H                                       1.0868479
  3309   6 C     3449   1 H                                       1.0885362
  3309   6 C     3450   1 H                                       1.0873203
  3307   6 C     3451   1 H                                       1.0927599
  3307   6 C     3452   1 H                                       1.0931148
  3305   6 C     3453   1 H                                       1.0941088
  3306   6 C     3454   1 H                                       1.0882390
  3306   6 C     3455   1 H                                       1.0876016
  3306   6 C     3456   1 H                                       1.0886489
  3304   6 C     3457   1 H                                       1.0898890
  3304   6 C     3458   1 H                                       1.0918525
  3302   6 C     3459   1 H                                       1.0938512
  3303   6 C     3460   1 H                                       1.0884995
  3303   6 C     3461   1 H                                       1.0880327
  3303   6 C     3462   1 H                                       1.0870724
  3301   6 C     3463   1 H                                       1.0933778
  3301   6 C     3464   1 H                                       1.0931884
  3299   6 C     3465   1 H                                       1.0945468
  3300   6 C     3466   1 H                                       1.0869116
  3300   6 C     3467   1 H                                       1.0882678
  3300   6 C     3468   1 H                                       1.0876274
  3298   6 C     3469   1 H                                       1.0926042
  3298   6 C     3470   1 H                                       1.0921352
  3296   6 C     3471   1 H                                       1.0942718
  3297   6 C     3472   1 H                                       1.0870415
  3297   6 C     3473   1 H                                       1.0878785
  3297   6 C     3474   1 H                                       1.0883443
  3295   6 C     3475   1 H                                       1.0925807
  3295   6 C     3476   1 H                                       1.0928218
  3293   6 C     3477   1 H                                       1.0924161
  3294   6 C     3478   1 H                                       1.0867994
  3294   6 C     3479   1 H                                       1.0883118
  3294   6 C     3480   1 H                                       1.0886623
  3292   6 C     3481   1 H                                       1.0929803
  3292   6 C     3482   1 H                                       1.0943060
  3290   6 C     3483   1 H                                       1.0922333
  3291   6 C     3484   1 H                                       1.0865571
  3291   6 C     3485   1 H                                       1.0886955
  3291   6 C     3486   1 H                                       1.0880839
  3289   6 C     3487   1 H                                       1.0919328
  3289   6 C     3488   1 H                                       1.0933160
  3287   6 C     3489   1 H                                       1.0926388
  3288   6 C     3490   1 H                                       1.0883051
  3288   6 C     3491   1 H                                       1.0865187
  3288   6 C     3492   1 H                                       1.0880595
  3286   6 C     3493   1 H                                       1.0915806
  3286   6 C     3494   1 H                                       1.0931869
  3284   6 C     3495   1 H                                       1.0927089
  3285   6 C     3496   1 H                                       1.0880831
  3285   6 C     3497   1 H                                       1.0877409
  3285   6 C     3498   1 H                                       1.0867894
  3283   6 C     3499   1 H                                       1.0917160
  3283   6 C     3500   1 H                                       1.0933759
  3281   6 C     3501   1 H                                       1.0925705
  3282   6 C     3502   1 H                                       1.0885553
  3282   6 C     3503   1 H                                       1.0864048
  3282   6 C     3504   1 H                                       1.0878184
  3280   6 C     3505   1 H                                       1.0914826
  3280   6 C     3506   1 H                                       1.0931352
  3278   6 C     3507   1 H                                       1.0931994
  3279   6 C     3508   1 H                                       1.0870754
  3279   6 C     3509   1 H                                       1.0881556
  3279   6 C     3510   1 H                                       1.0864887
  3277   6 C     3511   1 H                                       1.0924003
  3277   6 C     3512   1 H                                       1.0935718
  3275   6 C     3513   1 H                                       1.0928388
  3276   6 C     3514   1 H                                       1.0880846
  3276   6 C     3515   1 H                                       1.0883198
  3276   6 C     3516   1 H                                       1.0865517
  3274   6 C     3517   1 H                                       1.0923059
  3274   6 C     3518   1 H                                       1.0936910
  3272   6 C     3519   1 H                                       1.0928571
  3273   6 C     3520   1 H                                       1.0861276
  3273   6 C     3521   1 H                                       1.0881995
  3273   6 C     3522   1 H                                       1.0861543
  3271   6 C     3523   1 H                                       1.0915160
  3271   6 C     3524   1 H                                       1.0931438
  3269   6 C     3525   1 H                                       1.0922253
  3270   6 C     3526   1 H                                       1.0883370
  3270   6 C     3527   1 H                                       1.0869753
  3270   6 C     3528   1 H                                       1.0878104
  3268   6 C     3529   1 H                                       1.0915927
  3268   6 C     3530   1 H                                       1.0930618
  3266   6 C     3531   1 H                                       1.0946806
  3267   6 C     3532   1 H                                       1.0877138
  3267   6 C     3533   1 H                                       1.0882467
  3267   6 C     3534   1 H                                       1.0875684
  3353   6 C     3535   1 H                                       1.0929812
  3353   6 C     3536   1 H                                       1.0904497

 * 2 distinct bonds (by element types)

   Z      Z             #   av. dist./Å        max./Å        min./Å
   1 H    6 C        2366     1.0900752     1.0985095     1.0844739
   6 C    6 C        1099     1.5324339     1.5398948     1.5230849


optimized geometry written to: xtbopt.xyz


           -------------------------------------------------
          | TOTAL ENERGY            -3716.248528643140 Eh   |
          | GRADIENT NORM               0.000963302929 Eh/α |
          | HOMO-LUMO GAP              11.373737566876 eV   |
           -------------------------------------------------

------------------------------------------------------------------------
 * finished run on 2024/10/04 at 19:21:49.055     
------------------------------------------------------------------------
 total:
 * wall-time:     0 d,  6 h, 38 min, 40.432 sec
 *  cpu-time:     1 d, 13 h,  7 min, 40.548 sec
 * ratio c/w:     5.588 speedup
 SCF:
 * wall-time:     0 d,  0 h, 16 min, 52.917 sec
 *  cpu-time:     0 d,  1 h, 50 min, 55.740 sec
 * ratio c/w:     6.571 speedup
 ANC optimizer:
 * wall-time:     0 d,  6 h, 20 min, 19.368 sec
 *  cpu-time:     1 d, 11 h, 14 min, 59.348 sec
 * ratio c/w:     5.561 speedup

