3864
 energy: -5104.066988214414 gnorm: 0.000932078136 xtb: 6.6.1 (8d0f1dd)
C           49.41875762032429       50.64724796750001       36.67595339177593
C           49.42022657106099       50.38191307785188       35.31330355995444
C           48.25303611729216       50.61277750445866       34.59327626744650
C           47.12212830087029       51.11198636318296       35.21193595323003
C           47.13677121213274       51.36710758745651       36.57225872913072
C           48.28522861678449       51.12987366927899       37.30522557724933
C           50.65195142142732       49.81600183576033       34.64628024959941
C           50.34860506424339       48.39862903658903       34.15416980709320
C           51.11774323128544       50.76003544477254       33.52579911308139
C           52.31270745042451       50.25153366460563       32.70767538045268
C           52.53866954486372       51.13185615511789       31.50186539240868
C           52.92156685845960       52.46120727195933       31.63485494964953
C           53.17834693960734       53.24244131678851       30.52198745700840
C           53.04817410874507       52.70812349628883       29.25154001216311
C           52.65094169736123       51.39097184175802       29.10326633749012
C           52.40191429876170       50.61396548386642       30.22050468722385
C           53.60568755113233       50.15799951543003       33.52833543676660
C           54.67519048524443       49.39210880494117       32.73895779715434
C           54.27657558963768       47.94037839840848       32.60714915839876
C           54.05463747540784       47.38511205122958       31.35271526013562
C           53.65248542953985       46.06735334871560       31.21522417377787
C           53.47582364890618       45.27437948583265       32.33511232043874
C           53.70864538159463       45.81083371914571       33.58950158731074
C           54.09960109678079       47.13126815580564       33.72457738151583
C           56.07356757160282       49.50615386743598       33.36163569541778
C           56.68774289011456       50.91959949160685       33.35690756265473
C           58.08736980316407       50.81290136218075       33.90871020930063
C           59.11011378823991       50.21849646605446       33.17993926205047
C           60.38612970744946       50.11986910570496       33.70362073436076
C           60.65968211663135       50.60761288110044       34.96988962356552
C           59.64863318911289       51.19699440818560       35.70807805907653
C           58.37506519411451       51.29706642253115       35.17748096695157
C           56.64877368508066       51.56331743556130       31.96237761897858
C           57.52778580680714       52.82029135021894       31.81407428934256
C           57.33653143309873       53.76303416592310       32.97305525897266
C           56.11023027816661       54.37054852616848       33.22426747130951
C           55.94675438404501       55.21689640535248       34.30562157973988
C           56.99733475407372       55.43790905356202       35.18171296924572
C           58.22222866154443       54.84293921087167       34.94002683176036
C           58.39335228363220       54.02842352151413       33.83450724180203
C           57.22552372924258       53.46878657968363       30.45403047268241
C           58.19956518881233       54.59460435752691       30.06204987132221
C           58.36491169886228       54.63412866925665       28.56245334136938
C           59.61823934846799       54.50383086305589       27.97948336612309
C           59.77287657292857       54.55166522714616       26.60496823483277
C           58.66941940348858       54.72627523276959       25.78872277695739
C           57.41284037135773       54.85375759384943       26.35729836222412
C           57.26311235093531       54.80895999240977       27.73147409542162
C           57.73059791748648       55.96827736756607       30.56020571997549
C           58.81170180530064       57.04193941508825       30.37007807058822
C           59.90136652053447       56.88829378879618       31.39913230841977
C           61.19676854696232       56.57158863618148       31.01231128804271
C           62.20484330304995       56.43413512918708       31.95049514982245
C           61.93216984262084       56.62302810188477       33.29395061751852
C           60.64713171138924       56.95090915534929       33.69028659113410
C           59.64088513555122       57.07760229185666       32.75094865615803
C           58.20418997399170       58.45243768580234       30.43024710039323
C           57.59766301514923       58.86671053721799       29.08167185426114
C           58.69591795254537       59.09695617342091       28.07526870177232
C           58.86194449879205       58.22263621090503       27.00932934534012
C           59.88228757619781       58.40606923258694       26.09299305868316
C           60.74914772587475       59.47622741647614       26.22532682148225
C           60.58692113580548       60.36036068273024       27.27875334225833
C           59.57067060491110       60.17025871583866       28.19693658019351
C           56.70620126204309       60.10955596626309       29.22475170085144
C           55.30720093970300       59.75876940717851       29.74481760531406
C           54.55951914437688       58.87635924401697       28.77716736806702
C           54.30798966731531       59.27918330450368       27.47112586356027
C           53.63067279401428       58.45207620099257       26.59388223089761
C           53.18980405249458       57.20695464567712       27.00898151694008
C           53.42252565704025       56.79979553885195       28.31024677464692
C           54.09925550249248       57.63020458280492       29.18553298203277
C           54.51185715130402       61.03582229714150       30.05748374835965
C           54.94155093806027       61.68590860724936       31.39074057718273
C           55.49688344040703       63.07357427966093       31.18728189848899
C           54.75151340888588       64.05207291880399       30.53862433836873
C           55.25646729674015       65.32689856253236       30.36209233219639
C           56.51840898226607       65.64694074326624       30.83510382332255
C           57.26675209305454       64.68409758786342       31.48936874139254
C           56.75691221265026       63.40929206261391       31.66461785268111
C           53.77132511499088       61.76291539488226       32.38175776529332
C           53.22905489641738       60.39051035741967       32.83582966209276
C           54.04535444508135       59.88561101832440       34.00277452905756
C           53.73652980427691       60.19934975164173       35.32204256846878
C           54.54067250633691       59.77101218815343       36.36386922733864
C           55.68921978201163       59.04292167683015       36.10963162272826
C           56.00818864258231       58.72010537075752       34.80240564379031
C           55.18308371480137       59.12174091238298       33.76754884980234
C           51.73804141504747       60.54095443057582       33.14617409411369
C           51.06675039264264       59.24953389942848       33.61486685800553
C           51.04741147737918       58.17085151689752       32.56178008912116
C           51.37375396245336       56.86500183967983       32.90274563479626
C           51.27328143977725       55.84298276045860       31.97589096358252
C           50.86454250671208       56.11200738272891       30.68258654772956
C           50.55457064131627       57.41189648037937       30.32389534152139
C           50.63419199705543       58.42757464263667       31.25899799911123
C           49.62487537761622       59.55560686565991       34.06288668375327
C           49.20725513345781       58.76590967792537       35.30860951146536
C           49.99942516482177       59.22527585671854       36.50646171345920
C           50.91994894584290       58.38893246217159       37.12492330874625
C           51.64512274446484       58.82189170586259       38.22254549467720
C           51.44811905083588       60.09345897595369       38.73147967040511
C           50.53353725565900       60.93735263681796       38.12343192455628
C           49.82427119640210       60.50762461685828       37.01705272806782
C           47.70422133421017       58.95837406126665       35.55550271245509
C           46.82950585625673       58.03744689814097       34.68974476248445
C           45.51517570026899       58.71315242713607       34.38761687367334
C           44.65797796296221       59.10719675070342       35.40864336126357
C           43.45671516493184       59.72935166564264       35.12327595072431
C           43.09125022023509       59.96922982340190       33.81007252801592
C           43.93995073878499       59.58994201064865       32.78507843117570
C           45.14265016291912       58.97036533049586       33.07447441993227
C           46.60974770493441       56.69841076793501       35.40185993607257
C           45.70548445084345       55.74608076328263       34.60631852809222
C           46.43978315966684       55.14622413562124       33.43527127599911
C           47.51840856251076       54.28872236888995       33.61568065221662
C           48.20039536242998       53.76843126935932       32.53102901170150
C           47.81734673404709       54.09741334680072       31.24278700189462
C           46.74038126310635       54.94487965543729       31.04975965324448
C           46.05872026225938       55.46233532309772       32.13707968883791
C           45.12513107183100       54.68181262366911       35.54361793847425
C           43.98418241305054       53.86317063368512       34.92136520259510
C           42.97092396730674       54.76428140292804       34.26427548356392
C           42.73695153240776       54.67192771920877       32.89845395996586
C           41.84004548035089       55.51988611429918       32.27327305413326
C           41.16374627168383       56.47845142422105       33.00726956391847
C           41.38437181661339       56.57617359214490       34.37009224480433
C           42.27826309255387       55.72502313785903       34.99257704739534
C           43.34763771277335       53.01468155754764       36.02775405659106
C           42.21365612999971       52.09923114178359       35.55542034351766
C           42.72117652721077       51.10752760550186       34.53986285874357
C           43.69284297309895       50.17081030377661       34.87250150743745
C           44.19093303154298       49.29125908911055       33.92840501500552
C           43.71461200005116       49.32678339922355       32.62923278466535
C           42.73533273887139       50.24449656450417       32.28795186057590
C           42.24473774928407       51.12692679240255       33.23483578851028
C           41.60976121237101       51.40174700269606       36.78155528790147
C           40.43470135220205       50.49194585538745       36.41934961695646
C           39.29003493871104       51.28589586140159       35.84213998261215
C           38.73001294071663       52.34903879412527       36.54138355723686
C           37.66785705636321       53.06085778599189       36.01535743398374
C           37.14444367394373       52.72073920786190       34.77955770568261
C           37.69400844639837       51.66493067369451       34.07388383418885
C           38.75730931590349       50.95473375265039       34.60340310674053
C           39.93614160822379       49.69796476273904       37.63578881337072
C           40.98296929894564       48.72539478309788       38.21310475440696
H           51.44299872968899       49.74816377448801       35.40038791867985
H           50.28793396710280       50.92232670248553       32.83331895372250
H           51.36716978408593       51.72290995790498       33.97875429569768
H           52.07221938424016       49.24848502779744       32.34232343264655
H           53.96159580165067       51.16112278847761       33.76226232546918
H           53.41600198531219       49.64730515656695       34.47195977955722
H           54.71932262860123       49.81274803291645       31.72976092130859
H           56.04716372219315       49.15238819178732       34.39509076842239
H           56.73958844328133       48.84016645081893       32.80799884776391
H           56.11466726783333       51.55629012676727       34.03841907499783
H           55.61647561978180       51.83654237225876       31.73561303134189
H           58.57709758409626       52.50584067030844       31.81321448179462
H           57.28468185512610       52.68291869503233       29.69583879562040
H           56.20240984790870       53.84752779510882       30.44599066807654
H           59.17451798348740       54.38338229643909       30.51523743978027
H           56.83314731333577       56.25656374162848       30.00887679041527
H           57.47053148760331       55.90193929991912       31.61684287677943
H           59.25850446649495       56.91522228434774       29.37822897741579
H           57.44096594258298       58.48334361866173       31.20938952117873
H           58.98319625228601       59.16848034565114       30.70212919932979
H           56.97239780545991       58.04790122773456       28.70964887204643
H           55.41626827490128       59.19314583331096       30.67500958540272
H           54.65041887417979       61.74298275066177       29.23811363245018
H           53.44916506522588       60.78691050072610       30.09371741185727
H           55.72496289604565       61.07725443682889       31.85255140862959
H           54.09596239978342       62.31990461238101       33.26497911974693
H           52.96273522632417       62.33071190083880       31.91638311756995
H           53.32989636891013       59.67399684905908       32.01477336267358
H           51.60396760104673       61.29973626015592       33.91806383514994
H           51.23050355083820       60.90983495416805       32.25318403251444
H           51.62676931160865       58.87591577406483       34.47842276450580
H           49.52956944321004       60.62076708318752       34.28090723196379
H           48.93525138984423       59.33423406235897       33.24662295089482
H           49.41169650186571       57.70326424554681       35.13894033585797
H           47.48158664721511       58.77300527249091       36.60822794795128
H           47.44588371105060       59.99655540498266       35.34084337139532
H           47.34014429490723       57.83994312596069       33.74138178285848
H           47.57760585885972       56.22913801219105       35.59153919566538
H           46.13726719034147       56.89653540700382       36.36696341130538
H           44.86778172010651       56.33654578117455       34.22075457573605
H           45.91422014238727       54.00023968091720       35.86678751263817
H           44.73570109583424       55.18767097379836       36.43070644651477
H           44.40152006743575       53.19921848423052       34.15627725040166
H           44.12648701994615       52.39892375438955       36.48167862540897
H           42.95342910646811       53.67776404015059       36.80071221946651
H           41.43879665952985       52.71596809973094       35.08702384646730
H           42.38242994205208       50.81122695859466       37.27229900974924
H           41.28125058295663       52.16074906899940       37.49408657454499
H           50.31519063701615       50.46183211977829       37.25058442396332
H           48.29620762162585       51.31908706155116       38.36826859985839
H           46.25308946177168       51.74581356356658       37.06545364673956
H           46.22876051593080       51.29114463095318       34.63170470247412
H           48.21250822576176       50.39228683538042       33.53734469164742
H           53.02891857416811       52.88600353054621       32.62267152962225
H           53.47963357327789       54.27377069335465       30.64562334108295
H           53.25807899099666       53.31200563394996       28.38069193426645
H           52.54187023159049       50.96533369533318       28.11620597138653
H           52.11098107312949       49.57950909034606       30.10062795774257
H           54.19590152084863       47.99573813439603       30.47119819488595
H           53.47988847605107       45.65839261792873       30.22977989193124
H           53.15863792304976       44.24694283181145       32.23808611826213
H           53.58481269718697       45.19245006870862       34.46502544325319
H           54.26728890059307       47.53562755101207       34.71286342500778
H           58.91324452622433       49.83687228319886       32.18835645573124
H           61.17269378215513       49.66446078781836       33.11866783791074
H           61.65891121780313       50.53094347637925       35.37348258136856
H           59.84619486450418       51.58806241810206       36.69593650606075
H           57.59554583084891       51.77471855457983       35.75321780242844
H           56.96771458923579       50.83508430826526       31.21333523841290
H           55.27857697410764       54.18832787006296       32.55912376341869
H           55.00242576220003       55.71652371643619       34.46773224906354
H           56.85705730748540       56.08015221868790       36.03993250056507
H           59.05201848145877       55.01328714176194       35.60981572439496
H           59.36116188967701       53.58795798893775       33.64368876616005
H           60.48388533396903       54.36165110086763       28.61151037456590
H           60.75726538438226       54.45233051024915       26.17081273773030
H           58.78619281490490       54.76395116816419       24.71552700457079
H           56.54577666491149       54.99443624039691       25.72742193723404
H           56.27639532192170       54.91228018417193       28.15950787827045
H           61.41751159463605       56.43902784147918       29.96210447528851
H           63.20656838293132       56.18430016966244       31.63143090167166
H           62.71852404898272       56.52068045472672       34.02761764876725
H           60.42854580592428       57.11300345306827       34.73578432424470
H           58.64169803132946       57.33029122768531       33.07366944969719
H           58.18689267192877       57.38646604853729       26.89636480417433
H           59.99801919449141       57.70900571189600       25.27580395517689
H           61.54626848072152       59.62325376187452       25.51126595537372
H           61.25736302315357       61.20106014180288       27.38593630569039
H           59.45634890143809       60.86715825797913       29.01448229253287
H           57.17107831436928       60.82600673753324       29.90438025862650
H           56.61518180515019       60.59460387065339       28.25091154378440
H           54.64471611399225       60.24807829738436       27.13309093918690
H           53.44683058578151       58.78005984554017       25.58093124855133
H           52.66408192464861       56.55993283742113       26.32181411293002
H           53.07257282338261       55.83573397400782       28.64765099932554
H           54.26897961809154       57.30435743107088       30.20345467179140
H           53.76607799468859       63.81456701962671       30.16427907145362
H           54.66352514059103       66.07514342983460       29.85612957591149
H           56.91428277504597       66.64228525977504       30.69568762115982
H           58.25051661252952       64.92674572611394       31.86447189042891
H           57.34702957553118       62.66345326876712       32.17978629874471
H           52.85350513329957       60.77380473697138       35.55349526181666
H           54.26977084056983       60.00936925830568       37.38136758373256
H           56.32242894855761       58.72741260811346       36.92626403943549
H           56.89851705838954       58.14778700138714       34.58639481765037
H           55.42866044554966       58.82936459576916       32.75657962914244
H           51.70046640118311       56.64740599752067       33.91030354225842
H           51.50923900785634       54.82902787111500       32.25996703793759
H           50.78456707532010       55.31152888330735       29.96190939581721
H           50.24244209529660       57.63482071604482       29.31384598910854
H           50.36063131953367       59.43124589350300       30.96764767631185
H           51.07382589013698       57.38730383697533       36.74632356701385
H           52.37225869904012       58.16377550567953       38.67565162949034
H           52.00231238421681       60.42682800954707       39.59769975404861
H           50.37381559880455       61.93605331048523       38.50725031540274
H           49.12621172362815       61.17943182589177       36.53861197946789
H           44.92941044473632       58.93819821990053       36.43998220067872
H           42.80792611865380       60.03175939605241       35.93247566769897
H           42.15214413877880       60.45311236555838       33.58574450416529
H           43.66504700529696       59.77818774118290       31.75713934742575
H           45.80413717033721       58.67777779731966       32.27031357359254
H           47.83193290167944       54.01383722491554       34.61202399678579
H           49.03528621465127       53.10110486912991       32.69356632645406
H           48.35102253218857       53.69284317279372       30.39507534521369
H           46.43006840382034       55.20375023553700       30.04763310225337
H           45.21426134003882       56.11927722047062       31.98120260733328
H           43.27101138781615       53.93123786729205       32.31943479699731
H           41.67250368705601       55.43504545516510       31.20904523541239
H           40.46848777056079       57.14593722992240       32.51990398310993
H           40.86080964847277       57.32169160244386       34.95051729361579
H           42.44041461002860       55.81863711815896       36.05621189155170
H           44.07762848184604       50.12482126497905       35.88017578086219
H           44.95885193237521       48.58511958263826       34.21280439933544
H           44.10726325582822       48.64703740553261       31.88695134086736
H           42.35434151033171       50.27624799266378       31.27711920669390
H           41.48392597325490       51.84504092093746       32.96178788444756
H           39.18543059150952       50.13431070277021       34.04381444213944
H           37.29433550663272       51.39451887869739       33.10706805513348
H           36.31524527028099       53.27729658450314       34.36796959185706
H           37.24886343761825       53.88797112378566       36.57138379925598
H           39.12885261772835       52.63254447958742       37.50440759510273
H           49.61046591968780       48.42356273674581       33.35470537713341
H           51.24623588664235       47.89994677777577       33.79549673296945
H           49.95053539584581       47.80705214584863       34.97728942932069
H           40.77715627492213       49.77722476257443       35.66131119914238
H           39.61488576016453       50.39734323126299       38.40911809572745
H           39.04992574344148       49.13826827510381       37.33148801645688
C           40.36726768569743       47.34319539152152       38.48978460556138
C           41.59747250096827       49.25569154950210       39.48402168109371
C           40.81047830927910       49.45504401160823       40.61416709856597
C           41.37206777270974       49.88734759112325       41.80224861445030
C           42.72981125266293       50.15001446768299       41.87817628907591
C           43.52195628970023       49.96102297779325       40.75964482303105
C           42.96008059640613       49.50968879692546       39.57740330010570
H           39.75008500187032       49.25288081278615       40.56687604912926
H           40.74658974148298       50.00348586805550       42.67605559229360
H           43.17271468242497       50.49171574649895       42.80198652282195
H           44.58376451163506       50.15821141823814       40.81202368344275
H           43.59733073985651       49.34447083383375       38.71941085085421
C           40.19483178510682       46.52557610035537       37.20807439444376
H           41.01434374234976       46.79057522866815       39.17392894702814
H           39.39743238372263       47.46442225089374       38.97563854532530
C           39.48648035811335       45.22920209556316       37.47798400267497
C           40.06880730963937       44.26634782401360       38.29359630390860
C           39.42635778406184       43.06850215801406       38.54393161194356
C           38.18013885063368       42.81883341778212       37.99445509593697
C           37.58871166464267       43.77071952673435       37.18258778387921
C           38.24111901171418       44.96431095442777       36.92380292587093
H           41.03845901192609       44.45009778965799       38.73207564491710
H           39.90432420397590       42.32309950308853       39.16201304451052
H           37.67545606643339       41.88572463122827       38.19821560716570
H           36.61862298233036       43.58221756696572       36.74467115650121
H           37.78060384022776       45.69700909029100       36.27434146785328
H           41.77787165056603       48.58647512735608       37.47150975642968
H           39.63049512997674       47.10542354093833       36.47513403230037
H           41.18153813824856       46.31589854065208       36.78520671178945
C           46.77285679694112       48.15368596883671       29.08754139141933
C           48.08155686241615       48.17837672146475       29.55259514671992
C           48.47950511277943       49.25256932633079       30.34172935748243
C           47.59112520101493       50.26164515328772       30.66646483782676
C           46.28335033474759       50.21341072624274       30.21488410557625
C           45.87782255671623       49.15633239943509       29.41992613522289
C           49.05466557594372       47.08502765961202       29.18013256296945
C           50.15868817525665       47.66835478116863       28.29249323328381
C           49.64761262743670       46.38709631021023       30.42148530936780
C           48.96938041224032       45.04710131193890       30.73951970219998
C           49.68587434753152       44.33271967607028       31.85930772555566
C           49.77478108367534       44.90262972602227       33.12382122588073
C           50.35197206760979       44.21570162524987       34.17584872074905
C           50.85125163534131       42.93938280267197       33.98171116255304
C           50.79160719194896       42.37090586769363       32.72152773761510
C           50.21657254056388       43.06329805311629       31.66990891771569
C           47.49064162605220       45.21212461505856       31.12057718818409
C           46.79896370991145       43.84701644217843       31.22211116409634
C           46.68279434602215       43.18612400673822       29.87070937803142
C           47.19829365636269       41.91114487687323       29.67323490410192
C           47.09101433135611       41.28111483790197       28.44614823964511
C           46.46198692795339       41.91952844897867       27.39169071075408
C           45.93591173414347       43.18655424693220       27.57777525706311
C           46.04297502399289       43.81122401139613       28.80701359063432
C           45.40241283583800       43.93505241889440       31.85464675683879
C           45.37823916727437       44.36090937238895       33.33435137303348
C           43.93420270369752       44.35543652874900       33.77059247000835
C           43.26064993273050       43.16958603922875       34.03744471908244
C           41.92282739396963       43.18225366823827       34.39229757724052
C           41.23030540304455       44.37842168260323       34.47280655653499
C           41.88881308556353       45.56347717094488       34.19304964150545
C           43.22869175007137       45.54953281275798       33.84885330668229
C           46.28006788285929       43.46080018693451       34.19137296677159
C           46.07994366858374       43.64272920037715       35.70360914886999
C           46.00883524959067       45.10465530008674       36.07747086124598
C           44.85305511862227       45.62659367424911       36.64353742624168
C           44.77775354923790       46.95727987211706       37.01720243802647
C           45.86395492740954       47.79228290920484       36.82669188047209
C           47.01547065602023       47.29104438325278       36.24422379537832
C           47.08599694776981       45.96065259416718       35.87312055528832
C           47.20675474367433       42.97297247875718       36.51129382170952
C           47.37893945415343       41.46524388761299       36.27577947872042
C           48.67447808584612       40.95531375800935       36.86175091753659
C           49.00449700332226       41.18155077265623       38.19376049355827
C           50.13867371259258       40.62084230433698       38.75346695912189
C           50.95928526863290       39.80435468183729       37.99333410746570
C           50.65276394732756       39.58408890438276       36.66078795669330
C           49.52905273092874       40.16718627294515       36.10010695114951
C           46.22604027742970       40.64874897114135       36.88109877479403
C           46.17537841849108       39.21569490977815       36.32338565752449
C           45.61489573833587       39.26293182677353       34.92442836464370
C           46.44034353138645       39.07064789920394       33.82356971375773
C           45.95220889407613       39.19815232499945       32.53454431502767
C           44.61993038922258       39.50659036871122       32.32421466646733
C           43.77993676345311       39.67396067158073       33.41253379954579
C           44.27541841970427       39.56047428831265       34.69957340401290
C           45.36044192028232       38.30124808948144       37.24954130605465
C           46.17127554131397       37.83370371707383       38.47532486311886
C           46.99357861613237       36.61522715697636       38.14082664913017
C           46.42046448090417       35.34932601648394       38.09511785831857
C           47.19098792298455       34.23487065641192       37.81839780425317