3536
 energy: -3716.270334315548 gnorm: 0.000668017669 xtb: 6.6.1 (8d0f1dd)
C           45.68733620544574       51.71568175551360       60.43923441091781
C           45.09016392674482       52.58703178195559       61.54125104614845
C           44.05065338328661       53.53471088507391       60.94264425867679
C           46.16249611197500       53.41442940397662       62.26030323771793
C           47.25844865128190       52.62610541890709       62.98584750542037
C           46.67079715288484       51.70800425916011       64.05814564629598
C           48.26495850981289       53.57839064462564       63.65140038567743
C           49.00303941890964       54.53782126609170       62.71066420831897
C           49.75912200860274       53.76418307200662       61.63006073794102
C           50.00100652964487       55.41874339725437       63.47809871737368
C           49.43601234854272       56.26877962272803       64.62445586904434
C           48.20953627666301       57.07245590493610       64.19167541701782
C           50.48782453282421       57.26179692737949       65.14689057561175
C           51.83861236555267       56.67129600399988       65.56011461394866
C           51.67825671867803       55.64205133329370       66.67815999150477
C           52.80305875565156       57.76771988120674       66.03448850234884
C           53.12675365769977       58.87647589156938       65.02404612345056
C           53.48924758988471       58.30444351234438       63.65406205320319
C           54.30952848706794       59.72521955142299       65.51484669767522
C           54.15285139493021       60.39673147301476       66.88363776779636
C           52.98549604448843       61.38377704298485       66.88307186651726
C           55.43835131279934       61.14475789610727       67.27213239863349
C           56.66886600321597       60.26651016770196       67.52353181271307
C           56.46826003299945       59.36248483313067       68.74007826509835
C           57.93281388945355       61.11093523552879       67.73714017410195
C           58.36654291738790       62.00235443820034       66.56493099850775
C           58.43484317576446       61.22185239285332       65.25432953707458
C           59.73861681671475       62.61691948632110       66.88127008803188
C           60.03750223059067       63.90326785424530       66.09622665302484
C           61.54553137430291       64.07581665483177       65.93434358142942
C           59.41758748526908       65.10873640920317       66.81172602147471
C           59.37367030306669       66.41065110867041       66.00119335671356
C           58.93137596204294       67.55292364562992       66.91807119635264
C           58.43198321718638       66.31696324184283       64.78766687200419
C           59.12494249840286       66.09637948348370       63.43631334340078
C           59.86108302969845       67.36265205500517       63.00476582856975
C           58.09797220353341       65.73149580685771       62.35570771510553
C           57.52623637010049       64.30688536179439       62.43670145512353
C           58.55870591192146       63.30359988031496       61.92817194190301
C           56.21447408585063       64.22646607815882       61.63500067224468
C           55.12347762772773       63.26228829480464       62.13127466858596
C           54.76894703360053       63.51622463943184       63.59828182706532
C           55.41249274854637       61.76962223551596       61.93442062915692
C           55.65217286826461       61.30710014439704       60.49156886172791
C           54.52492532949714       61.75848206640332       59.56219183292448
C           55.75355395043351       59.77547178084163       60.42220296304991
C           56.96785174772994       59.13162194701572       61.10383549849520
C           58.25511933932131       59.51007427902053       60.37751164584488
C           56.79584335564340       57.60506109453577       61.11526079848360
C           57.72104394443173       56.85082740556494       62.08364380635635
C           57.83761346458331       55.39170930607418       61.64907687517684
C           57.18291870111922       56.95697967656905       63.51525551525700
C           58.03778029856797       56.32351082371923       64.62311000895461
C           57.27978956591875       56.42568708130941       65.94668711039650
C           59.40782868509176       57.00462017856938       64.70564575754116
C           60.34528340587477       56.56368659436955       65.84281993104875
C           61.60709236003154       57.42275520727290       65.76123236321223
C           60.61981856441063       55.05777330650353       65.73330003602412
C           61.53184438798641       54.38258447197712       66.77559191410306
C           61.24696587392884       54.87823180793774       68.19402065975108
C           63.03689522856277       54.47654215023623       66.48296580553236
C           63.49970390031582       53.80859739280764       65.18283431866519
C           63.37605807743117       52.28783559293675       65.27097193268635
C           64.95761363601726       54.17070554425116       64.86219930290321
C           65.22032484981584       55.62784708161380       64.45678562005399
C           64.60127425341609       55.92234421159548       63.09022793028194
C           66.73249608287203       55.92023134152349       64.41138524003334
C           67.36177552742515       56.55935653372898       65.65970726830994
C           67.30336967880169       55.63599261817998       66.87714514130494
C           66.76455126696278       57.91974595754068       66.04588956556981
C           66.71942430254526       58.99063503226591       64.95009330540721
C           68.11543671303521       59.28822097978966       64.40454985079720
C           66.10874014419763       60.28787029927215       65.50204580444476
C           64.59705742188375       60.23496974415175       65.76186865452132
C           63.83083997227209       60.42766155746771       64.45533602414129
C           64.16331525634146       61.30978972001959       66.76811769122165
C           64.61031795280920       61.07593328986668       68.21450081212869
C           63.92918199332019       59.84244903369878       68.81013316285251
C           64.28927964367081       62.28263392174986       69.10863747895905
C           64.90536430279154       63.63196567506279       68.71441542410832
C           66.42098807511456       63.53411469801894       68.54973597574333
C           64.57537307230186       64.68564592584394       69.78260896967650
C           63.11901614868334       65.17296336365452       69.76892132773519
C           62.95977136529275       66.32753875191558       68.78238594822045
C           62.67496860778085       65.61828456427703       71.16826043689920
C           62.37695572372100       64.45571586325244       72.12431388674896
C           60.98674154980744       63.88229395869456       71.85083209659537
C           62.47827900024004       64.90001144693827       73.58958077017570
C           63.91609968038982       65.05908256255239       74.08055571457891
C           63.96746693163605       65.50916583039631       75.53583062460993
H           44.90011851059376       51.18906424250027       59.90297906406273
H           46.23195720341192       52.33168447873636       59.72615543286740
H           46.36889460620704       50.97388269853915       60.84707673372441
H           63.46949099315977       64.78521924996458       76.17744716103279
H           64.99746165799719       65.61242914908756       75.86967291612905
H           63.47009423953627       66.46942079072487       75.65516886521561
H           61.94420439243347       65.84516550213115       73.71566655551088
H           61.98230603871786       64.15725896828646       74.21959807044703
H           63.45807856412809       66.25286779613438       71.58741786914111
H           61.77389911863573       66.23105839040133       71.08240646849531
H           62.46862704542718       64.35544808460975       69.44486558788431
H           63.33611209478920       66.05071178331355       67.80079799966560
H           61.91348938621150       66.60782571401219       68.67780686681128
H           63.51255763405996       67.19755925310918       69.13028478278405
H           64.81749274357098       64.26747144204712       70.76185669788056
H           65.22495135537460       65.55241028044874       69.63852134160297
H           63.20271685189347       62.38974664391185       69.14891351693528
H           64.62741945581591       62.04316285860786       70.12137908595753
H           63.11069514231708       63.65953116030239       71.95909482381759
H           60.88268966972991       63.59747114042315       70.80690199473547
H           60.80850460210404       62.99956111802226       72.46123964307318
H           60.22035735390180       64.61964338422734       72.08223872224683
H           64.47694262506458       63.96226949320515       67.76312822709669
H           66.83935879937637       64.51384504212135       68.32954145461029
H           66.88002089318897       63.16347371157358       69.46434566527213
H           66.68633938420335       62.86802720315026       67.73349161449076
H           65.68996430977947       60.90396620593666       68.24150583334789
H           64.20071583823884       59.72682793536587       69.85761663547460
H           62.84665649806740       59.93635441939301       68.74703232229817
H           64.22822194570696       58.93728562036188       68.28877663757827
H           64.55184475322109       62.26846772877187       66.42037568666474
H           63.07248551221309       61.37687134041315       66.76092586904063
H           64.32972578280261       59.25386433905053       66.16021600698809
H           64.14711403506662       59.69726416190728       63.71623062282571
H           62.76073844901548       60.31048856267493       64.61100601617294
H           64.01118817186656       61.42341370247595       64.05346184372641
H           66.63538814012506       60.53629965514559       66.42547557792967
H           66.30412532927821       61.09760872212229       64.79378012194668
H           66.09336423277310       58.63330581561806       64.12809181946596
H           68.77614488636860       59.60665714638743       65.20895901994808
H           68.55147989544777       58.41329674140596       63.92951599149525
H           68.06967057300173       60.08375278642816       63.66433805511090
H           65.75304822437957       57.75721442588826       66.42217554021187
H           67.35212049442330       58.31165239053597       66.88173075744852
H           68.42179763941104       56.71032841956517       65.42228568171207
H           67.72935883051321       54.66241384440915       66.64347324417112
H           67.87138429160221       56.06403286408769       67.70142070096144
H           66.27808877290948       55.49899826054190       67.21247680676903
H           67.26796484439234       54.98891890129356       64.20856618757858
H           66.93610385991327       56.58440422765029       63.56936481567538
H           64.75599562454468       56.29654979237900       65.18475538137022
H           65.05163354147948       55.29401372464589       62.32312957804163
H           63.52973211774581       55.73814468785307       63.09573648668222
H           64.75959260828623       56.96444241946919       62.81888540689854
H           65.56804512975999       53.91898069583020       65.73022844311254
H           65.29095111009875       53.53393948041520       64.03773568809545
H           62.86872689352334       54.14593739356042       64.35713209542288
H           63.69972791342406       51.82581800346148       64.34066808895180
H           63.99373442786528       51.89814936961980       66.07882120283278
H           62.34750430550799       51.98598013441669       65.45143172243377
H           63.33000490111581       55.52349625771788       66.46869409920323
H           63.56938254356263       54.00417817778816       67.31491430087814
H           61.27020902195283       53.31688185213853       66.75867272596086
H           61.58227502247225       55.90277259131928       68.33158796363982
H           60.18107605004609       54.83507517460840       68.40989213455464
H           61.76333843631496       54.25509354558022       68.92228508172852
H           59.65370299579696       54.55361070774855       65.80143274002594
H           61.01260315897338       54.85430312804383       64.73551948847830
H           59.85800578605998       56.76965401756137       66.80020959224674
H           62.19762553674828       57.15961851705486       64.88682175827392
H           61.33652391145524       58.47445621816621       65.68232115639495
H           62.22436533906295       57.31327550196711       66.64852877823827
H           59.93554439668341       56.84260186363490       63.76340593214558
H           59.23865278840195       58.08047321483215       64.80376399074608
H           58.17154773658198       55.26296982067750       64.39170705352791
H           57.77480581300981       55.86009671413709       66.73124412040053
H           57.20673995428571       57.46239127985279       66.26761948100517
H           56.27002774554177       56.03190871587007       65.83907261856463
H           57.03560454099605       58.01174773218011       63.76022185042993
H           56.20118134324235       56.47578358000501       63.53505424117063
H           58.71587891273246       57.30110812142013       62.03895640225098
H           58.17780704751290       55.32305974896935       60.61818453463734
H           58.54746304466946       54.85392589159797       62.27087937747493
H           56.87179364723531       54.89637751754231       61.72483035922080
H           55.76156171448464       57.36080022914717       61.37207974719269
H           56.97532151031675       57.23924554129103       60.10093048350546
H           57.02777959206400       59.48366938951001       62.13799297324157
H           59.10877476479043       59.00456872257634       60.82043454380737
H           58.19598671190776       59.22129908574655       59.32966300267014
H           58.44024892759362       60.57852935374247       60.43118324073054
H           54.84235019596210       59.35729497548005       60.85940548422064
H           55.76784471097227       59.48202522121461       59.36884165655373
H           56.58536962568173       61.74147149375024       60.12467464448736
H           54.51856961200991       62.83863775374176       59.44877164011817
H           54.65293932401838       61.32089278165088       58.57451894322012
H           53.55847006813890       61.44362140297306       59.95233051198795
H           56.26862547119228       61.49215074291715       62.55097810186594
H           54.54667135093420       61.22278437293513       62.32265838291769
H           54.22801890560646       63.50022926020042       61.54645968733934
H           54.62894979590850       64.57924837416920       63.78592687587209
H           53.84464608630620       63.00175529951185       63.85543980003773
H           55.54835520935422       63.15049454526375       64.26380559777108
H           55.75540157349814       65.21975051393102       61.63656828085278
H           56.44738738428012       63.99282511103645       60.59498841111695
H           57.31448933134146       64.08011896397615       63.48422729440470
H           58.21095331707814       62.28348683716485       62.05637780064561
H           58.75722233300532       63.46934488624356       60.87149039372090
H           59.49886008369909       63.40952652711757       62.46479898906137
H           57.28314213943555       66.45648746517527       62.42411722594062
H           58.56114373289419       65.85861878843305       61.37503427437529
H           59.85771469935773       65.29130136300182       63.52922925753029
H           59.15089348104138       68.17233885678537       62.85233712774230
H           60.57891177422690       67.67795110976446       63.75798377981581
H           60.39555138006286       67.19875121105763       62.07191006650687
H           57.71367979863409       65.51482919669841       64.96556525363160
H           57.85640376821856       67.24302522087260       64.71418289743835
H           60.38557809309275       66.63902598965898       65.65570940314515
H           58.94843283821039       68.50159656587120       66.38553358857581
H           57.91948453339097       67.38025802433390       67.28059530540330
H           59.58992491543723       67.63914673320527       67.78082348245412
H           58.39601461527649       64.85929622441901       67.11191015841978
H           59.98612554912123       65.28661842712540       67.72951887010663
H           59.58834543954013       63.81536306297122       65.10426852401223
H           61.96672930950459       63.24874713142808       65.36662058313674
H           61.77814228056906       64.99901698405669       65.40988120896283
H           62.02874370063785       64.10234484207717       66.90839120314840
H           59.80302760505351       62.83843047189220       67.95005821983717
H           60.50465863762482       61.86913536027043       66.66118952989942
H           57.64238036801910       62.81625506720613       66.45304758300281
H           59.02297873337437       60.31559411420471       65.38835760488661
H           57.44235767276349       60.94267201730910       64.90930078440056
H           58.90528981988945       61.82017645349996       64.47896699544269
H           57.78700602527972       61.74193678945110       68.61884793696692
H           58.75713515717541       60.42693803602648       67.96085919802987
H           56.83693262357161       59.62710881277631       66.65413855711128
H           56.24557213318828       59.95620992627163       69.62478048515143
H           55.65164655637457       58.66348106724761       68.58043061099073
H           57.36909056864440       58.78425453041570       68.93660568162510
H           55.66208858344019       61.85570276834199       66.47491972224161
H           55.24417612084167       61.72434040556384       68.17920139217463
H           53.95193777431329       59.63447864159126       67.64062676754632
H           52.04430430699682       60.87656106806210       66.68822203660605
H           52.90535169943145       61.88005351080383       67.84843902295704
H           53.13119732115106       62.14527449119751       66.11971536367038
H           55.18377757889741       59.07230900436168       65.53985123183692
H           54.50263156042170       60.50701800611329       64.77569958917900
H           52.25223783542206       59.52373343316518       64.90670693922135
H           52.63346585263934       57.83854479665560       63.17442411949634
H           53.84985154324013       59.09722755182752       63.00263448772911
H           54.27674289055078       57.56226419343577       63.75222293968250
H           52.38203203569837       58.22198821595909       66.93467362347049
H           53.74285497723202       57.28549965977423       66.31971169711923
H           52.29043483189933       56.17203130543675       64.70109821397439
H           52.65343750167888       55.28359037098284       67.00227986882392
H           51.17570646562428       56.08350499222549       67.53719272856233
H           51.09681579585798       54.78575797617344       66.34551686370426
H           50.65460755811285       58.00567767476456       64.36569696489595
H           50.06451340161351       57.78650526034993       66.00878946441085
H           49.14043899785386       55.60833919348833       65.44569573282064
H           47.89517945448155       57.73830434699924       64.99350676837304
H           48.44055037629244       57.67787649303368       63.31820877824807
H           47.37296818451858       56.42321861416051       63.95052925168590
H           50.77762347410572       54.76543129665271       63.88184898012010
H           50.47661735633185       56.09115564447456       62.75789799546743
H           48.28007727322998       55.19347133886016       62.22027744345120
H           49.07474800656299       53.27344686097783       60.94402612929427
H           50.38686378534828       54.43586337688398       61.04905173715673
H           50.39710275034071       53.00569902166340       62.08033256058952
H           47.72801873917760       54.15663635836545       64.40611049627029
H           49.01149500364382       52.97404453673084       64.17552082820855
H           47.79268407716037       52.00365323285481       62.26373434806540
H           46.05291749899956       50.93054498892690       63.61649787421441
H           47.46715465415759       51.22336764097025       64.61975716035573
H           46.06032180746235       52.27799929421278       64.75637980084851
H           46.62940872222958       54.05924143489226       61.51393274384935
H           45.66561054403623       54.06012070507765       62.99065447121686
H           44.58233831696818       51.94066348464769       62.26453279102700
H           43.26625901243582       52.97724247769301       60.43505380793034
H           43.58838051620941       54.14185917876802       61.71822806055328
H           44.52091839979773       54.20230650376196       60.22292559408877
H           64.43722780708836       64.10379057331386       73.97915369023519
H           64.44408811406915       65.78854310071490       73.46328166186932
C           69.80487579057592       46.15725022537534       42.64202316924383
C           69.64693519477109       47.60682144620978       42.18110172985458
C           70.04278034815316       48.54828312034085       43.31427418948606
C           68.20299925455001       47.83050279044470       41.71893066503808
C           67.84400903133165       49.22689201195406       41.18872807599556
C           66.37369868167711       49.21867102390363       40.76997196210514
C           68.76007454419845       49.63218909992387       40.02655785434924
C           68.34734200179879       50.88487167344905       39.23781655750781
C           69.33088694086105       51.08019318612219       38.08306008378901
C           68.29775194916607       52.12896572202167       40.13271963697741
C           67.63149767473466       53.36683870287239       39.51218621712038
C           67.91868977472205       54.58213593646320       40.39372743496737
C           66.12223754989415       53.15521154772178       39.34537457973156
C           65.40656277817737       54.27449289937039       38.56574933550207
C           64.50419967022175       55.09080066125181       39.48909703209780
C           64.57620279891269       53.70156911079693       37.40933003880728
C           65.42575608867780       53.18588744026226       36.24125588967836
C           65.87047125463873       54.34654763927806       35.35134523696086
C           64.65010969135047       52.16126557177839       35.40112468630272
C           64.58463720117101       50.74541600826780       35.99578132782129
C           65.93661205574101       50.04815334168603       35.85766292161538
C           63.47509096633814       49.96913739460945       35.27088012784201
C           63.26876657513950       48.50433434667829       35.68096682567372
C           62.36803440299227       47.82867732278313       34.64489999111701
C           62.65392642375695       48.38030189579283       37.08011312506638
C           62.85191012353263       46.99653297302027       37.71656222565989
C           61.77107031078278       46.73833269360984       38.76363870588896
C           64.24397799190025       46.88985095889526       38.35077496682666
C           64.74958112080256       45.45103059657053       38.52756308718737
C           65.82069467544882       45.41143123137625       39.61594959547048
C           65.30086831402053       44.91298514830056       37.20132261494160
C           65.54892577696617       43.39873651510499       37.17348508931796
C           66.52808543419860       43.05733727640252       36.05057239892625
C           64.24151100930311       42.61744224478035       36.99156258832103
C           64.35408264303048       41.13187377669736       37.38666859157210
C           63.91702714254491       40.22930567774998       36.23190069974589
C           63.51237708856621       40.80134411065676       38.62578487198058
C           63.91381182707855       41.52746993607638       39.91731099860323
C           65.22851352812938       40.97866799309878       40.46727247867186
C           62.78090741979017       41.37856753018393       40.94266450820386
C           62.90077606618854       42.22671565510316       42.21786374163752
C           61.86751817488534       41.74273233569363       43.23477713491689
C           62.71262611917212       43.71379733611451       41.89234983442196
C           62.81910584367753       44.69453727443370       43.07016126944526
C           62.43958567012005       46.09324124190297       42.58292933501463
C           64.23347950560543       44.68659598063594       43.66115208546402
C           64.42391251249329       45.47451162505453       44.96582868180770
C           65.91863016421024       45.60927141724774       45.24714412700383
C           63.70761545440887       44.77293666623289       46.12507146118414
C           63.80639779520462       45.44159681631918       47.50563201351603
C           63.03192321443886       44.58774438041869       48.50941845663119
C           63.27290604746205       46.87767809620283       47.45128009562187
C           63.14878690690161       47.63322708171662       48.78224399531994
C           62.44468126700129       48.96278639800461       48.51213443830283
C           64.52300011477328       47.88349805956381       49.41221597376161
C           64.50549088020541       48.31211199641249       50.88885812279326
C           65.83081150865929       48.99244884325170       51.22667917910681
C           64.24429452945978       47.09599472240356       51.78794704290258
C           64.41112222539772       47.29263407224899       53.30232135106456
C           64.18820422995672       45.94468863357874       53.98802977666421
C           63.45041485469555       48.35103694946702       53.85404643936648
C           63.69782675494963       48.76446069438483       55.31485376738488
C           62.46245841525819       49.48684555455134       55.84900447691842
C           64.94580313362761       49.65176357434319       55.41603979284162
C           65.38765778756658       50.06446902487062       56.82877402727981
C           66.47335562498824       51.13501576307283       56.72100121507820
C           65.89626281676966       48.85439215630458       57.61807370607927
C           66.12133107601760       49.07162298768518       59.12192331912829
C           66.88764049992120       47.87205671892895       59.68145430979884
C           64.78534044664860       49.26054227188889       59.84810048348780
C           64.88479267746962       49.63118995401650       61.33307536532688
C           63.48512006694195       49.61515898462900       61.94860225874180
C           65.55301121789408       51.00270870971290       61.55372474461287
C           66.95688042525272       50.93350416794831       62.16574172294530
C           66.89254760672620       50.42224824337683       63.60679637161027
C           67.64011579727864       52.30854258755042       62.17921110140317
C           68.04905755593866       52.91712321299830       60.82954677258183
C           69.14807961763574       52.09692754034354       60.15938042638773
C           68.50333785543485       54.36037937992686       61.10005155912825
C           69.03334994885294       55.17203864352274       59.90945903681780
C           69.57398213469250       56.50279783775851       60.43477022222952
C           67.93531589942275       55.39431021655921       58.86425113699102
C           68.36481121075552       56.11878445215515       57.57912916229047
C           67.11835545793487       56.49453250593137       56.77957148665828
C           69.30759340592741       55.23374634856735       56.75492343274896
C           69.84087629590134       55.82688352978205       55.44269395201484
C           70.67074495917903       54.75940877075280       54.72880848435466
C           70.65782428059445       57.09929165248788       55.69349218033081
C           71.24440299056688       57.72124904822932       54.42679601905765
C           71.82907610145838       59.10237974386989       54.69713426084633
H           69.15976556623995       45.95969930812000       43.49580644779879
H           69.53931763611995       45.46608141555256       41.84504790522093
H           70.83253442375681       45.95810071480232       42.93843094923383
H           72.27865822956566       59.51254852868318       53.79542808357442
H           71.05319778960242       59.78666781573936       55.03265030573907
H           72.59543856560200       59.04986396784935       55.46792483541162
H           70.01370797541519       57.84387781675418       56.16578066511883
H           71.46911320986594       56.87529643647087       56.39195630312572
H           70.16993925681794       54.96869036463255       57.37107794235084
H           68.77856441279336       54.30576444152097       56.51825893919774
H           68.88127037003927       57.04180244746810       57.85414550253279
H           66.42461095357710       57.05934568685008       57.39972378974584
H           67.37758219645238       57.11105514661675       55.92314249411478
H           66.61129581139760       55.60058764125048       56.42174099784442
H           67.51707943511533       54.42737383151496       58.57865177289091
H           67.13792092429408       55.97255966006671       59.33926683952095
H           67.66408777159288       54.90824238923712       61.53638418226124
H           69.29213706666458       54.32221192533029       61.85741288169319
H           68.99733866931805       56.07940930052905       54.79429673224232
H           70.09283459963721       53.84480682333098       54.61373230079430
H           70.96980079165638       55.09312957836950       53.73858754727532