3536
 energy: -3716.244773496409 gnorm: 0.000694765099 xtb: 6.6.1 (8d0f1dd)
C           46.73299113137794       56.15839929011528       72.76714990785104
C           48.12424967195896       56.42995058654189       73.33564540211275
C           48.34023732177625       57.93675803930275       73.47952563535905
C           49.23422201629708       55.85122369734767       72.45031007196444
C           49.14542777151797       54.35252152082732       72.13266629413280
C           49.27141106129252       53.51046462256256       73.39970754321811
C           50.24149706811381       54.00625507419292       71.11597797185215
C           50.24582875762007       52.57020732229668       70.57496415681240
C           51.43560714212855       52.39938046567664       69.63117122211771
C           48.92251083684844       52.15114559343751       69.91353976267783
C           48.48928848266003       52.95546619841882       68.67164487097102
C           46.98778806638176       53.23596687502002       68.73337545752648
C           48.83690099229580       52.19770069664045       67.38236083536164
C           48.81973080089055       53.03150745851436       66.09081224910751
C           48.81762121177665       52.08257208438084       64.89276593156401
C           50.02491757282900       53.97918322773097       66.05137369547269
C           50.10907856828524       54.93715343756192       64.85489135835019
C           51.48529541403712       55.60236813110826       64.85881769512700
C           49.01397143522323       56.00897753065795       64.88003321365743
C           48.73336797402740       56.62964896343750       63.50379247541124
C           48.05251103911964       57.98444313866143       63.69039214499301
C           47.87425009946799       55.69086224113862       62.63861258730792
C           48.35596983277446       55.50169388787509       61.19300282414071
C           48.35818145475917       56.82948083534126       60.44054756630658
C           47.46061054509767       54.46761400376381       60.48188751985804
C           48.20461477920583       53.44686817298624       59.61204927514763
C           48.90012462970917       54.12389787263592       58.43211823877468
C           47.24508605042118       52.36986386413009       59.07917273796791
C           46.64298812705185       51.43453039385757       60.13396695673669
C           47.71280296145401       50.50894109294826       60.71217377204323
C           45.51281659011051       50.57095411375069       59.55334922486504
C           44.30025493654590       51.31510832806326       58.97734177488786
C           43.82087672402645       52.42451350354084       59.91179350617841
C           43.12041915277257       50.35545041199241       58.74948643875800
C           43.39470969634983       49.11216463629180       57.89782218283629
C           43.86517241717932       49.49394932523066       56.49517387107513
C           42.13702997262242       48.23450572529975       57.78222813681919
C           41.52643131872297       47.75572316552361       59.10533752160818
C           42.57082146528245       47.08455961034905       59.99693780806815
C           40.39186302267602       46.74576646957039       58.87601706566117
C           39.19933362621168       47.19672779011257       58.02421737658216
C           38.61918793090287       48.51828335757891       58.52846420833513
C           38.09380977961871       46.12753273203550       58.06094937781726
C           38.42734739697170       44.79010187503049       57.38142264578902
C           38.35969472961449       44.92940448852086       55.86268166710253
C           37.46771373005690       43.70041854716717       57.88092850938734
C           37.88964822296730       42.24995751605572       57.60024559213958
C           36.80788027556523       41.31148477972429       58.13817874533986
C           39.25396577681286       41.91899573057204       58.23301783396210
C           40.42258220416385       41.93067058291292       57.23091055690468
C           40.63508891871729       40.52860029514109       56.66267768494476
C           41.70066564439490       42.47222733429758       57.88124238188038
C           42.82687267303550       42.86103467538994       56.91296375462262
C           44.08058033309955       43.17906306533275       57.72820443850821
C           42.42786807180858       44.05946297852947       56.04255217481846
C           43.41882639992211       44.36345637040746       54.90346740095378
C           44.04191186733967       45.74627634037964       55.08079280852743
C           42.75611277406234       44.26702889520487       53.52289391323389
C           42.40670555602408       42.83524137995163       53.09757709073141
C           43.65899840299994       42.07930303556564       52.65390634236341
C           41.38357700879192       42.83824625811919       51.95249692137581
C           39.93015183011129       43.06664152124034       52.38663038015437
C           39.34418527220494       41.80088217095596       53.00984052700856
C           39.08301221095609       43.50071014862007       51.18043929173091
C           39.19364245190975       45.00151546655628       50.87210931528043
C           38.23250005248830       45.78002569969740       51.76928728757501
C           38.91750383183268       45.27936587883416       49.38844240979677
C           39.33752047608816       46.68024894229532       48.92365383917977
C           38.68125720381345       47.00758265130810       47.58230593959852
C           40.86605619337321       46.80847576147646       48.81094015608285
C           41.40232368717344       48.17672487790509       49.25933860813150
C           42.79923541774397       48.40540252686080       48.68826547015716
C           41.40350975858834       48.24366847278095       50.79150576143560
C           41.87163733217847       49.55296019411308       51.44154880790668
C           41.86859391001352       49.36042847885144       52.95907546827536
C           40.98586189049452       50.73705240188242       51.03677631202462
C           41.50412650482762       52.10964910948375       51.48712245275413
C           40.37145047451353       53.13413515024655       51.43777128254521
C           42.68305724003395       52.57660473236745       50.62593799883361
C           43.51294198042152       53.69965095870553       51.27815704997250
C           43.42961998745850       54.98846821915551       50.46191536231849
C           44.98392020620967       53.29836006363140       51.44290993117531
C           45.25103681953786       52.15936236384348       52.43889296038508
C           45.09220287265840       52.65061372373084       53.87479003139864
C           46.66522747701162       51.61976481481146       52.18695879866910
C           47.13865929453401       50.46802497355877       53.07950926073509
C           48.57857691082695       50.10922611388771       52.70864610210305
C           46.22983759519882       49.23325469046063       53.02704802729025
C           45.99749701616916       48.65245163746336       51.63421741494363
C           45.24404484471914       47.33217539001476       51.71474651276191
H           46.48631219678265       55.10062673539945       72.81173870080828
H           45.98108270444224       56.70176996783162       73.33613039423207
H           46.67802776232639       56.48295881191486       71.72989545564354
H           44.99717981849127       46.96755082685586       50.72135063550635
H           45.84854775126968       46.57701747814371       52.21391564197127
H           44.31925341412663       47.45570304599732       52.27322480259956
H           46.67630813471241       48.45772276542336       53.65597384568320
H           45.26153376331080       49.48076495755468       53.46722477029966
H           46.73447198615867       51.29474198770172       51.14641612943330
H           47.36707171720838       52.44755689890231       52.30888327610751
H           44.52686352478996       51.35830064742367       52.26617163227937
H           45.86576145348057       53.37785849965288       54.11221579898730
H           44.12471882992894       53.12605504119848       54.01655207463838
H           45.16308552698555       51.82642357832544       54.57948076653347
H           45.36855235700342       53.01540116866147       50.45936382853393
H           45.55161710357658       54.17365098355673       51.76756868672448
H           43.33280143120435       51.72515442541537       50.42188612940048
H           42.29535422405276       52.91277903990416       49.66134403449345
H           47.14833087607749       50.81305010038592       54.11972598585334
H           48.93539747232814       49.28341551029124       53.32025444273426
H           48.65329369705346       49.82227369768405       51.66211047137214
H           49.23473499783428       50.96180164855794       52.86817109524461
H           43.10092676165551       53.91207654120814       52.26999530137937
H           43.98674336108347       55.78535250973558       50.94809772839368
H           43.84512509354133       54.83784525831723       49.46674048974247
H           42.39675779602904       55.31332443270227       50.35966256761052
H           41.84467253456724       52.03031233295303       52.52350691439111
H           39.97717435421010       53.21707344912483       50.42612217620881
H           39.55628192680024       52.83780027147182       52.09678160587218
H           40.72454850544910       54.11445748327075       51.74969102114044
H           40.87709997268800       50.76019813196817       49.95075235876156
H           39.99015865978290       50.57617501233545       51.46020742115978
H           42.90103930406166       49.74709254691195       51.12940388115205
H           42.44443057110987       48.47887115235463       53.23254680171424
H           42.30639670469014       50.21316225922153       53.47010502260529
H           40.85170283093805       49.22660261074162       53.32386012954267
H           40.39388561834957       48.03399940354610       51.15110189893294
H           42.04868684102373       47.43945095071818       51.15589514329335
H           40.73612308175845       48.94733864027408       48.85713424924742
H           43.49589877942085       47.67079374466889       49.08538027834229
H           42.78851505401284       48.31716689612085       47.60360193870309
H           43.16179200464374       49.39814295583448       48.94007789388954
H           41.35414361382147       46.03521235514971       49.40698779035002
H           41.15237985051245       46.63352330671648       47.77117021117576
H           38.97149915201432       47.40930216119420       49.65112485470503
H           38.94800307837340       46.26220354871558       46.83507406934084
H           37.59716191060811       47.02420484587721       47.67557481930831
H           39.00758442973058       47.98245862832993       47.22644646701750
H           39.44904939264021       44.54450964206131       48.77786062076736
H           37.84900551092624       45.14428405894273       49.20173307831335
H           40.21338927251541       45.32607496326836       51.09979696437681
H           38.36160231200618       46.85310743978352       51.65546805928538
H           37.20109770791188       45.53428331416412       51.52254148182173
H           38.40059882465604       45.53205348865634       52.81443973212509
H           39.39908687515229       42.91645496633865       50.31283269342157
H           38.03365946343327       43.25903941898535       51.36383445440770
H           39.90225617332963       43.86152236318089       53.13858249882747
H           39.95202452156310       41.45606457592440       53.84228784727012
H           38.33699458547321       41.98705879378518       53.37876946405368
H           39.29350576322668       41.00313446043442       52.27100358345418
H           41.67469248756757       43.61011402761923       51.23629108835516
H           41.43035606698088       41.88011311898989       51.42825505211823
H           41.97590687215204       42.30880319957922       53.95420105625700
H           43.41789415378390       41.04366801989418       52.42155462884737
H           44.08216448480589       42.53819132716612       51.76225430301906
H           44.41814753413009       42.08154272535665       53.43105611011746
H           41.85101336333138       44.87932256210503       53.52767121292867
H           43.43041609506659       44.69315698346333       52.77474304206897
H           44.22499550759693       43.62660137853097       54.93521237450069
H           43.28546135113515       46.51787893054443       54.94787239243970
H           44.46959586917469       45.85099286125060       56.07529765082481
H           44.83110158921536       45.91240629255567       54.35154127939958
H           41.44365111441081       43.87845071564133       55.61166885088323
H           42.33308983107595       44.93493631437443       56.68905991058474
H           43.04761511142792       42.00971073102720       56.25951993672064
H           43.88301260370008       43.99623912857260       58.41961369134399
H           44.38953881337664       42.31108352189995       58.30688217884580
H           44.90704392518510       43.46983745005996       57.08487765884981
H           41.44969852957900       43.35992578464926       58.46714412068118
H           42.08019950318447       41.72133035807554       58.57912459410365
H           40.14952748823028       42.58859457115923       56.40283333689254
H           39.70850058061450       40.14628692807602       56.23823809437171
H           41.39133850354360       40.52819910151086       55.88069263247856
H           40.95969020560626       39.84533594523859       57.44615679307476
H           39.44778287589497       42.63137576142508       59.03624308522455
H           39.20667188700943       40.93064691739193       58.69499823285930
H           37.95055863850898       42.09668635033981       56.51776217795410
H           36.72464033383240       41.40695205565277       59.21925684644826
H           35.83956794908781       41.54620100813115       57.70044981266572
H           37.04391311382689       40.27589940309538       57.90123083370067
H           37.35786746393768       43.79992165756693       58.96435046742381
H           36.48129834495159       43.87289635870433       57.44120943140877
H           39.44214955820200       44.50175722534842       57.65759475980620
H           39.07698299829534       45.66879503741071       55.51374242341436
H           38.58239730513613       43.98375206805473       55.37410802652262
H           37.36424537781613       45.24332150139678       55.55181987134701
H           37.85113918762203       45.94188667705958       59.11138027608960
H           37.19251461759140       46.53429258490095       57.59382562003170
H           39.52652367325476       47.33514509199502       56.98942755453945
H           37.73243868923373       48.78687704825244       57.95685146262393
H           38.33676559253305       48.43386737442862       59.57604699318802
H           39.33886382800367       49.32661899564667       58.43078727403100
H           40.82809772757454       45.85424790992165       58.42022928521403
H           40.00549059350289       46.45307527296524       59.85756219984005
H           41.11866091146028       48.61417025614825       59.64570925586735
H           43.32495640432409       47.79072933693113       60.33026573733955
H           42.09581677317829       46.66435430411906       60.88132264967037
H           43.06587096238273       46.27703327996333       59.46176397062307
H           41.38093635309704       48.79506686570494       57.22749434744519
H           42.39315589811231       47.35552505856631       57.18530615170459
H           44.18234425004605       48.51878193973268       58.36937810883086
H           43.11513731674194       50.10303795045403       55.99509990799902
H           44.79509020868430       50.05478072680965       56.53565854120508
H           44.03959584549355       48.60408935670995       55.89555563683462
H           42.76943890861836       50.03662283541947       59.73284279370741
H           42.30774450179764       50.91664457578413       58.28034040399864
H           44.57691335185540       51.76866352692468       58.02032074356617
H           44.54870697786983       53.22642070643963       59.99022334847253
H           42.89089941977941       52.84777203422701       59.53810130342305
H           43.63326707916241       52.02747148136473       60.90676201153084
H           45.94030873807473       49.93810694899289       58.77255606676773
H           45.15704573452652       49.91211627859565       60.35166202367737
H           46.23124781263379       52.02270776936741       60.95790961917487
H           48.17321869814290       49.92332089056698       59.91875128687241
H           48.49007802260441       51.07473864991397       61.21912283422274
H           47.27379384135186       49.82353398982539       61.43551049592512
H           46.44095445785446       52.87452561641634       58.54273665722361
H           47.78098411391238       51.75383733428514       58.35166770164511
H           48.97140682930191       52.96503341544125       60.22771305851714
H           49.35522467981016       53.38328338247997       57.77849475338344
H           48.18448282180855       54.69474582798512       57.84504340391015
H           49.68398799524977       54.79427817594150       58.77445198821411
H           46.90410258873874       53.91750906581264       61.24250825139918
H           46.72671420295624       54.99172112913438       59.86469578796015
H           49.38168802508928       55.11484715988036       61.22869330668718
H           49.06577213148831       57.52626954198993       60.88201737712534
H           48.62943031939671       56.68448312211869       59.39935168318357
H           47.36695186390870       57.27805356317447       60.47179270914062
H           47.84430473962176       54.70647077900845       63.11070484678340
H           46.84907592050822       56.06711033028135       62.61575121298316
H           49.69158533310690       56.79504272567998       63.00269240293247
H           48.70574809775659       58.67138198060331       64.22491503080499
H           47.79930190181485       58.43210607646656       62.73370899835565
H           47.13608172158318       57.87211785591375       64.26678171895125
H           48.08231664475291       55.58857696501839       65.26455786866727
H           49.32013614809384       56.79843883438788       65.57030521340097
H           50.01535226067359       54.36175821937328       63.93154155764861
H           52.27227437286655       54.86140450706393       64.73939759731789
H           51.57146647566589       56.32210967812643       64.05014075500270
H           51.65189186218240       56.12294099788429       65.80109952315138
H           50.03439446202865       54.58241021982504       66.96286905442523
H           50.93139661863439       53.36647784816147       66.05785003243240
H           47.89486681154295       53.61561632463363       66.06182060003519
H           49.74681893680973       51.51738629062903       64.85336394830962
H           47.99154332155774       51.37811350050114       64.96854778336269
H           48.70290593752898       52.62703212843856       63.95954179576520
H           49.82737294037208       51.75080194221329       67.47949747422986
H           48.12252966763341       51.37596359470027       67.27856389461459
H           49.00550873064719       53.91762823914025       68.67324810254927
H           46.74433792775573       53.83354975783980       69.60980772160707
H           46.65427861492923       53.78063993740616       67.85407184329452
H           46.42923846923507       52.30310479388354       68.78820283885845
H           49.00156729981315       51.09503269568889       69.64158560007536
H           48.13900041873227       52.21491856481164       70.67079803930680
H           50.40176993447445       51.88844878462807       71.41984225772580
H           51.49057672665464       51.37630732159151       69.26427327115933
H           51.35211195175691       53.07170906660808       68.78170040332225
H           52.36461300233232       52.62381656105924       70.15249346391182
H           50.15654206169254       54.69466152333625       70.27218728123444
H           51.21330796144471       54.19195965375919       71.58285799390262
H           48.17437012234292       54.15465910588483       71.67276886185171
H           50.23865367880379       53.67602612366377       73.87077519279455
H           48.49356895972625       53.76745556224834       74.11434089932398
H           49.17585774712889       52.45149862560013       73.17361460462372
H           49.22719831409380       56.40504983351825       71.50814207421730
H           50.19546202302119       56.04686334832288       72.93387144884981
H           48.18638530391819       55.98198746957842       74.33343036127874
H           48.25081983945483       58.42507327009432       72.51136672611200
H           47.60035911123606       58.36837463851914       74.15063766843551
H           49.33004922994243       58.14682301052574       73.87884952777087
H           45.42047304868217       49.35487417157918       51.03011435583807
H           46.95125486059409       48.48608203187523       51.13026350863279
C           54.93313237977662       66.63005841637543       40.68955607618637
C           54.81918980784793       65.16165855175788       41.09291133223284
C           53.53444265233978       64.56671670612278       40.52010329474221
C           54.82334662083004       64.98132718567426       42.61558800233781
C           56.05656190159183       65.52537403471094       43.34405103546293
C           57.33856552014797       64.92481447676575       42.77045508492482
C           55.99598095646411       65.21453507461730       44.84670265478986
C           54.86929848835916       65.88288482022848       45.64335336498944
C           54.98562762072706       67.40648672008128       45.60452537307194
C           54.90455196089209       65.42663278811686       47.11029845348070
C           54.59908019155245       63.94782802016322       47.36968493375194
C           53.17933792350279       63.59916544738754       46.92569437809925
C           54.74542483918760       63.60043620237597       48.85892254176047
C           56.14234121070316       63.75104446584002       49.47878217170103
C           57.12636359626109       62.75181918401164       48.87984776432911
C           56.01724988224139       63.56330577864328       50.99683339429531
C           57.28949521492296       63.78170042694788       51.82956243660356
C           56.98451780899474       63.37786104457954       53.27182293564076
C           57.75961241437461       65.23867276049303       51.73454717332530
C           59.02579691280088       65.58542755532559       52.52841398725423
C           59.15571460141418       67.10307431564534       52.65330651488967
C           60.28304239733234       64.99665493819353       51.87620875302837
C           61.45202698108378       64.79527194130280       52.85089633442439
C           62.76472075181538       64.69211779853487       52.07638946437002
C           61.22648393371489       63.53563317370827       53.69726889579055
C           62.08524305741831       63.43520962494932       54.96800339007441
C           62.51883366688624       61.98539646835660       55.18569021231777
C           61.34064346581768       63.90103782418052       56.22479131903113
C           60.94888146175204       65.37978375115077       56.29458962804816
C           62.19395463928664       66.26226171908569       56.32416084396475
C           60.10422591522519       65.62963243240804       57.55385799995710
C           58.64881823341512       65.15070220645265       57.44312359626997
C           57.80148447242676       66.19634392590035       56.72268363005456
C           58.06300861704948       64.84373059990500       58.82914360848543
C           56.81467471510715       63.94426015229396       58.81443921984283
C           55.79339038778176       64.42934387670806       59.84330721955330
C           57.15186768842532       62.47976461860534       59.12242307375310
C           58.01969432689866       61.74392939925984       58.09740461373960
C           57.25977926310531       61.53029795061485       56.79019505368615
C           58.46679444292678       60.39087494088683       58.67294401991084
C           59.75561046818714       60.45214744269997       59.50698304605606
C           60.97063446885350       60.53700283708508       58.58614721514781
C           59.80723739955531       59.21580272431810       60.41589662469122
C           61.13171743695126       58.94651058474870       61.14267949231503
C           60.98392703902345       57.67053889430159       61.97025083699584
C           61.54461564945084       60.13590428182037       62.01590718779366
C           62.85818158700207       59.98230825133616       62.79941606980307
C           63.06767923550047       61.24694345326616       63.63384567190649
C           64.04583750018077       59.72888249167853       61.86377820077017
C           65.37064437250710       59.37594529771281       62.55329591355761
C           66.50806229313407       59.48141791979777       61.53819608073966
C           65.33927774897236       57.96531602744542       63.15791723120860
C           66.29692990840732       57.78470676507013       64.34432606193492
C           66.71013421521143       56.32286782069048       64.49760703002191
C           65.71790877791803       58.35534194384775       65.65022159650007
C           64.45673090943214       57.66098332114741       66.20405736129206
C           63.45528597589330       58.71473100461075       66.67608256224651
C           64.81972054602593       56.69853419979535       67.34340933119350
C           63.67967072519551       55.81162344968015       67.86656216512147
C           64.12922698332322       55.15008406292607       69.17017030764396
C           63.25594329251269       54.74621514742952       66.84706509841314
C           61.84764977076599       54.17691409703890       67.09155597487830
C           61.72182612448758       52.79799708952434       66.44800351358673
C           60.78647857331681       55.13615427877721       66.53770912926844
C           59.32876287417515       54.84930866222727       66.93367922711823
C           58.41167140359731       55.73652342647309       66.09178366995295
C           59.11317650058979       55.09566304751333       68.43153582150437
C           57.73157157457644       54.73999654144585       68.99988046785933
C           57.64600738433489       55.28208436428570       70.42754752432805
C           57.47572018424611       53.22761700404551       68.98611094952513
C           56.02517594550535       52.82684887888213       69.32329306080310
C           56.00616780676122       51.78916205406674       70.44762869137467
C           55.26934531049547       52.26131687126615       68.11264269347561
C           55.08900964245343       53.22329049106258       66.93407147926301
C           54.25661059107852       54.44363396562847       67.32711351086546
C           54.39155381366928       52.53136169862824       65.75330210446992
C           55.09856102155077       51.31671459352371       65.13901276936851
C           56.57112046930457       51.61274611174672       64.85269425898092
C           54.43168893885370       50.90616566146522       63.81574143164318
C           52.93684523098492       50.57492825683026       63.85558212810248
C           52.67981042942888       49.30379923865539       64.66547356566197
C           52.37545198314715       50.38730711608283       62.43624071106764
C           52.38478859350560       51.62376709139750       61.52663072990453
C           51.61921642976069       52.78568982278229       62.15473805650780
C           51.76025526435335       51.29275102797442       60.16140826481775
C           52.68929906823780       50.56973068351861       59.18156955678185
C           53.78331650583220       51.49954140962102       58.66189778881015
C           51.89831308162123       49.95119360333828       58.01912217618486
C           51.10288877128554       50.94866314057601       57.18254711436866
C           50.37973425298541       50.26233978746804       56.03240327290909
H           54.14806645339908       67.21582465438995       41.16323976850651
H           55.89450109583989       67.04672985154679       40.97801657714038
H           54.83240131343116       66.73450631569605       39.61054130250636
H           49.80434640594150       50.98311890866150       55.45763621831593
H           51.09361455661391       49.78337789015792       55.36727103438405
H           49.69939822639074       49.50213397517492       56.40797929808989
H           52.59517867142969       49.41835561150129       57.36541705426043
H           51.20204323069505       49.21000788856277       58.42154114199075
H           50.86888220825681       50.68201993844001       60.32526539088429
H           51.43779996703741       52.22576543822635       59.69513076013350
H           53.41778061290528       51.94419476423375       61.36528874830366
H           52.08331155698010       53.11159850244371       63.08059642602257
H           51.59769882058698       53.63688464176309       61.47618155045765
H           50.59397744379265       52.48955343103208       62.36648624751044
H           52.93999277303913       49.58830983343162       61.94887415339542
H           51.34062419664488       50.04350213868850       62.52696267646542
H           54.59415014258487       51.71915288555900       63.10674452834653
H           54.95621364893721       50.02838781441073       63.42921918350979
H           53.17427511225663       49.74110769740734       59.71209091131099
H           54.32961133442933       51.02302269271581       57.85168009971797
H           53.35853218462215       52.42862099349725       58.28955987972608