      -----------------------------------------------------------      
     |                   =====================                   |     
     |                           x T B                           |     
     |                   =====================                   |     
     |                         S. Grimme                         |     
     |          Mulliken Center for Theoretical Chemistry        |     
     |                    University of Bonn                     |     
      -----------------------------------------------------------      

   * xtb version 6.6.1 (8d0f1dd) compiled by 'stahn@M-Bot' on 2023-08-01

   xtb is free software: you can redistribute it and/or modify it under
   the terms of the GNU Lesser General Public License as published by
   the Free Software Foundation, either version 3 of the License, or
   (at your option) any later version.
   
   xtb is distributed in the hope that it will be useful,
   but WITHOUT ANY WARRANTY; without even the implied warranty of
   MERCHANTABILITY or FITNESS FOR A PARTICULAR PURPOSE.  See the
   GNU Lesser General Public License for more details.
   
   Cite this work as:
   * C. Bannwarth, E. Caldeweyher, S. Ehlert, A. Hansen, P. Pracht,
     J. Seibert, S. Spicher, S. Grimme, WIREs Comput. Mol. Sci., 2020, 11,
     e01493. DOI: 10.1002/wcms.1493
   
   for GFN2-xTB:
   * C. Bannwarth, S. Ehlert and S. Grimme., J. Chem. Theory Comput., 2019,
     15, 1652-1671. DOI: 10.1021/acs.jctc.8b01176
   for GFN1-xTB:
   * S. Grimme, C. Bannwarth, P. Shushkov, J. Chem. Theory Comput., 2017,
     13, 1989-2009. DOI: 10.1021/acs.jctc.7b00118
   for GFN0-xTB:
   * P. Pracht, E. Caldeweyher, S. Ehlert, S. Grimme, ChemRxiv, 2019, preprint.
     DOI: 10.26434/chemrxiv.8326202.v1
   for GFN-FF:
   * S. Spicher and S. Grimme, Angew. Chem. Int. Ed., 2020, 59, 15665-15673.
     DOI: 10.1002/anie.202004239
   
   for ALPB and GBSA implicit solvation:
   * S. Ehlert, M. Stahn, S. Spicher, S. Grimme, J. Chem. Theory Comput.,
     2021, 17, 4250-4261. DOI: 10.1021/acs.jctc.1c00471
   
   for DFT-D4:
   * E. Caldeweyher, C. Bannwarth and S. Grimme, J. Chem. Phys., 2017,
     147, 034112. DOI: 10.1063/1.4993215
   * E. Caldeweyher, S. Ehlert, A. Hansen, H. Neugebauer, S. Spicher,
     C. Bannwarth and S. Grimme, J. Chem. Phys., 2019, 150, 154122.
     DOI: 10.1063/1.5090222
   * E. Caldeweyher, J.-M. Mewes, S. Ehlert and S. Grimme, Phys. Chem. Chem. Phys.
     2020, 22, 8499-8512. DOI: 10.1039/D0CP00502A
   
   for sTDA-xTB:
   * S. Grimme and C. Bannwarth, J. Chem. Phys., 2016, 145, 054103.
     DOI: 10.1063/1.4959605
   
   in the mass-spec context:
   * V. Asgeirsson, C. Bauer and S. Grimme, Chem. Sci., 2017, 8, 4879.
     DOI: 10.1039/c7sc00601b
   * J. Koopman and S. Grimme, ACS Omega 2019, 4, 12, 15120-15133.
     DOI: 10.1021/acsomega.9b02011
   
   for metadynamics refer to:
   * S. Grimme, J. Chem. Theory Comput., 2019, 155, 2847-2862
     DOI: 10.1021/acs.jctc.9b00143
   
   for SPH calculations refer to:
   * S. Spicher and S. Grimme, J. Chem. Theory Comput., 2021, 17, 1701-1714
     DOI: 10.1021/acs.jctc.0c01306
   
   with help from (in alphabetical order)
   P. Atkinson, C. Bannwarth, F. Bohle, G. Brandenburg, E. Caldeweyher
   M. Checinski, S. Dohm, S. Ehlert, S. Ehrlich, I. Gerasimov, C. Hölzer
   A. Katbashev, J. Koopman, C. Lavigne, S. Lehtola, F. März, M. Müller,
   F. Musil, H. Neugebauer, J. Pisarek, C. Plett, P. Pracht, F. Pultar,
   J. Seibert, P. Shushkov, S. Spicher, M. Stahn, M. Steiner, T. Strunk,
   J. Stückrath, T. Rose, and J. Unsleber
   
 * started run on 2024/10/04 at 14:12:36.549     

           -------------------------------------------------
          |                Calculation Setup                |
           -------------------------------------------------

          program call               : /home/abt-grimme/AK-bin/xtb input.xyz --input input.inp --opt
          hostname                   : boar092.thch.uni-bonn.de
          coordinate file            : input.xyz
          omp threads                :                     8

   ID    Z sym.   atoms
    1    6 C      1-90, 273-362, 545-634, 817-906, 1089-1178, 1361-1450,
                  1633-1722, 1905-1994, 2177-2266, 2449-2538, 2721-2810,
                  2993-3082, 3265-3354
    2    1 H      91-272, 363-544, 635-816, 907-1088, 1179-1360, 1451-1632,
                  1723-1904, 1995-2176, 2267-2448, 2539-2720, 2811-2992,
                  3083-3264, 3355-3536

molecular fragmentation (1/2 indicates fragments):
111111111111111111111111111111111111111111111111111111111111111111111111
111111111111111111111111111111111111111111111111111111111111111111111111
111111111111111111111111111111111111111111111111111111111111111111111111
111111111111111111111111111111111111111111111111111111112222222222222222
222222222222222222222222222222222222222222222222222222222222222222222222
222222222222222222222222222222222222222222222222222222222222222222222222
222222222222222222222222222222222222222222222222222222222222222222222222
222222222222222222222222222222222222222222222222222222222222222222222222
222222222222222222222222222222222222222222222222222222222222222222222222
222222222222222222222222222222222222222222222222222222222222222222222222
222222222222222222222222222222222222222222222222222222222222222222222222
222222222222222222222222222222222222222222222222222222222222222222222222
222222222222222222222222222222222222222222222222222222222222222222222222
222222222222222222222222222222222222222222222222222222222222222222222222
222222222222222222222222222222222222222222222222222222222222222222222222
222222222222222222222222222222222222222222222222222222222222222222222222
222222222222222222222222222222222222222222222222222222222222222222222222
222222222222222222222222222222222222222222222222222222222222222222222222
222222222222222222222222222222222222222222222222222222222222222222222222
222222222222222222222222222222222222222222222222222222222222222222222222
222222222222222222222222222222222222222222222222222222222222222222222222
222222222222222222222222222222222222222222222222222222222222222222222222
222222222222222222222222222222222222222222222222222222222222222222222222
222222222222222222222222222222222222222222222222222222222222222222222222
222222222222222222222222222222222222222222222222222222222222222222222222
222222222222222222222222222222222222222222222222222222222222222222222222
222222222222222222222222222222222222222222222222222222222222222222222222
222222222222222222222222222222222222222222222222222222222222222222222222
222222222222222222222222222222222222222222222222222222222222222222222222
222222222222222222222222222222222222222222222222222222222222222222222222
222222222222222222222222222222222222222222222222222222222222222222222222
222222222222222222222222222222222222222222222222222222222222222222222222
222222222222222222222222222222222222222222222222222222222222222222222222
222222222222222222222222222222222222222222222222222222222222222222222222
222222222222222222222222222222222222222222222222222222222222222222222222
222222222222222222222222222222222222222222222222222222222222222222222222
222222222222222222222222222222222222222222222222222222222222222222222222
222222222222222222222222222222222222222222222222222222222222222222222222
222222222222222222222222222222222222222222222222222222222222222222222222
222222222222222222222222222222222222222222222222222222222222222222222222
222222222222222222222222222222222222222222222222222222222222222222222222
222222222222222222222222222222222222222222222222222222222222222222222222
222222222222222222222222222222222222222222222222222222222222222222222222
222222222222222222222222222222222222222222222222222222222222222222222222
222222222222222222222222222222222222222222222222222222222222222222222222
222222222222222222222222222222222222222222222222222222222222222222222222
222222222222222222222222222222222222222222222222222222222222222222222222
222222222222222222222222222222222222222222222222222222222222222222222222
222222222222222222222222222222222222222222222222222222222222222222222222
22222222
# atoms in fragment 1/2:   272  3264
 fragment masses (1/2) :     1264.41    15172.94
CMA distance (Bohr)    :  23.819
constraining FC (au)   :  0.0500

           -------------------------------------------------
          |                 G F N 2 - x T B                 |
           -------------------------------------------------

        Reference                      10.1021/acs.jctc.8b01176
      * Hamiltonian:
        H0-scaling (s, p, d)           1.850000    2.230000    2.230000
        zeta-weighting                 0.500000
      * Dispersion:
        s8                             2.700000
        a1                             0.520000
        a2                             5.000000
        s9                             5.000000
      * Repulsion:
        kExp                           1.500000    1.000000
        rExp                           1.000000
      * Coulomb:
        alpha                          2.000000
        third order                    shell-resolved
        anisotropic                    true
        a3                             3.000000
        a5                             4.000000
        cn-shift                       1.200000
        cn-exp                         4.000000
        max-rad                        5.000000


          ...................................................
          :                      SETUP                      :
          :.................................................:
          :  # basis functions                7046          :
          :  # atomic orbitals                7046          :
          :  # shells                         4706          :
          :  # electrons                      7046          :
          :  max. iterations                   250          :
          :  Hamiltonian                  GFN2-xTB          :
          :  restarted?                      false          :
          :  GBSA solvation                  false          :
          :  PC potential                    false          :
          :  electronic temp.          300.0000000     K    :
          :  accuracy                    1.0000000          :
          :  -> integral cutoff          0.2500000E+02      :
          :  -> integral neglect         0.1000000E-07      :
          :  -> SCF convergence          0.1000000E-05 Eh   :
          :  -> wf. convergence          0.1000000E-03 e    :
          :  Broyden damping             0.4000000          :
          ...................................................

 iter      E             dE          RMSdq      gap      omega  full diag
   1  -3766.6766156 -0.376668E+04  0.227E+00   11.51       0.0  T
   2  -3771.7451760 -0.506856E+01  0.126E+00   11.52       1.0  T
   3  -3771.9566194 -0.211443E+00  0.559E-01   11.51       1.0  T
   4  -3771.9784052 -0.217859E-01  0.142E-01   11.50       1.0  T
   5  -3771.9979458 -0.195406E-01  0.512E-02   11.50       1.0  T
   6  -3771.9979679 -0.220544E-04  0.716E-03   11.50       1.0  T
   7  -3771.9980006 -0.327678E-04  0.155E-03   11.50       1.1  T
   8  -3771.9980025 -0.189313E-05  0.548E-04   11.50       3.1  T
   9  -3771.9980026 -0.978466E-07  0.185E-04   11.50       9.1  T
  10  -3771.9980026 -0.157524E-07  0.707E-05   11.50      23.8  T

   *** convergence criteria satisfied after 10 iterations ***

         #    Occupation            Energy/Eh            Energy/eV
      -------------------------------------------------------------
         1        2.0000           -0.6264820             -17.0474
       ...           ...                  ...                  ...
      3517        2.0000           -0.3953015             -10.7567
      3518        2.0000           -0.3951646             -10.7530
      3519        2.0000           -0.3948434             -10.7442
      3520        2.0000           -0.3947766             -10.7424
      3521        2.0000           -0.3943143             -10.7298
      3522        2.0000           -0.3937080             -10.7133
      3523        2.0000           -0.3933826             -10.7045 (HOMO)
      3524                          0.0292611               0.7962 (LUMO)
      3525                          0.0294650               0.8018
      3526                          0.0301191               0.8196
      3527                          0.0305553               0.8315
      3528                          0.0306169               0.8331
       ...                                ...                  ...
      7046                          0.3901054              10.6153
      -------------------------------------------------------------
                  HL-Gap            0.4226437 Eh           11.5007 eV
             Fermi-level           -0.1820607 Eh           -4.9541 eV

 SCC (total)                   0 d,  0 h, 17 min,  1.030 sec
 SCC setup                      ...        0 min,  0.491 sec (  0.048%)
 Dispersion                     ...        0 min,  4.199 sec (  0.411%)
 classical contributions        ...        0 min,  0.140 sec (  0.014%)
 integral evaluation            ...        0 min,  7.088 sec (  0.694%)
 iterations                     ...       12 min, 40.775 sec ( 74.511%)
 molecular gradient             ...        3 min, 57.343 sec ( 23.245%)
 printout                       ...        0 min, 10.992 sec (  1.077%)

         :::::::::::::::::::::::::::::::::::::::::::::::::::::
         ::                     SUMMARY                     ::
         :::::::::::::::::::::::::::::::::::::::::::::::::::::
         :: total energy           -3716.225304341459 Eh    ::
         :: gradient norm              0.019078223444 Eh/a0 ::
         :: HOMO-LUMO gap             11.500720275667 eV    ::
         ::.................................................::
         :: SCC energy             -3771.998002624882 Eh    ::
         :: -> isotropic ES            0.587566645441 Eh    ::
         :: -> anisotropic ES          1.297100245126 Eh    ::
         :: -> anisotropic XC          2.077451833959 Eh    ::
         :: -> dispersion             -4.532594903356 Eh    ::
         :: repulsion energy          55.110685371133 Eh    ::
         :: add. restraining           0.000000000000 Eh    ::
         :: total charge              -0.000000000009 e     ::
         :::::::::::::::::::::::::::::::::::::::::::::::::::::

      ----------------------------------------------------------- 
     |              Fast Inertial Relaxation Engine              |
      ----------------------------------------------------------- 

          ...................................................
          :                      SETUP                      :
          :.................................................:
          :   energy convergence        0.5000000E-05 Eh    :
          :   grad. convergence         0.1000000E-02 Eh/a0 :
          :   optimization log               true           :
          :   writing optlog all                1     steps :
          :   Hessian reset                    20     steps :
          :   time step scaling                 5     steps :
          :   maximium step len.        1.0000000     a0    :
          :   initial time step         0.2500000     fs    :
          :   maximum time step         1.2500000     fs    :
          :   power reset thr           0.0000000     au    :
          :   alpha parameter           0.1000000           :
          :   BFGS update                   false           :
          :   preconditioning               false           :
          ...................................................

........................................................................
.............................. CYCLE    1 ..............................
........................................................................

 iter      E             dE          RMSdq      gap      omega  full diag
   1  -3772.0014603 -0.377200E+04  0.255E-04   11.50       0.0  T
   2  -3772.0014603 -0.279924E-07  0.151E-04   11.50      11.2  T
   3  -3772.0014603 -0.470664E-09  0.489E-05   11.50      34.4  T
     SCC iter.                  ...        3 min, 50.118 sec
     gradient                   ...        3 min, 56.624 sec
 * total energy  : -3716.2253454 Eh     change    :  -0.4106668E-04 Eh
   gradient norm :     0.0176805 Eh/a0  converged?    E=F G=F D=F
   time step     :     0.2500000 fs     power     :   0.2097479E-08
   step length   :     0.0022359 a0     speed     :   0.2163380E-03

........................................................................
.............................. CYCLE    2 ..............................
........................................................................

 iter      E             dE          RMSdq      gap      omega  full diag
   1  -3772.0064902 -0.377201E+04  0.374E-04   11.50       0.0  T
   2  -3772.0064903 -0.567306E-07  0.221E-04   11.50       7.6  T
   3  -3772.0064903 -0.799446E-09  0.686E-05   11.50      24.5  T
     SCC iter.                  ...        3 min, 41.427 sec
     gradient                   ...        3 min, 57.547 sec
 * total energy  : -3716.2253999 Eh     change    :  -0.5449709E-04 Eh
   gradient norm :     0.0156773 Eh/a0  converged?    E=F G=F D=F
   time step     :     0.2500000 fs     power     :   0.2716590E-08
   step length   :     0.0032717 a0     speed     :   0.3165530E-03

........................................................................
.............................. CYCLE    3 ..............................
........................................................................

 iter      E             dE          RMSdq      gap      omega  full diag
   1  -3772.0128678 -0.377201E+04  0.478E-04   11.50       0.0  T
   2  -3772.0128679 -0.910595E-07  0.284E-04   11.50       5.9  T
   3  -3772.0128679 -0.148884E-08  0.866E-05   11.50      19.4  T
     SCC iter.                  ...        3 min, 43.980 sec
     gradient                   ...        3 min, 57.199 sec
 * total energy  : -3716.2254601 Eh     change    :  -0.6022583E-04 Eh
   gradient norm :     0.0131986 Eh/a0  converged?    E=F G=F D=F
   time step     :     0.2500000 fs     power     :   0.2910830E-08
   step length   :     0.0041885 a0     speed     :   0.4052576E-03

........................................................................
.............................. CYCLE    4 ..............................
........................................................................

 iter      E             dE          RMSdq      gap      omega  full diag
   1  -3772.0202975 -0.377202E+04  0.566E-04   11.50       0.0  T
   2  -3772.0202976 -0.123872E-06  0.336E-04   11.50       5.0  T
   3  -3772.0202976 -0.195223E-08  0.100E-04   11.50      16.8  T
     SCC iter.                  ...        3 min, 47.196 sec
     gradient                   ...        3 min, 58.792 sec
 * total energy  : -3716.2255179 Eh     change    :  -0.5773855E-04 Eh
   gradient norm :     0.0104509 Eh/a0  converged?    E=F G=F D=F
   time step     :     0.2500000 fs     power     :   0.2674164E-08
   step length   :     0.0049547 a0     speed     :   0.4793901E-03

........................................................................
.............................. CYCLE    5 ..............................
........................................................................

 iter      E             dE          RMSdq      gap      omega  full diag
   1  -3772.0284046 -0.377203E+04  0.633E-04   11.50       0.0  T
   2  -3772.0284047 -0.148653E-06  0.376E-04   11.50       4.5  T
   3  -3772.0284047 -0.230102E-08  0.109E-04   11.50      15.5  T
     SCC iter.                  ...        3 min, 47.397 sec
     gradient                   ...        3 min, 57.244 sec
 * total energy  : -3716.2255659 Eh     change    :  -0.4806510E-04 Eh
   gradient norm :     0.0077860 Eh/a0  converged?    E=F G=F D=F
   time step     :     0.2500000 fs     power     :   0.2079192E-08
   step length   :     0.0055430 a0     speed     :   0.5363196E-03

........................................................................
.............................. CYCLE    6 ..............................
........................................................................

 iter      E             dE          RMSdq      gap      omega  full diag
   1  -3772.0375713 -0.377204E+04  0.748E-04   11.50       0.0  T
   2  -3772.0375715 -0.194456E-06  0.445E-04   11.50       3.8  T
   3  -3772.0375715 -0.299906E-08  0.123E-04   11.50      13.7  T
     SCC iter.                  ...        3 min, 46.440 sec
     gradient                   ...        3 min, 57.770 sec
 * total energy  : -3716.2256021 Eh     change    :  -0.3614275E-04 Eh
   gradient norm :     0.0057474 Eh/a0  converged?    E=F G=F D=F
   time step     :     0.2750000 fs     power     :   0.1183285E-08
   step length   :     0.0065603 a0     speed     :   0.5770377E-03

........................................................................
.............................. CYCLE    7 ..............................
........................................................................

 iter      E             dE          RMSdq      gap      omega  full diag
   1  -3772.0469089 -0.377205E+04  0.839E-04   11.50       0.0  T
   2  -3772.0469091 -0.209106E-06  0.499E-04   11.50       3.4  T
   3  -3772.0469091 -0.322370E-08  0.123E-04   11.50      13.7  T
     SCC iter.                  ...        3 min, 46.887 sec
     gradient                   ...        3 min, 59.327 sec
 * total energy  : -3716.2256204 Eh     change    :  -0.1834810E-04 Eh
   gradient norm :     0.0057764 Eh/a0  converged?    E=F G=F D=F
   time step     :     0.3025000 fs     power     :   0.2385322E-09
   step length   :     0.0073447 a0     speed     :   0.5873077E-03

........................................................................
.............................. CYCLE    8 ..............................
........................................................................

 iter      E             dE          RMSdq      gap      omega  full diag
   1  -3772.0549071 -0.377205E+04  0.872E-04   11.50       0.0  T
   2  -3772.0549072 -0.166371E-06  0.520E-04   11.50       3.2  T
   3  -3772.0549072 -0.253476E-08  0.101E-04   11.50      16.6  T
     SCC iter.                  ...        3 min, 43.767 sec
     gradient                   ...        3 min, 55.718 sec
 * total energy  : -3716.2256227 Eh     change    :  -0.2280004E-05 Eh
   gradient norm :     0.0073906 Eh/a0  converged?    E=T G=F D=F
   time step     :     0.3327500 fs     power     :  -0.3562584E-09
   step length   :     0.0075922 a0     speed     :   0.5519044E-03

........................................................................
.............................. CYCLE    9 ..............................
........................................................................
 * reset velocities

 iter      E             dE          RMSdq      gap      omega  full diag
   1  -3772.0546329 -0.377205E+04  0.297E-05   11.50       0.0  T
   2  -3772.0546329 -0.108867E-08  0.144E-05   11.50     117.1  T
   3  -3772.0546329 -0.568434E-10  0.786E-06   11.50     214.1  T
     SCC iter.                  ...        3 min, 45.473 sec
     gradient                   ...        3 min, 56.481 sec
 * total energy  : -3716.2256241 Eh     change    :  -0.1412748E-05 Eh
   gradient norm :     0.0072720 Eh/a0  converged?    E=T G=F D=T
   time step     :     0.1663750 fs     power     :   0.1112426E-09
   step length   :     0.0001918 a0     speed     :   0.2788623E-04

........................................................................
.............................. CYCLE   10 ..............................
........................................................................

 iter      E             dE          RMSdq      gap      omega  full diag
   1  -3772.0540889 -0.377205E+04  0.452E-05   11.50       0.0  T
   2  -3772.0540889 -0.695309E-09  0.269E-05   11.50      62.6  T
   3  -3772.0540889  0.609361E-10  0.738E-06   11.50     227.9  T
     SCC iter.                  ...        3 min, 42.930 sec
     gradient                   ...        3 min, 56.447 sec
 * total energy  : -3716.2256268 Eh     change    :  -0.2721569E-05 Eh
   gradient norm :     0.0070321 Eh/a0  converged?    E=T G=F D=T
   time step     :     0.1663750 fs     power     :   0.2133922E-09
   step length   :     0.0003805 a0     speed     :   0.5532469E-04

........................................................................
.............................. CYCLE   11 ..............................
........................................................................

 iter      E             dE          RMSdq      gap      omega  full diag
   1  -3772.0532865 -0.377205E+04  0.656E-05   11.50       0.0  T
   2  -3772.0532865 -0.134105E-08  0.389E-05   11.50      43.2  T
   3  -3772.0532865 -0.259206E-10  0.108E-05   11.50     156.3  T
     SCC iter.                  ...        3 min, 43.157 sec
     gradient                   ...        3 min, 56.583 sec
 * total energy  : -3716.2256307 Eh     change    :  -0.3842460E-05 Eh
   gradient norm :     0.0066820 Eh/a0  converged?    E=T G=F D=T
   time step     :     0.1663750 fs     power     :   0.2998743E-09
   step length   :     0.0005630 a0     speed     :   0.8185550E-04

........................................................................
.............................. CYCLE   12 ..............................
........................................................................

 iter      E             dE          RMSdq      gap      omega  full diag
   1  -3772.0522428 -0.377205E+04  0.857E-05   11.50       0.0  T
   2  -3772.0522428 -0.224918E-08  0.508E-05   11.50      33.1  T
   3  -3772.0522428  0.500222E-11  0.139E-05   11.50     121.2  T
     SCC iter.                  ...        3 min, 43.828 sec
     gradient                   ...        3 min, 56.959 sec
 * total energy  : -3716.2256354 Eh     change    :  -0.4751163E-05 Eh
   gradient norm :     0.0062324 Eh/a0  converged?    E=T G=F D=T
   time step     :     0.1663750 fs     power     :   0.3654093E-09
   step length   :     0.0007363 a0     speed     :   0.1070547E-03

........................................................................
.............................. CYCLE   13 ..............................
........................................................................

 iter      E             dE          RMSdq      gap      omega  full diag
   1  -3772.0509806 -0.377205E+04  0.104E-04   11.50       0.0  T
   2  -3772.0509806 -0.326827E-08  0.619E-05   11.50      27.2  T
   3  -3772.0509806 -0.454747E-11  0.167E-05   11.50     100.8  T
     SCC iter.                  ...        3 min, 42.626 sec
     gradient                   ...        3 min, 56.816 sec
 * total energy  : -3716.2256408 Eh     change    :  -0.5348610E-05 Eh
   gradient norm :     0.0056993 Eh/a0  converged?    E=F G=F D=T
   time step     :     0.1663750 fs     power     :   0.4064271E-09
   step length   :     0.0008978 a0     speed     :   0.1305290E-03

........................................................................
.............................. CYCLE   14 ..............................
........................................................................

 iter      E             dE          RMSdq      gap      omega  full diag
   1  -3772.0495285 -0.377205E+04  0.121E-04   11.50       0.0  T
   2  -3772.0495285 -0.430873E-08  0.718E-05   11.50      23.4  T
   3  -3772.0495285 -0.250111E-10  0.191E-05   11.50      88.2  T
     SCC iter.                  ...        3 min, 42.939 sec
     gradient                   ...        3 min, 56.547 sec
 * total energy  : -3716.2256464 Eh     change    :  -0.5614303E-05 Eh
   gradient norm :     0.0051044 Eh/a0  converged?    E=F G=F D=F
   time step     :     0.1663750 fs     power     :   0.4214188E-09
   step length   :     0.0010450 a0     speed     :   0.1519241E-03

........................................................................
.............................. CYCLE   15 ..............................
........................................................................

 iter      E             dE          RMSdq      gap      omega  full diag
   1  -3772.0477427 -0.377205E+04  0.151E-04   11.50       0.0  T
   2  -3772.0477427 -0.655473E-08  0.894E-05   11.50      18.8  T
   3  -3772.0477427 -0.259206E-10  0.234E-05   11.50      71.8  T
     SCC iter.                  ...        3 min, 46.668 sec
     gradient                   ...        3 min, 56.698 sec
 * total energy  : -3716.2256525 Eh     change    :  -0.6135960E-05 Eh
   gradient norm :     0.0044097 Eh/a0  converged?    E=F G=F D=F
   time step     :     0.1830125 fs     power     :   0.4085825E-09
   step length   :     0.0013077 a0     speed     :   0.1728402E-03

........................................................................
.............................. CYCLE   16 ..............................
........................................................................

 iter      E             dE          RMSdq      gap      omega  full diag
   1  -3772.0456157 -0.377205E+04  0.183E-04   11.50       0.0  T
   2  -3772.0456158 -0.935097E-08  0.109E-04   11.50      15.5  T
   3  -3772.0456158 -0.322871E-10  0.277E-05   11.50      60.8  T
     SCC iter.                  ...        3 min, 43.507 sec
     gradient                   ...        3 min, 57.197 sec
 * total energy  : -3716.2256588 Eh     change    :  -0.6233527E-05 Eh
   gradient norm :     0.0036650 Eh/a0  converged?    E=F G=F D=F
   time step     :     0.2013138 fs     power     :   0.3636384E-09
   step length   :     0.0016003 a0     speed     :   0.1922867E-03

........................................................................
.............................. CYCLE   17 ..............................
........................................................................

 iter      E             dE          RMSdq      gap      omega  full diag
   1  -3772.0431858 -0.377204E+04  0.216E-04   11.50       0.0  T
   2  -3772.0431858 -0.121740E-07  0.128E-04   11.50      13.1  T
   3  -3772.0431858 -0.850378E-10  0.312E-05   11.50      53.9  T
     SCC iter.                  ...        3 min, 50.408 sec
     gradient                   ...        3 min, 57.311 sec
 * total energy  : -3716.2256645 Eh     change    :  -0.5772710E-05 Eh
   gradient norm :     0.0030011 Eh/a0  converged?    E=F G=F D=F
   time step     :     0.2214451 fs     power     :   0.2883047E-09
   step length   :     0.0019121 a0     speed     :   0.2088635E-03

........................................................................
.............................. CYCLE   18 ..............................
........................................................................

 iter      E             dE          RMSdq      gap      omega  full diag
   1  -3772.0405808 -0.377204E+04  0.246E-04   11.50       0.0  T
   2  -3772.0405808 -0.141281E-07  0.146E-04   11.50      11.5  T
   3  -3772.0405808 -0.813998E-10  0.327E-05   11.50      51.4  T
     SCC iter.                  ...        3 min, 43.100 sec
     gradient                   ...        3 min, 56.389 sec
 * total energy  : -3716.2256693 Eh     change    :  -0.4759470E-05 Eh
   gradient norm :     0.0026686 Eh/a0  converged?    E=T G=F D=F
   time step     :     0.2435896 fs     power     :   0.1963604E-09
   step length   :     0.0022196 a0     speed     :   0.2204063E-03

........................................................................
.............................. CYCLE   19 ..............................
........................................................................

 iter      E             dE          RMSdq      gap      omega  full diag
   1  -3772.0380655 -0.377204E+04  0.266E-04   11.50       0.0  T
   2  -3772.0380655 -0.136915E-07  0.158E-04   11.50      10.6  T
   3  -3772.0380655 -0.148248E-09  0.306E-05   11.50      55.0  T
     SCC iter.                  ...        3 min, 45.401 sec
     gradient                   ...        3 min, 57.253 sec
 * total energy  : -3716.2256728 Eh     change    :  -0.3528890E-05 Eh
   gradient norm :     0.0028359 Eh/a0  converged?    E=T G=F D=F
   time step     :     0.2679486 fs     power     :   0.1168247E-09
   step length   :     0.0024809 a0     speed     :   0.2239614E-03

........................................................................
.............................. CYCLE   20 ..............................
........................................................................

 iter      E             dE          RMSdq      gap      omega  full diag
   1  -3772.0359876 -0.377204E+04  0.274E-04   11.50       0.0  T
   2  -3772.0359876 -0.104283E-07  0.163E-04   11.50      10.3  T
   3  -3772.0359876 -0.211458E-09  0.246E-05   11.50      68.4  T
     SCC iter.                  ...        3 min, 47.271 sec
     gradient                   ...        3 min, 58.077 sec
 * total energy  : -3716.2256756 Eh     change    :  -0.2764341E-05 Eh
   gradient norm :     0.0032801 Eh/a0  converged?    E=T G=F D=F
   time step     :     0.2947435 fs     power     :   0.8012861E-10
   step length   :     0.0026742 a0     speed     :   0.2194620E-03
 * RMSD in coord.:     0.0006748 a0     energy gain  -0.3712499E-03 Eh

........................................................................
.............................. CYCLE   21 ..............................
........................................................................

 iter      E             dE          RMSdq      gap      omega  full diag
   1  -3772.0349289 -0.377203E+04  0.211E-04   11.50       0.0  T
   2  -3772.0349289 -0.374894E-08  0.125E-04   11.50      13.5  T
   3  -3772.0349289 -0.278305E-09  0.136E-05   11.50     123.7  T
     SCC iter.                  ...        3 min, 46.958 sec
     gradient                   ...        3 min, 56.994 sec
 * total energy  : -3716.2256779 Eh     change    :  -0.2308367E-05 Eh
   gradient norm :     0.0035670 Eh/a0  converged?    E=T G=F D=F
   time step     :     0.2500000 fs     power     :   0.9988246E-10
   step length   :     0.0021656 a0     speed     :   0.2095378E-03

........................................................................
.............................. CYCLE   22 ..............................
........................................................................

 iter      E             dE          RMSdq      gap      omega  full diag
   1  -3772.0345742 -0.377203E+04  0.194E-04   11.50       0.0  T
   2  -3772.0345742 -0.218961E-08  0.115E-04   11.50      14.7  T
   3  -3772.0345742 -0.178261E-09  0.110E-05   11.50     152.7  T
     SCC iter.                  ...        3 min, 48.213 sec
     gradient                   ...        3 min, 58.768 sec
 * total energy  : -3716.2256808 Eh     change    :  -0.2932486E-05 Eh
   gradient norm :     0.0036418 Eh/a0  converged?    E=T G=F D=F
   time step     :     0.2500000 fs     power     :   0.1417826E-09
   step length   :     0.0020938 a0     speed     :   0.2025906E-03

........................................................................
.............................. CYCLE   23 ..............................
........................................................................

 iter      E             dE          RMSdq      gap      omega  full diag
   1  -3772.0348798 -0.377203E+04  0.187E-04   11.50       0.0  T
   2  -3772.0348798 -0.236378E-08  0.109E-04   11.50      15.4  T
   3  -3772.0348798 -0.713953E-10  0.134E-05   11.50     125.8  T
     SCC iter.                  ...        3 min, 45.634 sec
     gradient                   ...        3 min, 56.636 sec
 * total energy  : -3716.2256845 Eh     change    :  -0.3707118E-05 Eh
   gradient norm :     0.0034864 Eh/a0  converged?    E=T G=F D=F
   time step     :     0.2500000 fs     power     :   0.1842362E-09
   step length   :     0.0020708 a0     speed     :   0.2003592E-03

........................................................................
.............................. CYCLE   24 ..............................
........................................................................

 iter      E             dE          RMSdq      gap      omega  full diag
   1  -3772.0357761 -0.377204E+04  0.188E-04   11.50       0.0  T
   2  -3772.0357761 -0.398131E-08  0.109E-04   11.50      15.5  T
   3  -3772.0357761  0.163709E-10  0.184E-05   11.50      91.4  T
     SCC iter.                  ...        3 min, 43.350 sec
     gradient                   ...        3 min, 57.649 sec
 * total energy  : -3716.2256888 Eh     change    :  -0.4267720E-05 Eh
   gradient norm :     0.0031255 Eh/a0  converged?    E=T G=F D=F
   time step     :     0.2500000 fs     power     :   0.2106292E-09
   step length   :     0.0020928 a0     speed     :   0.2024902E-03

........................................................................
.............................. CYCLE   25 ..............................
........................................................................

 iter      E             dE          RMSdq      gap      omega  full diag
   1  -3772.0371756 -0.377204E+04  0.193E-04   11.50       0.0  T
   2  -3772.0371756 -0.586579E-08  0.111E-04   11.50      15.1  T
   3  -3772.0371756 -0.391083E-10  0.233E-05   11.50      72.1  T
     SCC iter.                  ...        3 min, 47.914 sec
     gradient                   ...        3 min, 57.918 sec
 * total energy  : -3716.2256932 Eh     change    :  -0.4391858E-05 Eh
   gradient norm :     0.0026151 Eh/a0  converged?    E=T G=F D=F
   time step     :     0.2500000 fs     power     :   0.2116552E-09
   step length   :     0.0021444 a0     speed     :   0.2074838E-03

........................................................................
.............................. CYCLE   26 ..............................
........................................................................

 iter      E             dE          RMSdq      gap      omega  full diag
   1  -3772.0391753 -0.377204E+04  0.220E-04   11.50       0.0  T
   2  -3772.0391753 -0.989075E-08  0.126E-04   11.50      13.3  T
   3  -3772.0391753 -0.291038E-10  0.301E-05   11.50      55.8  T
     SCC iter.                  ...        3 min, 54.218 sec
     gradient                   ...        3 min, 58.697 sec
 * total energy  : -3716.2256976 Eh     change    :  -0.4400344E-05 Eh
   gradient norm :     0.0020017 Eh/a0  converged?    E=T G=F D=F
   time step     :     0.2750000 fs     power     :   0.1816772E-09
   step length   :     0.0024406 a0     speed     :   0.2146736E-03

........................................................................
.............................. CYCLE   27 ..............................
........................................................................

 iter      E             dE          RMSdq      gap      omega  full diag
   1  -3772.0417028 -0.377204E+04  0.245E-04   11.50       0.0  T
   2  -3772.0417028 -0.136038E-07  0.141E-04   11.50      11.9  T
   3  -3772.0417028 -0.107775E-09  0.353E-05   11.50      47.7  T
     SCC iter.                  ...        3 min, 44.389 sec
     gradient                   ...        3 min, 56.832 sec
 * total energy  : -3716.2257013 Eh     change    :  -0.3713555E-05 Eh
   gradient norm :     0.0015712 Eh/a0  converged?    E=T G=F D=F
   time step     :     0.3025000 fs     power     :   0.1241922E-09
   step length   :     0.0027701 a0     speed     :   0.2215084E-03

........................................................................
.............................. CYCLE   28 ..............................
........................................................................

 iter      E             dE          RMSdq      gap      omega  full diag
   1  -3772.0444591 -0.377204E+04  0.255E-04   11.50       0.0  T
   2  -3772.0444591 -0.143746E-07  0.146E-04   11.50      11.5  T
   3  -3772.0444591 -0.149157E-09  0.353E-05   11.50      47.6  T
     SCC iter.                  ...        3 min, 54.291 sec
     gradient                   ...        3 min, 58.876 sec
 * total energy  : -3716.2257039 Eh     change    :  -0.2580356E-05 Eh
   gradient norm :     0.0017410 Eh/a0  converged?    E=T G=F D=F
   time step     :     0.3327500 fs     power     :   0.6515433E-10
   step length   :     0.0030690 a0     speed     :   0.2230948E-03

........................................................................
.............................. CYCLE   29 ..............................
........................................................................

 iter      E             dE          RMSdq      gap      omega  full diag
   1  -3772.0469187 -0.377205E+04  0.239E-04   11.50       0.0  T
   2  -3772.0469187 -0.968930E-08  0.138E-04   11.50      12.2  T
   3  -3772.0469187 -0.159162E-10  0.279E-05   11.50      60.2  T
     SCC iter.                  ...        3 min, 43.601 sec
     gradient                   ...        3 min, 56.799 sec
 * total energy  : -3716.2257057 Eh     change    :  -0.1850308E-05 Eh
   gradient norm :     0.0022308 Eh/a0  converged?    E=T G=F D=F
   time step     :     0.3660250 fs     power     :   0.4176974E-10
   step length   :     0.0032571 a0     speed     :   0.2152483E-03

........................................................................
.............................. CYCLE   30 ..............................
........................................................................

 iter      E             dE          RMSdq      gap      omega  full diag
   1  -3772.0486603 -0.377205E+04  0.212E-04   11.50       0.0  T
   2  -3772.0486603 -0.379441E-08  0.123E-04   11.50      13.7  T
   3  -3772.0486603 -0.427463E-10  0.163E-05   11.50     103.5  T
     SCC iter.                  ...        3 min, 45.486 sec
     gradient                   ...        3 min, 56.905 sec
 * total energy  : -3716.2257080 Eh     change    :  -0.2260824E-05 Eh
   gradient norm :     0.0025446 Eh/a0  converged?    E=T G=F D=F
   time step     :     0.4026275 fs     power     :   0.6137357E-10
   step length   :     0.0034143 a0     speed     :   0.2051238E-03

........................................................................
.............................. CYCLE   31 ..............................
........................................................................

 iter      E             dE          RMSdq      gap      omega  full diag
   1  -3772.0493934 -0.377205E+04  0.193E-04   11.50       0.0  T
   2  -3772.0493934 -0.120463E-08  0.114E-04   11.50      14.8  T
   3  -3772.0493934 -0.823093E-10  0.895E-06   11.50     188.0  T
     SCC iter.                  ...        3 min, 48.447 sec
     gradient                   ...        3 min, 56.250 sec
 * total energy  : -3716.2257117 Eh     change    :  -0.3659590E-05 Eh
   gradient norm :     0.0024654 Eh/a0  converged?    E=T G=F D=F
   time step     :     0.4428903 fs     power     :   0.1004345E-09
   step length   :     0.0036652 a0     speed     :   0.2001760E-03

........................................................................
.............................. CYCLE   32 ..............................
........................................................................

 iter      E             dE          RMSdq      gap      omega  full diag
   1  -3772.0489808 -0.377205E+04  0.201E-04   11.50       0.0  T
   2  -3772.0489808 -0.500449E-08  0.121E-04   11.50      13.9  T
   3  -3772.0489808  0.727596E-10  0.183E-05   11.50      91.8  T
     SCC iter.                  ...        3 min, 42.700 sec
     gradient                   ...        3 min, 56.458 sec
 * total energy  : -3716.2257167 Eh     change    :  -0.5060509E-05 Eh
   gradient norm :     0.0019920 Eh/a0  converged?    E=F G=F D=F
   time step     :     0.4871793 fs     power     :   0.1219799E-09
   step length   :     0.0040883 a0     speed     :   0.2029893E-03

........................................................................
.............................. CYCLE   33 ..............................
........................................................................

 iter      E             dE          RMSdq      gap      omega  full diag
   1  -3772.0475805 -0.377205E+04  0.227E-04   11.50       0.0  T
   2  -3772.0475805 -0.140349E-07  0.139E-04   11.50      12.1  T
   3  -3772.0475805 -0.591172E-11  0.338E-05   11.50      49.8  T
     SCC iter.                  ...        3 min, 55.109 sec
     gradient                   ...        3 min, 56.113 sec
 * total energy  : -3716.2257220 Eh     change    :  -0.5242185E-05 Eh
   gradient norm :     0.0015184 Eh/a0  converged?    E=F G=F D=F
   time step     :     0.5358972 fs     power     :   0.1021503E-09
   step length   :     0.0046721 a0     speed     :   0.2108861E-03

........................................................................
.............................. CYCLE   34 ..............................
........................................................................

 iter      E             dE          RMSdq      gap      omega  full diag
   1  -3772.0459836 -0.377205E+04  0.232E-04   11.50       0.0  T
   2  -3772.0459837 -0.174732E-07  0.142E-04   11.50      11.8  T
   3  -3772.0459837 -0.127784E-09  0.375E-05   11.50      44.8  T
     SCC iter.                  ...        3 min, 47.357 sec
     gradient                   ...        3 min, 57.193 sec
 * total energy  : -3716.2257262 Eh     change    :  -0.4278879E-05 Eh
   gradient norm :     0.0017396 Eh/a0  converged?    E=T G=F D=F
   time step     :     0.5894869 fs     power     :   0.6770543E-10
   step length   :     0.0052877 a0     speed     :   0.2169720E-03

........................................................................
.............................. CYCLE   35 ..............................
........................................................................

 iter      E             dE          RMSdq      gap      omega  full diag
   1  -3772.0454906 -0.377205E+04  0.215E-04   11.50       0.0  T
   2  -3772.0454906 -0.812406E-08  0.132E-04   11.50      12.8  T
   3  -3772.0454906 -0.723048E-10  0.213E-05   11.50      79.1  T
     SCC iter.                  ...        3 min, 42.830 sec
     gradient                   ...        3 min, 55.360 sec
 * total energy  : -3716.2257306 Eh     change    :  -0.4347099E-05 Eh
   gradient norm :     0.0020717 Eh/a0  converged?    E=T G=F D=F
   time step     :     0.6484356 fs     power     :   0.7261612E-10
   step length   :     0.0057983 a0     speed     :   0.2162960E-03

........................................................................
.............................. CYCLE   36 ..............................
........................................................................

 iter      E             dE          RMSdq      gap      omega  full diag
   1  -3772.0469554 -0.377205E+04  0.257E-04   11.50       0.0  T
   2  -3772.0469554 -0.319642E-08  0.152E-04   11.50      11.1  T
   3  -3772.0469554 -0.231921E-10  0.156E-05   11.50     108.0  T
     SCC iter.                  ...        3 min, 45.758 sec
     gradient                   ...        3 min, 56.607 sec
 * total energy  : -3716.2257367 Eh     change    :  -0.6094667E-05 Eh
   gradient norm :     0.0018257 Eh/a0  converged?    E=F G=F D=F
   time step     :     0.7132792 fs     power     :   0.1002835E-09
   step length   :     0.0064396 a0     speed     :   0.2183812E-03

........................................................................
.............................. CYCLE   37 ..............................
........................................................................

 iter      E             dE          RMSdq      gap      omega  full diag
   1  -3772.0503598 -0.377205E+04  0.341E-04   11.50       0.0  T
   2  -3772.0503598 -0.147725E-07  0.198E-04   11.50       8.5  T
   3  -3772.0503598  0.850378E-10  0.357E-05   11.50      47.1  T
     SCC iter.                  ...        3 min, 44.368 sec
     gradient                   ...        3 min, 56.279 sec
 * total energy  : -3716.2257436 Eh     change    :  -0.6960892E-05 Eh
   gradient norm :     0.0013851 Eh/a0  converged?    E=F G=F D=F
   time step     :     0.7846071 fs     power     :   0.9092085E-10
   step length   :     0.0073774 a0     speed     :   0.2274405E-03

........................................................................
.............................. CYCLE   38 ..............................
........................................................................

 iter      E             dE          RMSdq      gap      omega  full diag
   1  -3772.0539180 -0.377205E+04  0.338E-04   11.50       0.0  T
   2  -3772.0539180 -0.187938E-07  0.197E-04   11.50       8.6  T
   3  -3772.0539180 -0.346972E-09  0.383E-05   11.50      43.9  T
     SCC iter.                  ...        3 min, 50.202 sec
     gradient                   ...        3 min, 56.804 sec
 * total energy  : -3716.2257497 Eh     change    :  -0.6051694E-05 Eh
   gradient norm :     0.0017155 Eh/a0  converged?    E=F G=F D=F
   time step     :     0.8630678 fs     power     :   0.6712011E-10
   step length   :     0.0084065 a0     speed     :   0.2356052E-03

........................................................................
.............................. CYCLE   39 ..............................
........................................................................

 iter      E             dE          RMSdq      gap      omega  full diag
   1  -3772.0549483 -0.377205E+04  0.272E-04   11.50       0.0  T
   2  -3772.0549483 -0.809496E-08  0.160E-04   11.50      10.5  T
   3  -3772.0549483 -0.372438E-09  0.276E-05   11.50      60.8  T
     SCC iter.                  ...        3 min, 44.424 sec
     gradient                   ...        3 min, 56.267 sec
 * total energy  : -3716.2257569 Eh     change    :  -0.7244443E-05 Eh
   gradient norm :     0.0016698 Eh/a0  converged?    E=F G=F D=F
   time step     :     0.9493746 fs     power     :   0.8614278E-10
   step length   :     0.0093713 a0     speed     :   0.2387694E-03

........................................................................
.............................. CYCLE   40 ..............................
........................................................................

 iter      E             dE          RMSdq      gap      omega  full diag
   1  -3772.0528105 -0.377205E+04  0.339E-04   11.50       0.0  T
   2  -3772.0528106 -0.233008E-07  0.201E-04   11.50       8.3  T
   3  -3772.0528106  0.200544E-09  0.491E-05   11.50      34.3  T
     SCC iter.                  ...        3 min, 44.760 sec
     gradient                   ...        3 min, 56.043 sec
 * total energy  : -3716.2257653 Eh     change    :  -0.8393466E-05 Eh
   gradient norm :     0.0013610 Eh/a0  converged?    E=F G=F D=F
   time step     :     1.0443120 fs     power     :   0.7921688E-10
   step length   :     0.0107088 a0     speed     :   0.2480420E-03

........................................................................
.............................. CYCLE   41 ..............................
........................................................................

 iter      E             dE          RMSdq      gap      omega  full diag
   1  -3772.0509274 -0.377205E+04  0.359E-04   11.50       0.0  T
   2  -3772.0509274 -0.148830E-07  0.214E-04   11.50       7.9  T
   3  -3772.0509274  0.945874E-10  0.325E-05   11.50      51.8  T
     SCC iter.                  ...        3 min, 48.921 sec
     gradient                   ...        3 min, 57.061 sec
 * total energy  : -3716.2257734 Eh     change    :  -0.8095064E-05 Eh
   gradient norm :     0.0016295 Eh/a0  converged?    E=F G=F D=F
   time step     :     1.1487432 fs     power     :   0.7164233E-10
   step length   :     0.0121669 a0     speed     :   0.2561966E-03

........................................................................
.............................. CYCLE   42 ..............................
........................................................................

 iter      E             dE          RMSdq      gap      omega  full diag
   1  -3772.0529849 -0.377205E+04  0.401E-04   11.51       0.0  T
   2  -3772.0529849 -0.201112E-07  0.232E-04   11.51       7.2  T
   3  -3772.0529849 -0.363798E-10  0.455E-05   11.51      37.0  T
     SCC iter.                  ...        3 min, 49.629 sec
     gradient                   ...        3 min, 55.669 sec
 * total energy  : -3716.2257831 Eh     change    :  -0.9627512E-05 Eh
   gradient norm :     0.0012918 Eh/a0  converged?    E=F G=F D=F
   time step     :     1.2500000 fs     power     :   0.7779913E-10
   step length   :     0.0136267 a0     speed     :   0.2636916E-03
 * RMSD in coord.:     0.0017201 a0     energy gain  -0.1074689E-03 Eh

........................................................................
.............................. CYCLE   43 ..............................
........................................................................

 iter      E             dE          RMSdq      gap      omega  full diag
   1  -3772.0534575 -0.377205E+04  0.677E-05   11.51       0.0  T
   2  -3772.0534575 -0.592536E-09  0.398E-05   11.51      42.3  T
   3  -3772.0534575 -0.522959E-10  0.661E-06   11.51     254.4  T
     SCC iter.                  ...        3 min, 43.232 sec
     gradient                   ...        3 min, 57.081 sec
 * total energy  : -3716.2257848 Eh     change    :  -0.1706181E-05 Eh
   gradient norm :     0.0012842 Eh/a0  converged?    E=T G=F D=F
   time step     :     0.2500000 fs     power     :   0.8722960E-10
   step length   :     0.0026170 a0     speed     :   0.2532103E-03

........................................................................
.............................. CYCLE   44 ..............................
........................................................................

 iter      E             dE          RMSdq      gap      omega  full diag
   1  -3772.0539022 -0.377205E+04  0.645E-05   11.51       0.0  T
   2  -3772.0539022 -0.732598E-09  0.378E-05   11.51      44.5  T
   3  -3772.0539022  0.281943E-10  0.824E-06   11.51     204.1  T
     SCC iter.                  ...        3 min, 46.074 sec
     gradient                   ...        3 min, 56.837 sec
 * total energy  : -3716.2257866 Eh     change    :  -0.1853725E-05 Eh
   gradient norm :     0.0011988 Eh/a0  converged?    E=T G=F D=F
   time step     :     0.2500000 fs     power     :   0.9438850E-10
   step length   :     0.0025372 a0     speed     :   0.2454848E-03

........................................................................
.............................. CYCLE   45 ..............................
........................................................................

 iter      E             dE          RMSdq      gap      omega  full diag
   1  -3772.0542509 -0.377205E+04  0.720E-05   11.51       0.0  T
   2  -3772.0542509 -0.772616E-09  0.424E-05   11.51      39.7  T
   3  -3772.0542509 -0.454747E-12  0.827E-06   11.51     203.4  T
     SCC iter.                  ...        3 min, 43.399 sec
     gradient                   ...        3 min, 56.458 sec
 * total energy  : -3716.2257885 Eh     change    :  -0.1902907E-05 Eh
   gradient norm :     0.0010743 Eh/a0  converged?    E=T G=F D=F
   time step     :     0.2500000 fs     power     :   0.9614644E-10
   step length   :     0.0024868 a0     speed     :   0.2406107E-03

........................................................................
.............................. CYCLE   46 ..............................
........................................................................

 iter      E             dE          RMSdq      gap      omega  full diag
   1  -3772.0544601 -0.377205E+04  0.812E-05   11.51       0.0  T
   2  -3772.0544601 -0.655746E-09  0.477E-05   11.51      35.2  T
   3  -3772.0544601 -0.377440E-10  0.810E-06   11.51     207.7  T
     SCC iter.                  ...        3 min, 42.916 sec
     gradient                   ...        3 min, 57.078 sec
 * total energy  : -3716.2257904 Eh     change    :  -0.1855506E-05 Eh
   gradient norm :     0.0009753 Eh/a0  converged?    E=T G=T D=F
   time step     :     0.2500000 fs     power     :   0.9286731E-10
   step length   :     0.0024601 a0     speed     :   0.2380280E-03

   *** GEOMETRY OPTIMIZATION CONVERGED AFTER 46 CYCLES ***

------------------------------------------------------------------------
 total energy gain   :        -0.0004860 Eh       -0.3050 kcal/mol
 total RMSD          :         0.0021810 a0        0.0012 Å
 total power (kW/mol):        -0.0277411 (step)   -0.0001 (real)
------------------------------------------------------------------------

 FIRE (total)                  0 d,  6 h, 12 min, 35.832 sec
 setup                          ...        0 min,  0.135 sec (  0.001%)
 velocities                     ...        0 min,  0.003 sec (  0.000%)
 propagation                    ...        0 min,  0.005 sec (  0.000%)
 singlepoint calculation        ...      372 min, 34.839 sec ( 99.996%)
 log and printout               ...        0 min,  0.778 sec (  0.003%)
 preconditioner                 ...        0 min,  0.000 sec (  0.000%)
 model hessian                  ...        0 min,  0.000 sec (  0.000%)
 hessian update                 ...        0 min,  0.000 sec (  0.000%)

================
 final structure:
================
3536
 xtb: 6.6.1 (8d0f1dd)
C           46.73319596327732       56.15871207647042       72.76680274088193
C           48.12426925505366       56.43048693897704       73.33533680947075
C           48.34024791265256       57.93731323018353       73.47925783243662
C           49.23441490794391       55.85196369963918       72.44997759663849
C           49.14462984763279       54.35318583948067       72.13213727249811
C           49.27158856572652       53.51136677522354       73.39886984228043
C           50.24118112617530       54.00762541371621       71.11545125167777
C           50.24553570779187       52.57148567690400       70.57464214164231
C           51.43586380130881       52.40060351540136       69.63131954416576
C           48.92246905744855       52.15209258150231       69.91321441214494
C           48.48904805581270       52.95677065379606       68.67161029264192
C           46.98711404684062       53.23584124281474       68.73289868652138
C           48.83700133568647       52.19786194880624       67.38281984130450
C           48.81841510001544       53.03116181958984       66.09089071854230
C           48.81628556031615       52.08164756236464       64.89286482458182
C           50.02409208640305       53.97867156484973       66.05130435981332
C           50.10877862507580       54.93630840516378       64.85439362340038
C           51.48500528187140       55.60246760426312       64.85908866364670
C           49.01359914746070       56.00840736182717       64.87991564378575
C           48.73378373405194       56.62947035207274       63.50352886876611
C           48.05254599764631       57.98436260649758       63.69053527838238
C           47.87381394672016       55.69057150134874       62.63878461660357
C           48.35635758181315       55.50109162185357       61.19329352068347
C           48.35775557964725       56.82925848674148       60.44070871260696
C           47.46032228364322       54.46732352670917       60.48215347968681
C           48.20463094578881       53.44622227326897       59.61256037543186
C           48.90015150155715       54.12364925097532       58.43237826866886
C           47.24433382763041       52.36963687699953       59.07942297177540
C           46.64230246691928       51.43470897721102       60.13520038545752
C           47.71235475822081       50.50885761784277       60.71315425479189
C           45.51274068593105       50.57070693850319       59.55351368399707
C           44.30027473291928       51.31514308533414       58.97702914713051
C           43.82069438927956       52.42382280341783       59.91264461419048
C           43.12013528385259       50.35524532781898       58.75009759292224
C           43.39498380566754       49.11171189457394       57.89850646478954
C           43.86511105467054       49.49428185518565       56.49562041292290
C           42.13668623800633       48.23483550356286       57.78209123841207
C           41.52603022234558       47.75656965945213       59.10556245651152
C           42.57117509782167       47.08513145978549       59.99668109585422
C           40.39180719364261       46.74616589545991       58.87573238083381
C           39.19915722239024       47.19724694777806       58.02372463588648
C           38.61913283442787       48.51862628865263       58.52890413812263
C           38.09423906565892       46.12743103771291       58.06128559891557
C           38.42843777744072       44.79002847122669       57.38164388715156
C           38.35985233864015       44.92976239043065       55.86277438874333
C           37.46803116539614       43.70074582255086       57.88098669409748
C           37.88975765865444       42.25035151055629       57.59985816838665
C           36.80875027425394       41.31190067552280       58.13863616379189
C           39.25416536100052       41.91915711032679       58.23265487739515
C           40.42239963634977       41.93072751418040       57.22986608736701
C           40.63537543304636       40.52866017120670       56.66221392462712
C           41.70060078511934       42.47208969453987       57.88080506234120
C           42.82685043633367       42.86068214905232       56.91235931663682
C           44.08097767937203       43.17859884542235       57.72749306504358
C           42.42770666523100       44.05958059375212       56.04239130436906
C           43.41851091942044       44.36325971467240       54.90288328659499
C           44.04123168031632       45.74663709089734       55.08060073558395
C           42.75530603638362       44.26726177007368       53.52239824143734
C           42.40626188841051       42.83499598844229       53.09751536774922
C           43.65895261108314       42.07957399029420       52.65383577743281
C           41.38312223065413       42.83855091473448       51.95251702398734
C           39.92985578297727       43.06744648091600       52.38748881124198
C           39.34410684562793       41.80137890205759       53.01014356393113
C           39.08310211233050       43.50114831377347       51.18099091155179
C           39.19434804530283       45.00191760299655       50.87290215205883
C           38.23270336519300       45.78009573634365       51.76993083065479
C           38.91737648785716       45.27957933978605       49.38940907923243
C           39.33656780157805       46.68067744705097       48.92505237389640
C           38.68095739041207       47.00737564871014       47.58359038318349
C           40.86518845881497       46.80842585665275       48.81149846561766
C           41.40120037921915       48.17703255972095       49.25886050225478
C           42.79825708255269       48.40544639822492       48.68735223816704
C           41.40288908812796       48.24357869431102       50.79119718844390
C           41.87190322435933       49.55285983507586       51.44104261173669
C           41.86806278215449       49.36037850211800       52.95899129871622
C           40.98574336609366       50.73678052516374       51.03625264805382
C           41.50359924526585       52.10921312498373       51.48769144409989
C           40.37068243465389       53.13363739934314       51.43748586170478
C           42.68255136038020       52.57605984499484       50.62588923559046
C           43.51217378812426       53.69920501092764       51.27838388382896
C           43.42956221786910       54.98799810952216       50.46155603635354
C           44.98366546334687       53.29833304476355       51.44280896265445
C           45.25047201955165       52.15891063010957       52.43882935705142
C           45.09214568514163       52.65058955288077       53.87492384711776
C           46.66514447380323       51.61989433719712       52.18687774542563
C           47.13830855893851       50.46808273982435       53.08006772274022
C           48.57826927566622       50.10950168996376       52.70788810143193
C           46.22976308794323       49.23293935177343       53.02654220341885
C           45.99823200200903       48.65304589771015       51.63292706862781
C           45.24449996612525       47.33270412958001       51.71422683093441
H           46.48643224920066       55.10108155823646       72.81220206981949
H           45.98179166822723       56.70267992528237       73.33556214098161
H           46.67754854216505       56.48243115606348       71.72924494938130
H           44.99834023109440       46.96868787204860       50.72081934754654
H           45.84956793787318       46.57863924498509       52.21398476903341
H           44.32006193697179       47.45741162145383       52.27273322603831
H           46.67715151687288       48.45781219396341       53.65484784680529
H           45.26187476906932       49.48058719696673       53.46687290445347
H           46.73487545558243       51.29455933932737       51.14699726649646
H           47.36661712945915       52.44764507695929       52.30967401611696
H           44.52696990749882       51.35829744199103       52.26656556143904
H           45.86611634095307       53.37766404141676       54.11168220171970
H           44.12490438443365       53.12611070021590       54.01592240707001
H           45.16335327129740       51.82643293961473       54.57947072649833
H           45.36833410337582       53.01528598039060       50.45983438612479
H           45.55104042478072       54.17333686688622       51.76831994117954
H           43.33308455483554       51.72553393148711       50.42203093997431
H           42.29511677449936       52.91355972828850       49.66221697411487
H           47.14798601804981       50.81310394969665       54.11985466192081
H           48.93439434460326       49.28265810724626       53.31835672928923
H           48.65147418232646       49.82466392911545       51.66092882843008
H           49.23435290245416       50.96192711486022       52.86867979128326
H           43.10124456460454       53.91188536108698       52.27006671844183
H           43.98704329580186       55.78464344535896       50.94788783096516
H           43.84525183138879       54.83645061923166       49.46682721395388
H           42.39677628443643       55.31236677154121       50.36002285311280
H           41.84515166332324       52.03004651704642       52.52349177619772
H           39.97802423073552       53.21564686856296       50.42555066003739
H           39.55635024900674       52.83634326889936       52.09632832712952
H           40.72419009185980       54.11389035312011       51.74955073602206
H           40.87855982607702       50.76058541999596       49.95069061225669
H           39.99116950496051       50.57603545962463       51.46037905895133
H           42.90134522400580       49.74666536887871       51.12938156592199
H           42.44296397006751       48.47828719426705       53.23283534342520
H           42.30669750315252       50.21273999134220       53.47023785270770
H           40.85103760189066       49.22768152423210       53.32296349429235
H           40.39376634544823       48.03522275925187       51.15135575630575
H           42.04834049358589       47.43983346920587       51.15586257617532
H           40.73559962792406       48.94755844016204       48.85753542538527
H           43.49490429951002       47.67085459639857       49.08471356295708
H           42.78705925956589       48.31669145088959       47.60294810376751
H           43.16124213705367       49.39823280133803       48.93882063130815
H           41.35436948825529       46.03580323754127       49.40729534942218
H           41.15107175522450       46.63440262999745       47.77183185359005
H           38.97116634286106       47.40963782520993       49.65246950183271
H           38.94811612411416       46.26161771750621       46.83716971056950
H           37.59714939457412       47.02403841327298       47.67704645239598
H           39.00748197222969       47.98212346069785       47.22763365704385
H           39.44904263370675       44.54540358638194       48.77868047346416
H           37.84913401363642       45.14504898932154       49.20388020262602
H           40.21409496002838       45.32640066668056       51.10076070224996
H           38.36137730154686       46.85329737529478       51.65630300668290
H           37.20199540317771       45.53364927059133       51.52231743991408
H           38.40025014016263       45.53252182738009       52.81530857256286
H           39.39962199346433       42.91705528417942       50.31393851336021
H           38.03410767593559       43.26028739502462       51.36497360142347
H           39.90243061323211       43.86258594117793       53.13903708775560
H           39.95213082822953       41.45559646397277       53.84202803091154
H           38.33721017353524       41.98786666165747       53.37915656306145
H           39.29349714091531       41.00494382039194       52.27030309219148
H           41.67502146306898       43.60993600938718       51.23630905376293
H           41.42975918287956       41.88014583907634       51.42994161735736
H           41.97582761331549       42.30960260292673       53.95431896313011
H           43.41709552054907       41.04450229721120       52.42167793575139
H           44.08198412074804       42.53881354373609       51.76243431715248
H           44.41801877665014       42.08142784017833       53.43115888006916
H           41.85072912163524       44.87995426335522       53.52840327307256
H           43.43016472233169       44.69375022116057       52.77520594665195
H           44.22481286293404       43.62720335508033       54.93473121599884
H           43.28432248851195       46.51778536000120       54.94756069402832
H           44.46866675956954       45.85157705788216       56.07540386738855
H           44.83061696177953       45.91308361661000       54.35161473116666
H           41.44383163463997       43.87870275021273       55.61164175526778
H           42.33369787393968       44.93519960464732       56.68873390742888
H           43.04752158977020       42.01029706946018       56.25914613695161
H           43.88384321215506       43.99567881383106       58.41951343478701
H           44.39010389526646       42.31039249670973       58.30553896938109
H           44.90719553407006       43.47019819381299       57.08417918882078
H           41.45062864898390       43.35983074946629       58.46722130229793
H           42.08083285013419       41.72104510999220       58.57781825796476
H           40.14980358380969       42.58935044308806       56.40258712890729
H           39.70854284721006       40.14727589129073       56.23837486034800
H           41.39168162872014       40.52854838644956       55.88048852205218
H           40.95997817977745       39.84633782681841       57.44622635165668
H           39.44891399355890       42.63133021324088       59.03593685588024
H           39.20736647736491       40.93076817444697       58.69379746180706
H           37.95112057999302       42.09721022575939       56.51793244978666
H           36.72599053710547       41.40743815955406       59.21969079105477
H           35.84086975857728       41.54693908987974       57.70090817351128
H           37.04531974599847       40.27672103705136       57.90126559054124
H           37.35821583751751       43.80041049106809       58.96413599131546
H           36.48298435712946       43.87374067593095       57.44010023370363
H           39.44331783210156       44.50184753666737       57.65785854259376
H           39.07750865049487       45.66885795351186       55.51344954218138
H           38.58148765426454       43.98394596597552       55.37443417877607
H           37.36444558598252       45.24438333895287       55.55392045443902
H           37.85238569079295       45.94232594826964       59.11156699783323
H           37.19418131233618       46.53405549522736       57.59332555440884
H           39.52712884540657       47.33559062339229       56.98960854370960
H           37.73275961927679       48.78648231981130       57.95717969938249
H           38.33708564863632       48.43361701851648       59.57637437403363
H           39.33888683325763       49.32698231588244       58.43097981234311
H           40.82936092866874       45.85539380707086       58.42018942702411
H           40.00641278814027       46.45406727778525       59.85733995192227
H           41.11895610392170       48.61485601282504       59.64565289956240
H           43.32556969543429       47.79094510211592       60.33048374707185
H           42.09610456575753       46.66432274374196       60.88049177767146
H           43.06615692524949       46.27815055528819       59.46051829390582
H           41.38177613365960       48.79586353940857       57.22727950933808
H           42.39375042047593       47.35608419966744       57.18585268034745
H           44.18230022579273       48.51859610565223       58.36996201380798
H           43.11452869816736       50.10329043735017       55.99675968000186
H           44.79508330351283       50.05520113160136       56.53618418154763
H           44.03934883259313       48.60429473144605       55.89636664414169
H           42.76994710472922       50.03714005497570       59.73362927183074
H           42.30861717148753       50.91658740244949       58.28027869860360
H           44.57696517178913       51.76838378307335       58.02046790577108
H           44.54849385408901       53.22577651410168       59.99115213632984
H           42.89076790982154       52.84651584575619       59.53875692570951
H           43.63379290501655       52.02499797374519       60.90683951641913
H           45.94106329087192       49.93919389244606       58.77257107351631
H           45.15708825191492       49.91277911850967       60.35176849567961
H           46.23059448748789       52.02318531948583       60.95801985340481
H           48.17197290650275       49.92396429356624       59.91886002693420
H           48.48928920382872       51.07508616299810       61.21982081387829
H           47.27252636939726       49.82416800537569       61.43618276643918
H           46.44071369820224       52.87488688924449       58.54323631785453
H           47.78032137045774       51.75379641245936       58.35224784780938
H           48.97087629367839       52.96464967392485       60.22771028353713
H           49.35501257298053       53.38307057625700       57.77867302811657
H           48.18414739625744       54.69453543575635       57.84593419233770
H           49.68402635356787       54.79380909615126       58.77531127511588
H           46.90449900563990       53.91735039680147       61.24257464050110
H           46.72761837004185       54.99200995315129       59.86473695852766
H           49.38145632565212       55.11485085750270       61.22825508577493
H           49.06531230111027       57.52594509239681       60.88231588769632
H           48.62899293763367       56.68417251257186       59.39949126465505
H           47.36629960154445       57.27690177462362       60.47255868851337
H           47.84430240879628       54.70664493765518       63.11060646694241
H           46.84950671585471       56.06790506408022       62.61473214095351
H           49.69136202539469       56.79445672188340       63.00195972217496
H           48.70661208008611       58.67073409820164       64.22446184850838
H           47.79913370585432       58.43163171238201       62.73367990463365
H           47.13676988279724       57.87100146545264       64.26711117341245
H           48.08224940934828       55.58762743491754       65.26278142332711
H           49.32004334795972       56.79799580809388       65.56916007474771
H           50.01526050655819       54.36175726547802       63.93085705605196
H           52.27205460450080       54.86179723020283       64.73944762035747
H           51.57068547321462       56.32258071437770       64.05053534320953
H           51.65052568550581       56.12270370447089       65.80141084362991
H           50.03326773234612       54.58281486364091       66.96151565213695
H           50.93051439751481       53.36667142646034       66.05681005715448
H           47.89435725240283       53.61536134916276       66.06172215562495
H           49.74536388492253       51.51638295113873       64.85417447130197
H           47.98983279755356       51.37793641394411       64.96898733412687
H           48.70174245260646       52.62573385587427       63.95919171466495
H           49.82775428261318       51.75193295901182       67.47891570691080
H           48.12256510511762       51.37693846432973       67.27839219152057
H           49.00525598567234       53.91866926165184       68.67235978442527
H           46.74411292393508       53.83351365528465       69.60896771833892
H           46.65256972002513       53.77972494582561       67.85326183068140
H           46.43067045332487       52.30213711981035       68.78807886986151
H           49.00167806452316       51.09674391046770       69.64008530792218
H           48.13893683501315       52.21657537197076       70.66960136777112
H           50.40115293725653       51.89046506176582       71.41895583609676
H           51.49055715407158       51.37773182192099       69.26404325690338
H           51.35327850678767       53.07336573809543       68.78178254302669
H           52.36433000348310       52.62500574700397       70.15330421241323
H           50.15705305327417       54.69618105782262       70.27147231925056
H           51.21275351226946       54.19270495469161       71.58243698657924
H           48.17399720632042       54.15568913894769       71.67198849742503
H           50.23891582865470       53.67760828040413       73.86906819548106
H           48.49382115461474       53.76878406286408       74.11304834094592
H           49.17607585547929       52.45255190928629       73.17268439745646
H           49.22820606209834       56.40595289646014       71.50774003912352
H           50.19543525064916       56.04631170644218       72.93384107062430
H           48.18693150177042       55.98233079498343       74.33217684012648
H           48.25113709240395       58.42594867197567       72.51117174147718
H           47.59984959293345       58.36826506133320       74.14990578007205
H           49.32978508838784       58.14714792934229       73.87922211101669
H           45.42165357614698       49.35600598762682       51.02979043945859
H           46.95243169949088       48.48686566097331       51.13055866375917
C           54.93234355788535       66.63069826726718       40.69042304333669
C           54.81915020753175       65.16208027726201       41.09256182594256
C           53.53395758537518       64.56677522172205       40.52069901718298
C           54.82263179881452       64.98100434176870       42.61546118458941
C           56.05581547285672       65.52607434693880       43.34347004634748
C           57.33794424437285       64.92540686951406       42.76983531339201
C           55.99568187586868       65.21474388991825       44.84635341694818
C           54.86860820560636       65.88340799728904       45.64283893298811
C           54.98547403981684       67.40707037359923       45.60465919919747
C           54.90476170140637       65.42748219719758       47.11023869066030
C           54.59919459773142       63.94840422172528       47.36928938027339
[...]
  3284   6 C     3286   6 C                                       1.5396780
  3287   6 C     3288   6 C                                       1.5280777
  3287   6 C     3289   6 C                                       1.5343831
  3289   6 C     3290   6 C                                       1.5377651
  3290   6 C     3291   6 C                                       1.5277845
  3290   6 C     3292   6 C                                       1.5328085
  3292   6 C     3293   6 C                                       1.5369165
  3293   6 C     3294   6 C                                       1.5295984
  3293   6 C     3295   6 C                                       1.5331964
  3296   6 C     3297   6 C                                       1.5291184
  3296   6 C     3298   6 C                                       1.5342962
  3298   6 C     3299   6 C                                       1.5329626
  3299   6 C     3300   6 C                                       1.5284753
  3299   6 C     3301   6 C                                       1.5356607
  3301   6 C     3302   6 C                                       1.5342592
  3302   6 C     3303   6 C                                       1.5269689
  3302   6 C     3304   6 C                                       1.5372859
  3304   6 C     3305   6 C                                       1.5365886
  3305   6 C     3306   6 C                                       1.5276290
  3305   6 C     3307   6 C                                       1.5329909
  3307   6 C     3308   6 C                                       1.5363416
  3308   6 C     3309   6 C                                       1.5296905
  3308   6 C     3310   6 C                                       1.5334920
  3310   6 C     3311   6 C                                       1.5354024
  3311   6 C     3312   6 C                                       1.5292806
  3313   6 C     3314   6 C                                       1.5331107
  3314   6 C     3315   6 C                                       1.5298573
  3314   6 C     3316   6 C                                       1.5364360
  3316   6 C     3317   6 C                                       1.5320898
  3317   6 C     3318   6 C                                       1.5304444
  3317   6 C     3319   6 C                                       1.5386714
  3320   6 C     3321   6 C                                       1.5309478
  3320   6 C     3322   6 C                                       1.5323704
  3322   6 C     3323   6 C                                       1.5329893
  3323   6 C     3324   6 C                                       1.5267996
  3323   6 C     3325   6 C                                       1.5371523
  3325   6 C     3326   6 C                                       1.5342575
  3326   6 C     3327   6 C                                       1.5288792
  3326   6 C     3328   6 C                                       1.5365700
  3328   6 C     3329   6 C                                       1.5340385
  3329   6 C     3330   6 C                                       1.5294037
  3329   6 C     3331   6 C                                       1.5373051
  3331   6 C     3332   6 C                                       1.5337782
  3332   6 C     3333   6 C                                       1.5290933
  3332   6 C     3334   6 C                                       1.5380443
  3334   6 C     3335   6 C                                       1.5329583
  3335   6 C     3336   6 C                                       1.5291185
  3335   6 C     3337   6 C                                       1.5370308
  3337   6 C     3338   6 C                                       1.5346870
  3338   6 C     3339   6 C                                       1.5292883
  3338   6 C     3340   6 C                                       1.5386394
  3340   6 C     3341   6 C                                       1.5322042
  3341   6 C     3342   6 C                                       1.5276334
  3341   6 C     3343   6 C                                       1.5368797
  3343   6 C     3344   6 C                                       1.5348039
  3344   6 C     3345   6 C                                       1.5278747
  3344   6 C     3346   6 C                                       1.5371575
  3346   6 C     3347   6 C                                       1.5356235
  3347   6 C     3348   6 C                                       1.5260642
  3347   6 C     3349   6 C                                       1.5368763
  3349   6 C     3350   6 C                                       1.5350383
  3350   6 C     3351   6 C                                       1.5295404
  3350   6 C     3352   6 C                                       1.5311913
  3352   6 C     3353   6 C                                       1.5269996
  3353   6 C     3354   6 C                                       1.5243235
  3265   6 C     3355   1 H                                       1.0884696
  3265   6 C     3356   1 H                                       1.0875528
  3265   6 C     3357   1 H                                       1.0872393
  3354   6 C     3358   1 H                                       1.0881113
  3354   6 C     3359   1 H                                       1.0875826
  3354   6 C     3360   1 H                                       1.0881583
  3352   6 C     3361   1 H                                       1.0913405
  3352   6 C     3362   1 H                                       1.0919793
  3349   6 C     3363   1 H                                       1.0940871
  3349   6 C     3364   1 H                                       1.0930020
  3347   6 C     3365   1 H                                       1.0932670
  3348   6 C     3366   1 H                                       1.0877902
  3348   6 C     3367   1 H                                       1.0868110
  3348   6 C     3368   1 H                                       1.0865809
  3346   6 C     3369   1 H                                       1.0941160
  3346   6 C     3370   1 H                                       1.0932545
  3343   6 C     3371   1 H                                       1.0915777
  3343   6 C     3372   1 H                                       1.0927787
  3350   6 C     3373   1 H                                       1.0943688
  3351   6 C     3374   1 H                                       1.0882433
  3351   6 C     3375   1 H                                       1.0863232
  3351   6 C     3376   1 H                                       1.0882516
  3344   6 C     3377   1 H                                       1.0933146
  3345   6 C     3378   1 H                                       1.0864687
  3345   6 C     3379   1 H                                       1.0874678
  3345   6 C     3380   1 H                                       1.0884002
  3341   6 C     3381   1 H                                       1.0921552
  3342   6 C     3382   1 H                                       1.0867095
  3342   6 C     3383   1 H                                       1.0885360
  3342   6 C     3384   1 H                                       1.0882114
  3340   6 C     3385   1 H                                       1.0917947
  3340   6 C     3386   1 H                                       1.0934273
  3338   6 C     3387   1 H                                       1.0934259
  3339   6 C     3388   1 H                                       1.0879303
  3339   6 C     3389   1 H                                       1.0866235
  3339   6 C     3390   1 H                                       1.0881041
  3337   6 C     3391   1 H                                       1.0919974
  3337   6 C     3392   1 H                                       1.0940797
  3335   6 C     3393   1 H                                       1.0928101
  3336   6 C     3394   1 H                                       1.0883864
  3336   6 C     3395   1 H                                       1.0881830
  3336   6 C     3396   1 H                                       1.0867996
  3334   6 C     3397   1 H                                       1.0918843
  3334   6 C     3398   1 H                                       1.0936222
  3332   6 C     3399   1 H                                       1.0929950
  3333   6 C     3400   1 H                                       1.0867407
  3333   6 C     3401   1 H                                       1.0881926
  3333   6 C     3402   1 H                                       1.0881182
  3331   6 C     3403   1 H                                       1.0918922
  3331   6 C     3404   1 H                                       1.0936235
  3329   6 C     3405   1 H                                       1.0927763
  3330   6 C     3406   1 H                                       1.0865179
  3330   6 C     3407   1 H                                       1.0880181
  3330   6 C     3408   1 H                                       1.0881867
  3328   6 C     3409   1 H                                       1.0917670
  3328   6 C     3410   1 H                                       1.0933790
  3326   6 C     3411   1 H                                       1.0920236
  3327   6 C     3412   1 H                                       1.0875444
  3327   6 C     3413   1 H                                       1.0886964
  3327   6 C     3414   1 H                                       1.0871272
  3325   6 C     3415   1 H                                       1.0914260
  3325   6 C     3416   1 H                                       1.0932169
  3323   6 C     3417   1 H                                       1.0929397
  3324   6 C     3418   1 H                                       1.0865460
  3324   6 C     3419   1 H                                       1.0877126
  3324   6 C     3420   1 H                                       1.0878791
  3322   6 C     3421   1 H                                       1.0901280
  3322   6 C     3422   1 H                                       1.0938132
  3320   6 C     3423   1 H                                       1.0964141
  3321   6 C     3424   1 H                                       1.0886735
  3321   6 C     3425   1 H                                       1.0851705
  3321   6 C     3426   1 H                                       1.0877202
  3319   6 C     3427   1 H                                       1.0933196
  3319   6 C     3428   1 H                                       1.0935881
  3317   6 C     3429   1 H                                       1.0933114
  3318   6 C     3430   1 H                                       1.0860083
  3318   6 C     3431   1 H                                       1.0883010
  3318   6 C     3432   1 H                                       1.0880740
  3316   6 C     3433   1 H                                       1.0908940
  3316   6 C     3434   1 H                                       1.0928178
  3314   6 C     3435   1 H                                       1.0941908
  3315   6 C     3436   1 H                                       1.0864922
  3315   6 C     3437   1 H                                       1.0882071
  3315   6 C     3438   1 H                                       1.0886667
  3313   6 C     3439   1 H                                       1.0895106
  3313   6 C     3440   1 H                                       1.0921596
  3311   6 C     3441   1 H                                       1.0920072
  3312   6 C     3442   1 H                                       1.0887697
  3312   6 C     3443   1 H                                       1.0884930
  3312   6 C     3444   1 H                                       1.0869783
  3310   6 C     3445   1 H                                       1.0921363
  3310   6 C     3446   1 H                                       1.0929837
  3308   6 C     3447   1 H                                       1.0938141
  3309   6 C     3448   1 H                                       1.0884734
  3309   6 C     3449   1 H                                       1.0862807
  3309   6 C     3450   1 H                                       1.0883579
  3307   6 C     3451   1 H                                       1.0921666
  3307   6 C     3452   1 H                                       1.0931761
  3305   6 C     3453   1 H                                       1.0932177
  3306   6 C     3454   1 H                                       1.0881353
  3306   6 C     3455   1 H                                       1.0877533
  3306   6 C     3456   1 H                                       1.0862663
  3304   6 C     3457   1 H                                       1.0923018
  3304   6 C     3458   1 H                                       1.0930514
  3302   6 C     3459   1 H                                       1.0935910
  3303   6 C     3460   1 H                                       1.0865264
  3303   6 C     3461   1 H                                       1.0888511
  3303   6 C     3462   1 H                                       1.0866242
  3301   6 C     3463   1 H                                       1.0935406
  3301   6 C     3464   1 H                                       1.0923235
  3299   6 C     3465   1 H                                       1.0930483
  3300   6 C     3466   1 H                                       1.0858141
  3300   6 C     3467   1 H                                       1.0878694
  3300   6 C     3468   1 H                                       1.0880473
  3298   6 C     3469   1 H                                       1.0918999
  3298   6 C     3470   1 H                                       1.0928462
  3296   6 C     3471   1 H                                       1.0924808
  3297   6 C     3472   1 H                                       1.0874567
  3297   6 C     3473   1 H                                       1.0883327
  3297   6 C     3474   1 H                                       1.0883838
  3295   6 C     3475   1 H                                       1.0898563
  3295   6 C     3476   1 H                                       1.0925273
  3293   6 C     3477   1 H                                       1.0948731
  3294   6 C     3478   1 H                                       1.0884776
  3294   6 C     3479   1 H                                       1.0887354
  3294   6 C     3480   1 H                                       1.0868380
  3292   6 C     3481   1 H                                       1.0916622
  3292   6 C     3482   1 H                                       1.0927753
  3290   6 C     3483   1 H                                       1.0933066
  3291   6 C     3484   1 H                                       1.0860381
  3291   6 C     3485   1 H                                       1.0877344
  3291   6 C     3486   1 H                                       1.0874151
  3289   6 C     3487   1 H                                       1.0901272
  3289   6 C     3488   1 H                                       1.0928357
  3287   6 C     3489   1 H                                       1.0916265
  3288   6 C     3490   1 H                                       1.0867550
  3288   6 C     3491   1 H                                       1.0878198
  3288   6 C     3492   1 H                                       1.0885383
  3286   6 C     3493   1 H                                       1.0920975
  3286   6 C     3494   1 H                                       1.0925592
  3284   6 C     3495   1 H                                       1.0966723
  3285   6 C     3496   1 H                                       1.0864730
  3285   6 C     3497   1 H                                       1.0878711
  3285   6 C     3498   1 H                                       1.0866658
  3283   6 C     3499   1 H                                       1.0932937
  3283   6 C     3500   1 H                                       1.0918041
  3281   6 C     3501   1 H                                       1.0930675
  3282   6 C     3502   1 H                                       1.0883320
  3282   6 C     3503   1 H                                       1.0866090
  3282   6 C     3504   1 H                                       1.0879724
  3280   6 C     3505   1 H                                       1.0912002
  3280   6 C     3506   1 H                                       1.0925595
  3278   6 C     3507   1 H                                       1.0936158
  3279   6 C     3508   1 H                                       1.0872419
  3279   6 C     3509   1 H                                       1.0880491
  3279   6 C     3510   1 H                                       1.0880887
  3277   6 C     3511   1 H                                       1.0900321
  3277   6 C     3512   1 H                                       1.0915701
  3275   6 C     3513   1 H                                       1.0932434
  3276   6 C     3514   1 H                                       1.0880084
  3276   6 C     3515   1 H                                       1.0876280
  3276   6 C     3516   1 H                                       1.0871186
  3274   6 C     3517   1 H                                       1.0935313
  3274   6 C     3518   1 H                                       1.0933667
  3272   6 C     3519   1 H                                       1.0940191
  3273   6 C     3520   1 H                                       1.0866922
  3273   6 C     3521   1 H                                       1.0884784
  3273   6 C     3522   1 H                                       1.0875950
  3271   6 C     3523   1 H                                       1.0927813
  3271   6 C     3524   1 H                                       1.0916005
  3269   6 C     3525   1 H                                       1.0939535
  3270   6 C     3526   1 H                                       1.0874545
  3270   6 C     3527   1 H                                       1.0868680
  3270   6 C     3528   1 H                                       1.0877173
  3268   6 C     3529   1 H                                       1.0922054
  3268   6 C     3530   1 H                                       1.0932341
  3266   6 C     3531   1 H                                       1.0937972
  3267   6 C     3532   1 H                                       1.0874768
  3267   6 C     3533   1 H                                       1.0875282
  3267   6 C     3534   1 H                                       1.0882285
  3353   6 C     3535   1 H                                       1.0909146
  3353   6 C     3536   1 H                                       1.0928162

 * 2 distinct bonds (by element types)

   Z      Z             #   av. dist./Å        max./Å        min./Å
   1 H    6 C        2366     1.0900574     1.0974039     1.0833678
   6 C    6 C        1107     1.5325757     1.5400423     1.5224709


optimized geometry written to: xtbopt.xyz


           -------------------------------------------------
          | TOTAL ENERGY            -3716.225790378652 Eh   |
          | GRADIENT NORM               0.000975247152 Eh/α |
          | HOMO-LUMO GAP              11.505570970765 eV   |
           -------------------------------------------------

------------------------------------------------------------------------
 * finished run on 2024/10/04 at 20:51:57.371     
------------------------------------------------------------------------
 total:
 * wall-time:     0 d,  6 h, 39 min, 20.817 sec
 *  cpu-time:     1 d, 13 h, 15 min, 59.016 sec
 * ratio c/w:     5.599 speedup
 SCF:
 * wall-time:     0 d,  0 h, 17 min,  1.174 sec
 *  cpu-time:     0 d,  1 h, 52 min,  3.332 sec
 * ratio c/w:     6.584 speedup
 ANC optimizer:
 * wall-time:     0 d,  6 h, 20 min, 51.632 sec
 *  cpu-time:     1 d, 11 h, 22 min,  9.304 sec
 * ratio c/w:     5.572 speedup

