3864
 energy: -5104.235580696085 gnorm: 0.000994340233 xtb: 6.6.1 (8d0f1dd)
C           44.89195628632013       61.94970131859404       37.95298846908679
C           45.33908245843972       60.65290661293675       37.73153605390600
C           46.65150326887236       60.46903314023305       37.31134545132647
C           47.48754125343961       61.55229208485271       37.10901020207920
C           47.02952129679313       62.84038095416541       37.33056708027692
C           45.72742975603636       63.03562314146455       37.75645450730472
C           44.43251246857324       59.47468543953786       37.98825449383125
C           44.30906239371708       58.58671284457903       36.74967918536124
C           44.96786674825659       58.69532752066021       39.20031705122432
C           43.93335567636252       57.79046913608381       39.88775610325961
C           44.65796726126386       56.83145508208775       40.79793637889836
C           45.45490389480395       57.29363668964503       41.83999471084670
C           46.12988185919647       56.40787235802743       42.65855495772187
C           46.03537883953125       55.04387250214698       42.44134672645453
C           45.24453229373850       54.57425368181484       41.40923212017063
C           44.55568654713299       55.46214732524815       40.60318740357188
C           42.89958168017014       58.59736298358342       40.68248852382152
C           41.80158097011130       57.70646517949466       41.27985365355744
C           40.97345871101323       57.02876949164443       40.21869242806615
C           40.31940892250650       57.75991534637340       39.23392575813018
C           39.51816268535786       57.13190832406068       38.29789909750239
C           39.33993385313919       55.75965969962752       38.34084750302601
C           39.98629365684153       55.02060179255640       39.31609688589814
C           40.80290605899656       55.64947614155238       40.23825689122254
C           40.89336021333738       58.54141805921195       42.19324828173178
C           39.80436145041833       57.71205331192204       42.88609254539881
C           40.39152837360292       56.59597194134814       43.71514043015992
C           39.92561465429947       55.29674023781350       43.55529030241644
C           40.40992462920242       54.26585812414515       44.34171448681661
C           41.38455681327510       54.51333606187119       45.29208654579889
C           41.86680454189826       55.80105516820303       45.45037634336082
C           41.36677405700897       56.83502489615566       44.67878126876607
C           38.91245297135974       58.61651157884618       43.76480014923919
C           37.55753138067404       58.95844368863028       43.12647231396338
C           37.69295099727901       59.50249122860582       41.72757913559126
C           37.13154499544981       58.82642331386091       40.65212695334856
C           37.20366940953550       59.34276178946301       39.37022294993017
C           37.85698480750657       60.54062011130014       39.13764915580849
C           38.44068480341308       61.21574766515401       40.19670060826828
C           38.35289087552049       60.70043539977424       41.47684510875221
C           36.80478145383733       59.95775622653815       44.02025993450201
C           35.39951407545566       60.26802632614672       43.48854893392238
C           34.56921919600325       59.00773724151812       43.45897096666834
C           34.33050322196796       58.26824456991384       44.61201054859323
C           33.61684819423849       57.08471911652678       44.55627718047758
C           33.12595322755737       56.61909895720284       43.34851954830557
C           33.33670663016098       57.35870667567474       42.19776107439312
C           34.04936113588553       58.54341775275078       42.25653592304861
C           34.67715880240238       61.35720907990417       44.30221930954423
C           35.31301255559290       62.75584293452091       44.22237791464939
C           34.65022918994999       63.70915401279265       45.18993742262867
C           35.39991410637705       64.37555117395917       46.15135491199956
C           34.82296924706527       65.31316829903095       46.99065816342555
C           33.47560013353184       65.60626113393560       46.87731483206295
C           32.71157871025445       64.93749425966084       45.93540991077879
C           33.29290373548869       63.99842765789371       45.10256890476337
C           35.25109450956746       63.36776585446018       42.81317712671332
C           36.13675815801358       64.62311103260066       42.70958417196405
C           35.59859186022983       65.61704919048107       41.71467986727079
C           35.44055876186560       66.95030906856641       42.07240527158906
C           34.98072919399748       67.88158645006058       41.15825090425884
C           34.66504476490072       67.49049350118113       39.86882482061719
C           34.81416749962374       66.16326084087396       39.50184474651651
C           35.28012196236194       65.23639435356550       40.41626709385739
C           37.57222552616405       64.23336638497415       42.32754653845568
C           38.57221255005108       65.38655327400917       42.51290846851982
C           39.75060312042445       65.21521868526739       41.58704148951129
C           40.57981613643373       64.10313047567996       41.66828910032840
C           41.65070761587550       63.94705389504848       40.80837077598367
C           41.91557925464188       64.90723851987595       39.84795605024653
C           41.09584976051920       66.01827221112833       39.75165719856922
C           40.02143317866971       66.16633896868088       40.61164153874929
C           39.03134410675493       65.47720732950175       43.97387382701867
C           39.87233674034881       66.73459908011063       44.22811559948801
C           39.02127782639993       67.96737321141981       44.05309522723783
C           37.89724437101286       68.18695120187078       44.84199824604736
C           37.10641310782957       69.30621293712373       44.65660416273506
C           37.42744108999295       70.23079857348232       43.67739613910596
C           38.54998133075789       70.03064341276809       42.89285100761094
C           39.33851805294239       68.90935844869702       43.08289150016505
C           40.52753030423343       66.72993717692344       45.61991454386889
C           41.58511832208173       65.63033243277179       45.76777592172665
C           42.67882231707358       65.74466411108646       44.73208341769863
C           43.10583715967510       64.60422972973838       44.06099186852950
C           44.11326489381993       64.66519542123477       43.11529447493278
C           44.71442375048303       65.87634628905549       42.82115439334452
C           44.30551391624494       67.01857658699274       43.48643378568638
C           43.30067631722294       66.95105238646146       44.43526850138831
C           42.22117534225468       65.60137709447116       47.16848290395576
C           41.27050194801334       65.26656109207499       48.34010675495023
C           42.08279913274952       64.74903436829004       49.50357058333355
C           42.10710073951221       65.41890171832844       50.71890610270236
C           42.83334697823578       64.92313981390703       51.78896539593218
C           43.54734152233093       63.74601800254538       51.65571485938009
C           43.52686354963393       63.06384110870671       50.45054443987625
C           42.80042322283639       63.56266821182903       49.38674810694562
C           40.21214843358661       64.21806350528581       47.97037817070900
C           39.30254294178799       63.83352846836922       49.14484288187929
C           38.65406269894121       65.04871372418256       49.76482623733796
C           38.69907046656954       65.24806017235402       51.13886727502844
C           38.10772188635345       66.35622027557093       51.72013822088780
C           37.46140873811220       67.29222982007516       50.93228810416677
C           37.39359414829356       67.09864467088201       49.56285133656448
C           37.97854406964208       65.98445257276006       48.98852416300954
C           38.20029345892890       62.84735605496853       48.71148522953865
C           38.66978832004367       61.39549255306472       48.54003029977549
C           39.66471829997621       61.24089170435219       47.41671436897519
C           39.37686482566283       61.67287591085211       46.12624459072861
C           40.32239952093835       61.57735076594757       45.12247466640451
C           41.56587414543045       61.02465714555535       45.38155625168287
C           41.85140548504729       60.55847923110801       46.65226480256079
C           40.90758631276396       60.66733483970889       47.65924666482395
C           37.48154495127889       60.44977785622225       48.28355586689681
C           36.56944217200830       60.18819384368245       49.49351125052815
C           35.43343616634242       59.27860921196034       49.08300946053276
C           35.67487561632890       58.02242959354727       48.53684745277125
C           34.62908907742751       57.17867357681751       48.20841174288115
C           33.31867131234898       57.57402437118136       48.41640056461176
C           33.06567416662418       58.82206646281607       48.95703811284750
C           34.11429587565345       59.66097976909349       49.29179091658437
C           37.31542272360705       59.54079713096215       50.67854534272753
C           37.85127313647340       60.51903415999567       51.74455582174269
C           39.24011995424357       60.12559988314143       52.18646976934011
C           40.28529657057990       61.03893337409580       52.14253042182165
C           41.55927154893181       60.68383577838680       52.54915539503810
C           41.80549342013623       59.40236166543409       53.00847812554785
C           40.76893143731785       58.48627040845074       53.07313851582923
C           39.49840382367565       58.84734232606883       52.66761362980652
C           36.95447989207354       60.57546597861686       52.99196783043030
C           35.61130594525180       61.29512925751564       52.78519846345185
C           34.70916178665431       60.96268658555055       53.94669548890382
C           34.97115020310600       61.43099874829969       55.22922012649194
C           34.14154690761553       61.10836615089317       56.28722368277919
C           33.03730906926359       60.29696582172581       56.08337231761958
C           32.77582616204904       59.80856067836623       54.81469488674023
C           33.60343228066609       60.14377242555812       53.75727672210265
C           35.81585132208652       62.80820749114145       52.63067658362071
C           34.50790283767394       63.60772878860769       52.63469849901009
C           33.59794459262029       63.20145654455943       51.50467785134557
C           33.98518723511322       63.34167458873188       50.17591444073619
C           33.13146411993897       62.98693151028360       49.14529616583151
C           31.86683968123291       62.49708074784014       49.42711523696610
C           31.47091091759840       62.34801490377326       50.74505865929979
C           32.33276963272477       62.69273574193893       51.77172829932454
C           34.81278265875260       65.11083479265562       52.56905509481740
C           33.57124308298835       65.95812000687495       52.87717265699919
H           43.43694148065271       59.86356651128249       38.22498615224301
H           45.81478011998683       58.08368956453045       38.87750709441102
H           45.35099557943688       59.40779657574114       39.93295793599947
H           43.40183911542356       57.21511495681835       39.12178164785090
H           43.40764987621537       59.12257282505492       41.49378988315582
H           42.44317354724124       59.34895655923793       40.03726329649961
H           42.28348560332522       56.93226467273007       41.88778283288971
H           41.51194261521599       59.02806358954327       42.94919507175301
H           40.41216201687403       59.31979654290956       41.59920082483406
H           39.17847803490024       57.25752922164187       42.10939850449400
H           39.44977967878038       59.53449876963275       44.00196161832413
H           36.96969049573634       58.03512381628423       43.07180795876033
H           36.73698660462774       59.55006453171980       45.03020427766170
H           37.38342296778498       60.87814564000590       44.06898919881491
H           35.49936867147827       60.61760258210855       42.45605138578872
H           33.64587037001920       61.41286673753287       43.94591853435591
H           34.64325929262726       61.05317675000187       45.35166874992004
H           36.36464311404470       62.66771088809026       44.50853256446434
H           35.58028114980834       62.63828659510300       42.07282844190275
H           34.21716160894746       63.63158439123458       42.58295111942544
H           36.14818600092276       65.11553639251005       43.68668066483055
H           38.06821439967676       66.32204716239085       42.24611959501956
H           38.15438968221201       65.48763644252513       44.62272770735098
H           39.61986069335412       64.59186142690936       44.21097497347190
H           40.67332528759000       66.76082429829269       43.48015379823288
H           40.98369826590424       67.70750712946743       45.79110881371745
H           39.76028376504938       66.60396422971301       46.38337077764824
H           41.10988681202735       64.65896903372649       45.61434556343838
H           43.02104939643492       64.85780461823202       47.14039247713971
H           42.69075770010129       66.56687744804287       47.37284930711942
H           40.75931409981727       66.18512480290140       48.64865866657556
H           39.58851103046619       64.59090198013095       47.15986956879979
H           40.72286205442624       63.32640767269184       47.61734193116767
H           39.91661252771930       63.34858098703018       49.91047476957866
H           37.41853822335158       62.86265907576692       49.47429996201446
H           37.74268540166114       63.20055051381932       47.78712395244472
H           39.16711785773943       61.08038891877212       49.46081180735992
H           36.86756154631917       60.85633365847487       47.47510658704766
H           37.88465523320130       59.49439154064631       47.93966987697262
H           36.12897762475877       61.13572857132976       49.81590048792326
H           36.63615574658601       58.83765590142334       51.16647241535607
H           38.14166174351492       58.95296189663647       50.27615679588885
H           37.90658751641527       61.52418819613863       51.32180385735471
H           36.75954614842767       59.55810320081672       53.33846606934508
H           37.49998324711042       61.07749034242187       53.79593754924444
H           35.13786766885067       60.90686003385219       51.87866311736374
H           36.43408008036032       63.17519938367469       53.44965628422081
H           36.35325886863906       63.01278104473797       51.70364294690145
H           43.87527555858010       62.11382198727566       38.28402037452901
H           45.36414832650088       64.03761650204419       37.93668979877052
H           47.68446174467174       63.68584148672974       37.17575676097216
H           48.50549160593374       61.39103362835749       36.78317709153651
H           47.03139853420067       59.47093104435137       37.15240317579808
H           45.55908801468699       58.35558846986837       42.01152277953361
H           46.74723329684702       56.77940024885437       43.46348155618085
H           46.58541951069837       54.35746032326954       43.06845899235539
H           45.16503235468431       53.51355582897648       41.22370808129780
H           43.92230552248678       55.08795922915493       39.81046179409432
H           40.42041390711493       58.83483293014040       39.19513314225716
H           39.02586513038572       57.71831210515659       37.53440610610235
H           38.70177345915553       55.27004976742465       37.61795222721514
H           39.84673269314891       53.95076201431108       39.36261193796321
H           41.30511523120380       55.06415321243917       40.99608822286611
H           39.16757197422932       55.09261766364298       42.81037997141224
H           40.01958186876333       53.26580698497596       44.21113683175420
H           41.76558242398116       53.71555429114056       45.91315674533159
H           42.63019157452533       55.99270659959268       46.18955049263226
H           41.72883394271820       57.83999494315717       44.83926914733629
H           38.70564108806813       58.11535616188723       44.71315762196860
H           36.62335376396294       57.88690477711759       40.82012925653763
H           36.74521307067527       58.80840202113780       38.54968503022732
H           37.91366482773544       60.94539785638985       38.13668086481706
H           38.96405485570521       62.14647764061755       40.02345638621944
H           38.80762601122841       61.23932427993768       42.29268325320731
H           34.70633022870511       58.60707331585963       45.56655879662464
H           33.44911922083952       56.52126787633719       45.46240973783164
H           32.58757784511995       55.68409496402672       43.30081490776850
H           32.95185254290938       57.00691076999092       41.25056715958817
H           34.21558517242575       59.11142227787605       41.35084649438942
H           36.45635140409403       64.16202731248933       46.23892174415657
H           35.42304108188560       65.81795629513630       47.73354588457580
H           33.01828098502919       66.34450148057982       47.51979895265010
H           31.65622762787374       65.15443075175494       45.84765278459908
H           32.67986853440173       63.49340360250062       44.37002187443951
H           35.68377540432716       67.26825742060666       43.07696230017849
H           34.87095874937680       68.91527071437481       41.45428786188833
H           34.30438944056602       68.21501447897840       39.15287047407583
H           34.56805611871418       65.85176607969429       38.49646969743807
H           35.39590353811926       64.20523453940557       40.11554025378530
H           37.88420074046243       63.38250378185725       42.93361145253398
H           37.57735479852763       63.91545886497198       41.28282907572882
H           40.38779517077131       63.34386471556945       42.40943629332525
H           42.28055065262900       63.07303249508227       40.88503240026903
H           42.75343149307251       64.79128663781714       39.17547738700047
H           41.29167742132812       66.77216133741193       39.00161485296233
H           39.38036828785257       67.03364622210694       40.52458257585817
H           37.62707792459757       67.47788981156550       45.61063397606050
H           36.23198007424444       69.45738200773033       45.27414855950191
H           36.80748541620346       71.10312291980111       43.52728308380999
H           38.80996258163835       70.74913928167646       42.12799457486621
H           40.21312857016719       68.75820636885641       42.46439166736278
H           42.64122229502852       63.65461147199831       44.28680473547764
H           44.43852066665682       63.77016135975404       42.60554430164622
H           45.50070039871778       65.92905725773204       42.08171178420340
H           44.77510248464809       67.96800065368048       43.26892803628999
H           42.99803623416450       67.85755246544942       44.93954346475929
H           41.54056763587504       66.33455464379826       50.82632586822890
H           42.84836769207892       65.45081539308327       52.73221647029878
H           44.11609519180717       63.36924605790821       52.49247204066214
H           44.07564972986865       62.14131115099095       50.33193843055348
H           42.79031289677185       63.01148228295532       48.45781568710176
H           39.21188502312217       64.53358688064509       51.76639317377314
H           38.15537686228962       66.48926598072795       52.79152743510753
H           37.01539511222730       68.16922735288682       51.37887685669849
H           36.88540518628091       67.82406876624543       48.94179904121600
H           37.91386250491476       65.84955555939675       47.91886812309089
H           38.41316560372911       62.10931385140493       45.91060985799139
H           40.09696510750549       61.94558856178858       44.13077261355895
H           42.30439353746739       60.95646263428228       44.59468923732995
H           42.81343925011867       60.11733856393633       46.86879666538104
H           41.15329640111529       60.32143323634629       48.65388789470256
H           36.68707234803037       57.68637224132165       48.37363372951752
H           34.84516961569492       56.20454826624142       47.79377112628825
H           32.49969794341914       56.91471607529427       48.16532018091113
H           32.04798156546395       59.14732965927474       49.12410295488574
H           33.89705814864352       60.62876386399734       49.71949298517801
H           40.10550567744088       62.04468145518817       51.78670897144623
H           42.35408010806431       61.41308992464607       52.50161622525693
H           42.79982078427007       59.11824565817776       53.31858065074083
H           40.94806269696421       57.48494673702825       53.43481134907261
H           38.69718349387566       58.12619923696650       52.73264705894949
H           35.83180346046708       62.05780238460004       55.40629827481453
H           34.35488958631824       61.49310501956821       57.27590092502336
H           32.38498315483274       60.04620311459176       56.90805041125315
H           31.92182075994282       59.16657620551654       54.64577562503544
H           33.38104534294932       59.76784614692470       52.76800323518045
H           32.01989041195097       62.56504939527576       52.79930649211132
H           30.48700990965941       61.96286571597507       50.97582581454375
H           31.19927347371849       62.22757534994459       48.62106001564637
H           33.44919643675215       63.09474136974334       48.11905795263753
H           34.96170027924798       63.73682273854229       49.93359874644064
H           43.58882598030449       57.78931226923225       36.91611149113776
H           43.97447888761552       59.17317118239566       35.89588132931396
H           45.26447111871976       58.13224146597423       36.49986359508928
H           33.98939043558172       63.41054605595782       53.58012126555061
H           35.59699282219235       65.34917125404154       53.29063517121851
H           35.19331736780901       65.36403679378483       51.57873788815701
C           33.78645861156730       67.42523342605429       52.47475203656887
C           33.21287523875547       65.84532454321162       54.33707331989805
C           32.03422518744235       65.22218408319716       54.72666739124224
C           31.70268872467813       65.09623221892542       56.06463088040405
C           32.54582546443157       65.60228747570484       57.03814028358510
C           33.71749744160284       66.23613659046450       56.66131160947407
C           34.04991207972834       66.35368306402620       55.32415619137890
H           31.36602884371215       64.83268025730331       53.97043852242955
H           30.78354338790034       64.60302015971121       56.34809478749134
H           32.29043515086471       65.50666490214857       58.08365337764162
H           34.36975235891907       66.64289680560884       57.42159588289867
H           34.96810398874226       66.84873948447543       55.04385267807912
C           33.57246373495457       67.65708540337815       50.97196667360635
H           33.08502872791927       68.05488260476005       53.02803832828577
H           34.79851581076237       67.73287042870894       52.74327894560554
C           32.13397743731436       67.45012792421068       50.59453409290209
C           31.19269724242090       68.44186771631905       50.84494713515510
C           29.85759652130144       68.24367559138213       50.54338493145325
C           29.44126253229696       67.04504252831008       49.98718755656358
C           30.37001076919065       66.05158724246849       49.73169793769397
C           31.70569901056168       66.25404884708098       50.03249720051479
H           31.51001931371895       69.37980203651286       51.27960919963024
H           29.13804439738886       69.02518329222777       50.74253525295428
H           28.39771798085379       66.88958781725094       49.75378215751047
H           30.05807714451736       65.11189112443080       49.29856385741957
H           32.41985588486521       65.47056172664411       49.82578184212171
H           32.72999039421735       65.56769050995455       52.29464800667136
H           33.86755552978308       68.68151163608498       50.73295991373747
H           34.20742994296663       66.97674680339702       50.40295015320979
C           64.47703256922240       32.10324653555519       51.78251243270381
C           65.07811483339786       33.20524415208524       52.37725840282843
C           65.00476042279456       34.42906703614167       51.72209718343620
C           64.32759891869519       34.55411971077239       50.52317529735942
C           63.71548929796936       33.45258861390716       49.94981228868001
C           63.80155394726453       32.22399323937341       50.58022146712685
C           65.77052536473229       33.07163679174923       53.71227632914045
C           67.28187580009910       33.25684699926974       53.55272025523599
C           65.21005563533402       34.07237423310894       54.73480123069206
C           63.67966747427900       34.01067156349853       54.81008025885572
C           63.21285908572538       32.67773368423205       55.33657159537500
C           62.45608733906633       31.82821539664491       54.53867559630856
C           62.02116437130059       30.60297333344353       55.01244537350092
C           62.33766906031589       30.20569278542943       56.29990983823288
C           63.09149799938960       31.04242084058504       57.10565982446199
C           63.52426718299798       32.26602649885241       56.62755580897372
C           63.09679634361752       35.16407267841983       55.63735631393755
C           61.61315932368893       35.37547705404923       55.29968240566441
C           61.49792920705860       35.90453613524384       53.88947283508203
C           61.80615179575251       37.23054270576198       53.60682616056717
C           61.73235482451179       37.71679804069470       52.31476945534857
C           61.35710045498901       36.87993481887168       51.27755860776725
C           61.05748542193800       35.55525686017143       51.54163467112727
C           61.11809396930248       35.07716923212465       52.83945919849182
C           60.93105260385577       36.31935919733508       56.30043718816659
C           60.44160810102719       35.62728336343523       57.58486949402971
C           61.53391654688986       35.49205112892894       58.61162499152481
C           61.92764132216769       34.23871901417943       59.06355115138179
C           62.91899390458610       34.10821862482672       60.02043229625539
C           63.52856937560005       35.23305609852277       60.54906094597212
C           63.14271497281317       36.48762106515175       60.10826484932753
C           62.15838084065323       36.61355399337156       59.14647839740320
C           59.25575710639636       36.42148650161356       58.15010823184863
C           58.63592957171021       35.83837755205117       59.42977572604715
C           58.26584060397505       34.38801941895721       59.26737852148769
C           58.79381156076588       33.43136204107066       60.12507555650641
C           58.45964538952427       32.09517361492696       59.99047317070446
C           57.59054943204852       31.69294755147131       58.99091727760824
C           57.05936449217410       32.63525551951147       58.12803407563454
C           57.39527173749133       33.96856639642031       58.26855199497605
C           57.41310295287880       36.70023160158345       59.76883787726644
C           56.64971606620672       36.33279382891556       61.04848729236006
C           57.56079861281790       36.28385018465750       62.24528219518068
C           58.25856437502001       37.40855829324286       62.67065305375544
C           59.07168947414542       37.35686414244135       63.78740447677026
C           59.21309651265832       36.17440707305721       64.49333382575878
C           58.53174444749823       35.04474444617352       64.07372255533514
C           57.71052691624656       35.10315126808478       62.96153954348969
C           55.53888490917575       37.38017809534995       61.23623560109567
C           54.75795710695907       37.25117337206660       62.54771922087934
C           54.03747713613929       35.93050202560714       62.64752444993774
C           53.09700507351840       35.55305017160696       61.69594097212873
C           52.40317524803280       34.36372493011135       61.81332976930982
C           52.64087020451140       33.52352241986110       62.88716788154194
C           53.57987771521140       33.88325943831527       63.83826527633016
C           54.26864581650179       35.07802093091294       63.71867927673775
C           53.72045986581750       38.37760136204785       62.70385112151854
C           54.29125789061281       39.79889584287521       62.60607145196116
C           55.44463846017808       40.04194610313979       63.54426647073620
C           56.64751673074827       40.54450002879695       63.06580701678463
C           57.69924735315214       40.82492637556417       63.91898103375277