3258
 energy: -3427.654293552302 gnorm: 0.000811489246 xtb: 6.6.1 (8d0f1dd)
C          118.26031692589720      112.89082540321128       99.62612436972604
C          118.62934666405418      113.27262410898713      101.05244109017701
C          117.49091028441514      113.02192922250089      102.03385067835889
C          117.83291046294947      113.49383098035564      103.44378766285141
C          116.67721822989671      113.27491780891826      104.41396068540658
C          116.99192225139666      113.76931657280566      105.82218093393614
C          115.83564656618083      113.51828284201135      106.78502571479694
C          116.10721424249564      114.07357335458163      108.17916603363850
C          114.96340793875333      113.78450217263763      109.14513121914186
C          115.23003744117018      114.33946462703575      110.54071322591031
C          114.06750673235707      114.06863142331677      111.48947657665596
C          114.28466516472942      114.68593476417873      112.86660865556971
C          113.11142898132294      114.41426610974713      113.80300753407873
C          113.35320412204848      114.96572384365371      115.20429005989004
C          112.16131059155504      114.73438781249307      116.12979461968675
C          112.44072979933593      115.14545387261137      117.57520025768314
C          112.44216483606868      116.66259867581371      117.76494208525058
C          113.19538406324200      117.13505544007883      119.00886906625183
C          114.68355648343621      116.77586941896988      119.03509515247038
C          115.45257149495359      117.20811628108173      117.78899306509909
C          116.92767920922279      116.83352493813445      117.89087133965674
C          117.75088634309020      117.23393780351977      116.66772386599368
C          117.42501987011222      116.44690757046396      115.39945323174614
C          118.46370438316660      116.71475592106056      114.31222920672792
C          118.16923460407835      115.98328766794820      113.00545245202007
C          119.25013605270297      116.23923064734298      111.95746777694052
C          118.97845846034427      115.50622097108504      110.64712648616904
C          120.07694035378694      115.74227108811311      109.61314562239227
C          119.77215010726181      115.03510930126522      108.29514361260473
C          120.84679336910682      115.22985937379475      107.22457666851329
C          120.93926459692088      116.65329871853176      106.67394754828992
C          119.73026718827794      117.04771308612511      105.82896029149963
C          119.80854500429439      118.49920414271655      105.36555385121173
C          118.58422259718995      118.95247617910701      104.56913024885230
C          117.27790447022788      118.91984393023216      105.37835676416300
C          116.27283515410957      117.88939707170127      104.86544760413675
C          115.04108419226868      117.80719366025755      105.76389207387962
C          113.94469701328848      116.91159133117250      105.19316785921713
C          112.74634710837745      116.81830462515904      106.13463703372963
C          111.58274197785997      116.02589327942819      105.54403923348465
C          110.41129451425765      115.93062375050107      106.51835928129816
C          109.22334835290145      115.16257023588591      105.94562979664560
C          108.07367276594371      115.06456626982114      106.94569461355459
C          106.87490060586934      114.30064694621812      106.38980056764792
C          105.72907414091063      114.20533251564007      107.39532403977441
C          104.53713878094987      113.43859669884968      106.82990629063508
C          103.39937289401027      113.27233620903675      107.83468266650692
C          102.26042835831667      112.42756320997037      107.26635265843142
C          101.13709219589491      112.19007272953777      108.27317964955958
C          100.06277414644494      111.25854247995319      107.71262384666254
C           99.03018509894494      110.82772861885063      108.75551792577080
C           97.99275215139764      111.90010643629098      109.07733885122678
C           97.07292077258526      111.49373044679285      110.23141229477022
C           97.72329702792963      111.62537045952766      111.60878985931059
C           97.79720973754949      113.07587131241002      112.07867014531995
C           98.61178043981883      113.25749391996790      113.35848878119440
C          100.11507649165161      113.03171779629075      113.19302035146829
C          100.81854788256173      114.09868039666348      112.35541110030324
C          102.32342084570627      113.84840971381624      112.30523136508754
C          103.10589115731835      114.94514312499238      111.58870205662781
C          104.60496068599643      114.65674156426476      111.61518531868099
C          105.44458744118319      115.77802779226376      111.01110702431180
C          106.93722248223625      115.46514015635164      111.07766674397746
C          107.80323290230326      116.60342245639748      110.54729637313064
C          109.29149213555417      116.27401064505074      110.62318358246442
C          110.16865985531771      117.42704198442269      110.14479500250445
C          111.65632395850339      117.09399370448301      110.21889884865494
C          112.53237035092421      118.26399628264726      109.78016269898968
C          114.01866317632923      117.92574713977932      109.84410415992173
C          114.90274465962062      119.10566209151050      109.45222146411857
C          116.38969742043975      118.76724195797188      109.52432605817323
C          117.26313344671684      119.96816362182230      109.17315072276133
C          118.75373521226049      119.65095196303942      109.25528667746123
C          119.61086488498282      120.87637955765510      108.95058687171876
C          121.10267924636518      120.62622824923062      109.16208624781919
C          121.90972706704768      121.91822294993428      109.04530332213992
C          123.34264969317512      121.79190467868052      109.56217906596827
C          124.25581827311649      120.90908600936339      108.71271870727209
C          124.53276438556549      121.49092784206093      107.32754054899908
C          125.72066584804750      120.82802419826912      106.63076810486056
C          125.47748272771477      119.35859073010728      106.29684821989983
C          126.65653630801576      118.75513975484114      105.53796564243017
C          126.50892983576117      117.25562649154423      105.28203025239002
C          125.32003062720197      116.91547942924284      104.38633068360572
C          125.34832364573644      115.46306854331569      103.91793089288950
C          124.29648132318988      115.16138521505522      102.85119925698903
C          122.86714342438736      115.16507916326813      103.38514340848040
C          121.84653273562346      114.71847898941866      102.33757084982118
C          121.53343808677592      115.75815212378809      101.26001871851329
C          120.76990967432673      116.96280024605825      101.80900910571582
C          120.11181070915349      117.81800855154000      100.72402755064549
C          118.85752529390541      117.19777188787076      100.10311325670138
C          117.66743251037902      117.14021866922997      101.05886267638543
C          116.43429292278887      116.52435544674059      100.40323760716971
C          115.26508460150218      116.39538899985382      101.37610405536120
C          114.05240919780478      115.72372515269043      100.73712845807101
C          112.88944785587576      115.57492024305867      101.71402985266387
C          111.67909689577846      114.90171221572650      101.07384586984298
C          110.51824964559657      114.75130625975567      102.05244716133289
C          109.32385416025831      114.03318299467716      101.43082520560678
C          108.14596399486685      113.93618651055702      102.39526861727775
C          106.96610086540021      113.17902813211090      101.79442953409016
C          105.77017382192103      113.13666406122631      102.74095963415199
C          104.66929679595279      112.20625088286275      102.24107280875069
C          103.45325052291398      112.18448745650846      103.17337882283249
C          102.80225230222345      110.80612363921591      103.29202570403091
C          103.65145723109458      109.84014855784444      104.11392941019596
C          102.95173483003884      108.50628004987782      104.35347291601452
C          103.79649874749703      107.53663615303725      105.18097178314410
C          103.94982438696205      107.93776194757089      106.64834351812033
C          102.69565244768201      107.69964708217393      107.48322075175800
C          102.84916297571380      108.24342419731585      108.90115147674844
C          101.60471467187129      107.99182554015761      109.74446939247333
C          101.72568018954772      108.54075283771743      111.16358839294973
C          100.43001544339158      108.33853442265779      111.94362570595270
C          100.54844205461463      108.69263566810532      113.42275517593592
C           99.21027913390169      108.48794644137145      114.12862702036490
C           99.28656237954127      108.54408226592402      115.65087770149952
C           99.66895484627925      109.91379339259727      116.20131289172700
C           99.62454619878520      109.91311031620276      117.72231069917463
H          100.67157212913405      110.18407522101197      115.86771948973787
H           98.97422015013957      110.66391637929621      115.81363153301703
H           98.30730471666396      108.26996867621918      116.05574066068675
H          100.00343801234555      107.79908942333516      116.00625637838742
H           98.50087900313859      109.24128148855422      113.77655679226204
H           98.81610020307791      107.50877111567515      113.84395002486794
H          101.30618859477393      108.05613503308570      113.88635932779260
H          100.87741099410376      109.72789341690300      113.53118472270567
H           99.63598475560248      108.93858863889581      111.49176011310065
H          100.12344409250191      107.29306272815234      111.85977887805362
H          102.54554046316363      108.03621971789535      111.68070823000910
H          101.97154356499965      109.60522137096113      111.12827973111138
H          100.74055079249908      108.44565663875591      109.25460435295307
H          101.41857935930399      106.91543206490452      109.79601087883987
H          103.71244103755144      107.77440934216523      109.37867294020513
H          103.04248216144980      109.31762942184844      108.85545938318424
H          101.83476297065226      108.17788573651919      107.01082275841406
H          102.48751754707111      106.62640046311077      107.52584587284259
H          104.76892706535503      107.36312572465135      107.08538508950525
H          104.22442364221421      108.99066100276890      106.71231404765568
H          103.34515051449057      106.54139850528844      105.13425857762464
H          104.78771406133882      107.46746345559069      104.72533041241900
H          101.99507064873558      108.68081023055638      104.85040677926673
H          102.73337645432254      108.04608856484278      103.38605308975369
H          104.60226448363606      109.65406684634458      103.61088697939280
H          103.87314925018758      110.31419722255353      105.07184831935707
H          101.83085749200190      110.91497163796467      103.78172197030580
H          102.62073812259554      110.39391468319357      102.29594672760217
H          103.75701777925291      112.50282273895746      104.17269463669680
H          102.71148728876750      112.90392279649693      102.81732475753329
H          104.36167093629855      112.51529450449962      101.23995098106383
H          105.08278683286173      111.20052205492094      102.15499208074687
H          106.10304463501980      112.79578761846460      103.72443331788604
H          105.36907528121419      114.14634958065092      102.86321348514446
H          106.66881846343792      113.64992620566039      100.85372526956451
H          107.28142672657269      112.15720313016868      101.56762259323754
H          108.46513299324097      113.43267677454088      103.31073524552207
H          107.82488855901168      114.94338653592987      102.67392754356483
H          109.00572202020058      114.57010980024567      100.53344318740886
H          109.62360457411039      113.02755688946061      101.12337285708492
H          110.85498624860804      114.19926858629927      102.93271301281686
H          110.20435855066690      115.74142526024521      102.39362453270587
H          111.35035464983672      115.49473124299558      100.21642481307957
H          111.96984103116401      113.91589369718068      100.70287031678365
H          113.21274170795502      114.98946635381920      102.57782988945620
H          112.59964066340598      116.56236488014902      102.08281399912219
H          113.72595991915756      116.31425230647216       99.87716672487385
H          114.33905537762750      114.73505687724712      100.36725206525257
H          115.58228696631423      115.81651719171715      102.24690019296200
H          114.98064391961834      117.38819844095960      101.73412904782296
H          116.13190635104858      117.13604841953570       99.54959570372253
H          116.69207972646889      115.53331933988473      100.02353811447139
H          117.92380330155731      116.54514676307278      101.93729995630933
H          117.43247127412906      118.15066552290919      101.40388465822411
H          118.57403891856097      117.79164382800136       99.23064231506390
H          119.08177975731741      116.19018693698922       99.74703738776550
H          119.84242836864266      118.78560722548801      101.15664717649661
H          120.84390928740243      118.00591871380406       99.93318201132213
H          120.00641381864244      116.61369194737600      102.50560307312232
H          121.45544020637347      117.59689624215278      102.37385086330164
H          122.45452253522551      116.09596069903182      100.77990842918845
H          120.93228696804346      115.27109361932381      100.48970444294309
H          122.21752743262019      113.81080813829621      101.85566270142921
H          120.91312109078277      114.46080565628552      102.84450248897870
H          122.81555096995096      114.48101928312396      104.23645875123736
H          122.60521883526224      116.15915057406258      103.74748471059453
H          124.39904055011831      115.88744803927521      102.04321828390378
H          124.50153023693025      114.17464676504808      102.42688150057933
H          126.33767568432332      115.24995790528253      103.50330612796520
H          125.20503176789809      114.79714615200973      104.77362100041188
H          124.39161672775229      117.10746513247079      104.92521159603089
H          125.34083323209957      117.56769965193367      103.51143575155379
H          127.42565072180712      116.89399666229436      104.80687471353768
H          126.41049308524246      116.73590991589053      106.23748729368897
H          126.77645313401466      119.27425474135728      104.58264716513449
H          127.57046766003815      118.92400512187113      106.11475718186355
H          125.32109929992541      118.79249033195846      107.21648006858712
H          124.57176143589166      119.28068865622778      105.69341411526753
H          125.93383929352262      121.36912597337196      105.70391304682612
H          126.60617229622714      120.91440795186220      107.26671750395028
H          123.64776494923177      121.38124165898871      106.69897880728197
H          124.74163718506452      122.55999401802974      107.42758984072418
H          125.20733697743897      120.79652873868389      109.24059782143748
H          123.81132345265735      119.91947360302488      108.61548579560431
H          123.78214302947656      122.79179984902004      109.62372537822624
H          123.30864329436720      121.38652234240050      110.57722855137126
H          121.91478333770654      122.25832621544559      108.00868161136316
H          121.41266214171927      122.69095802473589      109.63687539528986
H          121.25432773777827      120.20302248062606      110.15827210837494
H          121.45842244757826      119.89495472965918      108.43329456608367
H          119.43638950083377      121.19934424195978      107.92041500619679
H          119.29579682490291      121.69346270298981      109.60429420608178
H          118.98720840686998      119.29454819651478      110.26183607453883
H          118.99564902266034      118.84768411806394      108.55560159260267
H          117.02084256685897      120.31176916950805      108.16388917674107
H          117.03516680184983      120.78734080928687      109.86002965701005
H          116.63691698555402      118.42665864770242      110.53296346652176
H          116.60941834439518      117.94587254333003      108.83714946392757
H          114.65561206359578      119.42060226943039      108.43513211977580
H          114.69492944473933      119.94814028526501      110.11739356929863
H          114.27106340952032      117.61084384631290      110.85959731205966
H          114.22164958957519      117.08682652306598      109.17488663941222
H          112.27197247361364      118.54538318346724      108.75689375148848
H          112.32932687505409      119.12594635232244      110.42187719162456
H          111.91585471211133      116.81646471995249      111.24343971952882
H          111.86349164775471      116.23261429980403      109.57912525928641
H          109.90734034822377      117.67353630477628      109.11303866251127
H          109.96693277823016      118.31098886061335      110.75680184611424
H          109.55190753060137      116.02894296492580      111.65578500943172
H          109.49279860357633      115.39291571759831      110.01047000102007
H          107.53139516912026      116.81233643531392      109.51038431217886
H          107.60321336210133      117.50737328792096      111.12990093358412
H          107.21525129397160      115.26112397509122      112.11463772423532
H          107.13870875880249      114.56312810487452      110.49457317417230
H          105.15050106615999      115.93507371999947      109.97140249343701
H          105.24684462744230      116.70721666845216      111.55315497032521
H          104.91546875607058      114.50220267406783      112.65186935891174
H          104.79829019132549      113.73088750521350      111.06909965900977
H          102.76473181731618      115.02922886014355      110.55456044060810
H          102.91203339305825      115.90414901114849      112.07719231318937
H          102.70148918284593      113.76147017983526      113.32692870565025
H          102.50681003601909      112.89659567883263      111.80012332226379
H          100.42153723069914      114.10612100113357      111.33872424318048
H          100.62607947716845      115.08302779248528      112.79091682212764
H          100.56675218917952      113.02269865303292      114.18827827346664
H          100.29449711417558      112.05114531572077      112.74838134059192
H           98.45003510431600      114.27169250538779      113.73366247602115
H           98.23363613283408      112.56733924742812      114.11830477675028
H           98.22254501774793      113.69945905502060      111.29268545830703
H           96.77875137241286      113.43267438959647      112.25744553427091
H           97.14126287219834      111.05111299384413      112.33514549821717
H           98.72416412902653      111.19575760414176      111.57799555215190
H           96.17345808137627      112.11395467470534      110.21585835995296
H           96.75699981590147      110.45833472623973      110.07663842114096
H           98.49498348415035      112.83638664723514      109.32304250489315
H           97.38634608098359      112.07717467414983      108.18594226199991
H           98.50158195586579      109.94171424657782      108.39101328584020
H           99.55762175255813      110.54196557487656      109.66717415570244
H           99.55745690026076      111.74258137792030      106.87277073566702
H          100.55796455456660      110.36380446719988      107.32495485317844
H          101.55772920840947      111.74248741519771      109.17779551847455
H          100.69422033568857      113.14773833142139      108.55559645098440
H          101.85385260597127      112.91796973133671      106.37806772724326
H          102.65946708342300      111.45916608056567      106.95143964682183
H          103.78460037844306      112.79685199562218      108.74063716263984
H          103.01813474831903      114.25626285734721      108.12085286245517
H          104.16192472115812      113.96087198373058      105.94610186676810
H          104.87636321491151      112.44901814276859      106.51138528771868
H          106.08137130964879      113.70527329066975      108.30064186505392
H          105.41185516303672      115.21203592733737      107.68040745291172
H          106.51933651909685      114.79596472777891      105.48296594610103
H          107.18955434025838      113.29182891168399      106.10985376242945
H          108.42794629859182      114.56913518770673      107.85333020460237
H          107.75834090106019      116.07260419557743      107.22878765309177
H          108.87290669451171      115.65666672500599      105.03658477839456
H          109.54728722615693      114.15715946936426      105.66577460470852
H          110.74491870430738      115.43818560829826      107.43484804018473
H          110.08890399471017      116.93973492217353      106.79032727681512
H          111.24912947914730      116.50497891086643      104.62081768996961
H          111.92112661677731      115.02036108386100      105.28408434295193
H          113.06204523067088      116.35151617331795      107.07114863410301
H          112.40330177062195      117.82850534471227      106.37581525707397
H          113.61902111581463      117.30924076200695      104.22937055450684
H          114.34872803937677      115.91227871876454      105.01452842875834
H          115.33700102796900      117.43016217036562      106.74564418386113
H          114.63782596801811      118.81323896920411      105.91051230924616
H          115.96606412043160      118.16039266629363      103.85256783568512
H          116.74741268954395      116.90722025713450      104.80994088341468
H          117.50193655929644      118.70618304748459      106.42431904393955
H          116.80395206011231      119.90325119222835      105.35426790475488
H          118.77272124669574      119.96969085812802      104.21620884741154
H          118.48336639528144      118.32127073464893      103.68518466822562
H          119.92539112955780      119.14873720330502      106.23761413759823
H          120.69766731143048      118.62581883690908      104.74137710892788
H          119.67038418452017      116.38922920141111      104.95892398918627
H          118.82142723885856      116.90809334467143      106.41403992669143
H          121.05189615162328      117.35948254426181      107.49946122031398
H          121.84083324650328      116.73141228174597      106.06018755764035
H          121.81643707555156      114.95035326813388      107.64345339404051
H          120.64018353301384      114.55214431699621      106.39132143662290
H          119.66983097425829      113.96357178828667      108.49094795739258
H          118.81008227157810      115.38175687314009      107.91727777326412
H          120.17397913047708      116.81642378052790      109.44577886085992
H          121.03245413751689      115.38393452130529      110.00446193029767
H          118.89002062225886      114.43448701259328      110.84568741620436
H          118.02262046835936      115.84288247867906      110.23981602740106
H          119.31385518247322      117.31347723234094      111.76121077341433
H          120.21925707276296      115.92441772521387      112.35390917439790
H          118.10051430528493      114.90994976243225      113.20006677770823
H          117.20088720652375      116.30528819761346      112.61391586612550
H          118.50970350544701      117.79041400628384      114.12204181107694
H          119.44917995472282      116.41051035775887      114.67624101162815
H          117.40821376145669      115.37869514819182      115.62883221590930
H          116.43518809799809      116.72171142221681      115.02985242458084
H          117.61440897282638      118.30140438505730      116.47403374434559
H          118.80708457915485      117.07935132206698      116.90168260491433
H          117.35329513526375      117.32038342026897      118.77259697154533
H          117.01067231913247      115.75408074554427      118.04024595339057
H          115.02909751490959      116.72186256747450      116.91203093450713
H          115.35688938925880      118.29005414365646      117.65809631932905
H          115.13250757519528      117.25110940917476      119.91168312009630
H          114.80020250283323      115.69762972240194      119.16610014283592
H          113.09495199683067      118.22296922783178      119.07560241014102
H          112.72346488152172      116.70837035279273      119.89771252055500
H          112.87968899190068      117.14097524768175      116.88911249401734
H          111.40801662907310      117.01225969802275      117.83520932883501
H          111.68652927791616      114.70471459816008      118.23179370577206
H          113.40644770983496      114.73101797686896      117.86701441925456
H          111.29680947234452      115.28668301118530      115.75455856129022
H          111.91029201234365      113.67260204958518      116.10608914836899
H          114.23797418308278      114.48308193521500      115.62979073404138
H          113.56696941788293      116.03470448481205      115.13043450840789
H          112.20702999185191      114.86373933205338      113.38475779597152
H          112.94000518697744      113.33734677779606      113.86360922278199
H          115.20260069962686      114.28747642206646      113.30712906181287
H          114.42112035694093      115.76613114726864      112.75916814386626
H          113.14988956383704      114.47383682135835      111.05796772866512
H          113.92865728244017      112.98976956584089      111.59539218236441
H          116.14331712092441      113.89533880439105      110.94359613186322
H          115.39686668549271      115.41672451339485      110.47387858085996
H          114.04098223655295      114.22102255281280      108.75385117529159
H          114.80700449931294      112.70437582120482      109.20829420755734
H          117.02914582237223      113.63928146661560      108.57159769480049
H          116.25569986268395      115.15519884636200      108.11275733098491
H          114.92730139267923      113.97659894563424      106.38710770143254
H          115.65142577089672      112.44293535570515      106.85425029907205
H          117.88901843442626      113.26768203195222      106.19287437940010
H          117.20709097947454      114.84039675733662      105.78763554891961
H          115.79172947628925      113.79452670252057      104.03829551914805
H          116.43602286956455      112.20988762365877      104.45017997785220
H          118.71516932834699      112.95802939475858      103.80414861372148
H          118.08334803869103      114.55874160967161      103.41830454339865
H          116.59750537737744      113.54532590342254      101.68724798991599
H          117.25835113047131      111.95533937673041      102.05596668306244
H          119.50917608141015      112.70438842831069      101.36484742742142
H          118.89459411483864      114.32969133086715      101.08483188038390
H          117.41239822167148      113.47616942207075       99.27574168705621
H          119.09791913767833      113.07247046489370       98.95545556794424
H          117.99228337125986      111.83980737104970       99.56442595382239
H          100.35730414921824      109.21379213633084      118.12036371828110
H           99.83100594397789      110.90295141937257      118.12103728715165
H           98.64121188639554      109.60038851548293      118.06791893694816
C          100.98324354913669      105.10682053491226      124.75734654629835
C          101.55101205626157      106.43222772514831      124.26690532783438
C          100.47954603386381      107.32473198440491      123.64526360575363
C          101.05391427725351      108.66362006515484      123.18941152529219
C          100.00447625388429      109.54479115969666      122.51686667615772
C          100.51272004910747      110.94269321653279      122.15950455517773
C          101.56997076731759      110.93947104514514      121.05781023840017
C          101.97333133848092      112.35470750846946      120.64857867355748
C          103.13105625582266      112.39788862827356      119.64920198725223
C          102.78595772799277      111.79806770793242      118.28831123558469
C          103.93191188517353      111.93638214922217      117.28968470929220
C          103.57577426523521      111.36193525846900      115.91988191100700
C          104.74817300513158      111.43521815277316      114.94589984675316
C          104.42629814533737      110.83319808180889      113.58022545266694
C          105.60075533285564      110.97773095729580      112.61600089362447
C          105.29171365428212      110.46438974890273      111.21225098958509
C          106.46195693488531      110.69523502512239      110.25894027805093
C          106.18477732136317      110.18727023089885      108.84702333271520
C          107.36846809840331      110.41806698604593      107.91110682746154
C          107.08435481463044      109.95441162897939      106.48512215641568
C          108.28828748429692      110.13491024213116      105.56622897282294