3536
 energy: -3716.263841176150 gnorm: 0.000721335733 xtb: 6.6.1 (8d0f1dd)
C           64.39621112781815       64.74536869356066       49.60497174911277
C           62.89860798000314       64.52686901170070       49.81186754523713
C           62.39943664767303       63.45161266845963       48.85076691149821
C           62.14485319193847       65.84809237497311       49.61301012199908
C           60.67344674923712       65.83283784221886       50.06425687576994
C           59.79634406300178       66.53406644555322       49.02605735887470
C           60.46936595593795       66.51529217365933       51.42308744944162
C           61.18737000276600       65.87361664973004       52.61471885542246
C           60.63564284384547       64.47847566586837       52.90687436572345
C           61.02366367303768       66.73364976023421       53.87700323654819
C           61.76358788832000       68.07592177777599       53.89270131272632
C           63.27825700557739       67.86645186220331       53.90515041906848
C           61.36407207978119       68.89642174886427       55.12978211672662
C           59.93863000037783       69.46667662645100       55.13601731766965
C           59.75332445645449       70.51115700210856       54.03737202845435
C           59.63996588330528       70.07279807836738       56.51612637975677
C           58.14775317452149       70.26783346330714       56.81982457457484
C           57.99444575371427       71.11775413605018       58.08139088030418
C           57.41771266284773       68.91779059285405       56.96457126207319
C           56.26156460171629       68.73447902964459       55.97164585287549
C           55.03424886060019       69.51769261849756       56.43336570826372
C           55.90708287199587       67.25117710379268       55.79626709944092
C           56.87937261598943       66.48775711785849       54.88905660517172
C           56.60700222252233       66.81647962891986       53.42108266808906
C           56.78573179299606       64.96935808200213       55.08388160172429
C           57.31421086873556       64.42314805806545       56.41501947724351
C           58.82894990523247       64.58691916203156       56.51832755330340
C           56.94827511791190       62.93665697399166       56.55218834353624
C           55.48581759055375       62.68462652930019       56.93805757016045
C           55.29008766778125       62.93132220311845       58.43190237406702
C           55.03810865832031       61.25398067717668       56.61326616808280
C           54.86068036007705       60.92989915195934       55.12663522792066
C           53.64627035405846       61.65443166035185       54.54827931689911
C           54.69607204791944       59.41920256175226       54.89994491902274
C           55.84047744891452       58.54120167233145       55.41877345863693
C           57.19706292338610       59.05683560744902       54.94311744737632
C           55.69384322041579       57.08997738048681       54.94763275148280
C           54.41524266896339       56.34557479669446       55.35147959848623
C           54.11347519757263       56.48651182669708       56.84252002779962
C           54.55309243072545       54.85292730880437       55.01198943295761
C           54.69550621284547       54.53629387703999       53.51896894537209
C           53.34716221938367       54.65857822918660       52.81420582056143
C           55.28121974469587       53.13346775357407       53.30381400388651
C           56.80212503912291       53.03514943562066       53.49727082031648
C           57.54635959105144       53.67448751889112       52.32780159061984
C           57.18923678860542       51.55819072944254       53.65876191774652
C           58.68539179480410       51.25265189975367       53.83204512620055
C           58.87703255242275       49.73728563634368       53.86102951411511
C           59.23207733144377       51.89655085525639       55.10872432586286
C           60.75357405164750       51.84755862653246       55.31462078117017
C           61.05044378544476       52.38103231937222       56.71410102921293
C           61.47486449590941       52.65798874415680       54.22871844009165
C           62.97067949230595       52.94026409630804       54.43996388695226
C           63.43037361108175       53.94296634477664       53.38157597940874
C           63.79754771863085       51.65218004726176       54.37110817464006
C           65.24670648292503       51.76439939005182       54.87155809252970
C           66.04149441420242       50.56428269464141       54.35692377427987
C           65.29018485057337       51.81345547792532       56.40267385223304
C           66.64927460889498       52.20318002444864       57.00620613918132
C           66.77020259292995       51.59116725966830       58.39948403093599
C           66.80022591367040       53.72873327348780       57.04494136302285
C           68.19691479342065       54.25166251743899       57.41042651919189
C           68.10573973875321       55.73641549640515       57.76493717312199
C           69.19172211660802       54.04426139743134       56.26248076669840
C           70.66791880601048       54.06671547245564       56.68937902188696
C           71.54101725557312       54.40408759385897       55.48130386923545
C           71.05637289847282       52.71514792665374       57.29917378432337
C           72.46532484188711       52.60844132975759       57.89799851578783
C           72.72601367532567       51.14526201002433       58.26559821895783
C           72.66574338327288       53.49768923413250       59.13902330608867
C           73.34698029553969       54.84953479499577       58.88993293888235
C           74.79242871119283       54.66473992652725       58.42603382567709
C           73.35566304573794       55.70751853899737       60.16432649161676
C           71.96510359937967       56.11555831209670       60.69415467133454
C           71.88166388085000       57.63366570480701       60.84293597506663
C           71.68756678308856       55.41946308907083       62.03302110059636
C           70.25679408456404       55.52982248411286       62.58126285162984
C           70.25022118101363       55.02120547084773       64.02211587605794
C           69.28600737686092       54.73569747504459       61.69908750077130
C           67.83975461672271       54.60821244886580       62.19921423900358
C           67.09639154014145       53.65242645989294       61.26683784736774
C           67.13387488775876       55.96739588008478       62.26736764956887
C           65.75869039880526       55.92033442796868       62.94654889229859
C           64.94245865656882       57.16268511176198       62.59485450260200
C           65.87694920258384       55.78435536654094       64.47178007663449
C           64.75776397155315       54.92944836981165       65.08386741420732
C           64.50359656309857       55.33720544425685       66.53097042186077
C           65.13368726210622       53.44751366870591       64.98149999886729
C           63.98417587415874       52.47191828076369       65.21377696425850
C           64.43757314707659       51.03562139770878       64.97930896088626
H           64.59090566218026       65.11905845729892       48.60087455900504
H           64.78598058620487       65.46897056685805       50.31847789422852
H           64.93953518190075       63.81253411366652       49.73419348653166
H           64.76222286819007       50.90328686314029       63.94957593998161
H           65.27361141155589       50.78841387997184       65.63077073468624
H           63.62973823942570       50.33529888481684       65.17910444879342
H           65.53940443241166       53.25661873979123       63.98549423584340
H           65.92637557677838       53.23915132619964       65.70475883895983
H           66.83491588919088       55.33649537341211       64.74191270749584
H           65.86078026091913       56.78111884154224       64.91581499827770
H           65.21198751129118       55.05691037817431       62.55919790465096
H           65.45119901839291       58.06671791078093       62.92479669536429
H           64.79239378824080       57.23467889334542       61.51982606105582
H           63.96773221672012       57.12735927201406       63.07775191059500
H           67.76094275542988       56.67939862522621       62.80797701018709
H           67.01804915922470       56.34520362401425       61.24807620523331
H           69.25963468087789       55.18965295669102       60.70605469084040
H           69.69129109304315       53.72511558606108       61.58858064636426
H           63.83575748566128       55.09909860829266       64.51447674972353
H           63.71684143611925       54.72957195704201       66.96812125991549
H           65.40356403307622       55.21253632942275       67.12751272007969
H           64.19589873313521       56.37897633844349       66.58880774569319
H           67.85244177876949       54.15904100187732       63.19616062115362
H           66.09603494854576       53.43330564635420       61.63097854935250
H           67.01335300192630       54.08069500742015       60.27116304960611
H           67.63186343113649       52.70841392481591       61.18972854684038
H           69.96456328520900       56.58358159866527       62.59051017125855
H           69.28738052789100       55.19222231635108       64.49473014718333
H           70.46414104303402       53.95472799277388       64.04768678533330
H           71.00615826111694       55.53818571981847       64.61046691264890
H           71.92950608931089       54.35806719248976       61.93567883865878
H           72.37534498586595       55.84119636543457       62.77192935149534
H           71.20958042162505       55.81028759294421       59.96490787702923
H           72.59542204980336       57.98375459989608       61.58660187445036
H           72.10565816516441       58.11967269603718       59.89629808703924
H           70.88642617264145       57.94168497220825       61.15320258916356
H           73.89888027837218       55.16394728167233       60.94116345659028
H           73.93253437135476       56.61021546310808       59.95104384750609
H           72.80322898911503       55.39406493046444       58.11193165499918
H           74.84959274156724       54.09269499955098       57.50370009293729
H           75.26095193774592       55.63089471101300       58.24919441875289
H           75.36861466863712       54.14025216781280       59.18609166146003
H           71.69326047016447       53.66723064708005       59.60258782062306
H           73.27805433200892       52.95653876540110       59.86528150107747
H           73.19035443554523       52.88485074055360       57.12913467642780
H           72.60390418124243       50.50091047149386       57.39714022407876
H           73.73912808400532       51.01776837334120       58.64109001082951
H           72.02881604048019       50.81743167175682       59.03411304136461
H           70.33653280385907       52.45865958009158       58.08028328179848
H           70.96443057468137       51.95641800490640       56.51590700343123
H           70.80238570329834       54.84806090580212       57.44232619954720
H           71.24310735911226       55.35843632531464       55.05139786020757
H           72.58970191721247       54.47674149952005       55.75676307276271
H           71.44079196558386       53.63839091325558       54.71415936676305
H           68.99516639364134       53.09113307552501       55.76744773640227
H           69.02219817630896       54.83067376830462       55.52426388771065
H           68.55618540138860       53.71611389335950       58.29385725980242
H           67.70386969882593       56.30189279295412       56.92639660262997
H           67.45540776469582       55.88928770223854       58.62447451808723
H           69.08534410599835       56.14199445246607       58.00857535730955
H           66.53059256431946       54.13717337387724       56.06778474904903
H           66.08251248906684       54.12073015399518       57.76998121811076
H           67.44843777643850       51.78275313124492       56.38884521740032
H           65.99107423506948       51.97729052732619       59.05308370885933
H           66.66811053176976       50.50946891048690       58.34266544948819
H           67.73664588837451       51.80972284952350       58.84561734035596
H           64.54321814423935       52.52000717281478       56.77018472114631
H           65.00889938236109       50.82591074093696       56.77264827522350
H           65.70176296424901       52.67546058566266       54.46932079567263
H           66.07080393833259       50.55779928579949       53.27091075604859
H           67.06721083405910       50.58124231819963       54.71717671482454
H           65.58125236252911       49.63795510159407       54.69424860969249
H           63.30488906301691       50.87315921664507       54.95587353392791
H           63.80913565518893       51.31662890652161       53.33143713092749
H           63.11187688672559       53.40893673712498       55.41734305565625
H           62.87253467553297       54.87247200909579       53.47100945881953
H           64.48713611460792       54.17296644581538       53.48955141834072
H           63.27029253128241       53.54463662473607       52.38085435910958
H           61.36270795238966       52.14097024519132       53.27331464179764
H           60.96535691187787       53.62119710904176       54.13721286777617
H           61.08686057410426       50.80628366083680       55.26684028760666
H           62.09912839136779       52.25318951799940       56.96789592911917
H           60.79887646295791       53.43712194423787       56.77843024414650
H           60.45720848322176       51.84768889539401       57.45349371540496
H           58.93737855121616       52.94740196439749       55.13109221565818
H           58.75489777757635       51.40598500649314       55.96216755046854
H           59.22515252342313       51.64430308115723       52.96649680702316
H           58.37339966660587       49.30530108693674       54.72393822383337
H           58.46199940621356       49.28355981229156       52.96215431285557
H           59.93117502218964       49.47776795684673       53.91270274534942
H           56.65390607548349       51.15301030585180       54.52270802850065
H           56.83236047992304       51.02008895734040       52.77527889238691
H           57.06507312711869       53.57612629532753       54.41134232925253
H           58.61672912126446       53.70151334802269       52.51294389563923
H           57.36728189352565       53.11553332622610       51.41123873280483
H           57.21706262476606       54.69840790714098       52.17304696954303
H           54.78970190170754       52.44512493568003       53.99581158158693
H           55.04530947122343       52.80126233702108       52.29004203428606
H           55.37580570936857       55.26063537484723       53.06746858476642
H           52.91138472561946       55.64008910696505       52.98583180166182
H           53.46405305403474       54.52218715612121       51.74302049223610
H           52.65627302116943       53.90410448088493       53.18038786594681
H           55.42328604892904       54.46778460440326       55.54862677540833
H           53.67685402960119       54.31900156568449       55.39151823626290
H           53.57109361981351       56.76151256824510       54.79126657048415
H           53.24404218228049       55.88856551795321       57.10773198332704
H           54.95677883773435       56.14564683907759       57.43733365225140
H           53.90105138547588       57.51822320988995       57.10934399812567
H           55.76849135930360       57.09320957915218       53.85813362173888
H           56.54853920157367       56.52537654432145       55.33058437962318
H           55.83744134424973       58.54700072474132       56.51237220686252
H           57.40821399184455       60.04098749031829       55.34833743028333
H           57.98778146451142       58.38627852705774       55.26674036809356
H           57.22189578203024       59.11910276783626       53.85709630601394
H           53.76139119916722       59.10309590276212       55.36821896535373
H           54.59445021739614       59.24494083912305       53.82496300361063
H           55.74085149888110       61.26676997924999       54.57194161616597
H           53.46576669265009       61.33598518898216       53.52392263169828
H           52.75520448294724       61.43594005488580       55.13401570621033
H           53.79896713980554       62.73097560869429       54.54161637803315
H           55.77143839624186       60.57537083605644       57.04877532088189
H           54.08489791841912       61.06626083759123       57.11542111120814
H           54.84843631966599       63.38310847405691       56.39420314678394
H           55.88666098535263       62.22990967646342       59.01298227509897
H           55.58932701043323       63.93952621808160       58.70541905570798
H           54.24534575936968       62.80314458480309       58.70425510958217
H           57.17591646753478       62.44944655861661       55.60222565552531
H           57.58760406130977       62.48115294066643       57.31297690791953
H           56.85823657405480       64.97618735577574       57.24179682196865
H           59.17932317173714       64.23563209408047       57.48583732310028
H           59.32759344927747       64.01224749481196       55.74097138570339
H           59.12301178308949       65.62857410247240       56.41735467322536
H           55.73990521052558       64.67876036908356       54.96381231464711
H           57.34883632686750       64.48796678555415       54.28062680063486
H           57.89969370790578       66.80586532665657       55.11989996604445
H           56.65324816215549       67.88874848050276       53.24285306377641
H           57.34340614652263       66.33698638831540       52.77843089310521
H           55.61950738084759       66.46174619969737       53.12987890155936
H           55.87532619527324       66.78958630037123       56.78485093401554
H           54.90537206323222       67.17190294814240       55.36588699291796
H           56.57203986687316       69.13568797477679       55.00091461233083
H           55.27360284683953       70.56990106205195       56.56839605299778
H           54.23128656362078       69.44774896273422       55.70206414584675
H           54.66755385497259       69.12457627191115       57.37932302908960
H           58.13547868190714       68.10808530651391       56.83051858156907
H           57.02341404021809       68.82002812495054       57.97798128528367
H           57.69657452233356       70.82599916496410       55.99286307866932
H           58.43817458202604       72.10174393775270       57.94016486141911
H           56.94446504782924       71.25169718561499       58.33217409341760
H           58.49241746766373       70.64148305158885       58.92355133931505
H           60.06113027517500       69.42894981049659       57.29274171484377
H           60.14866300306979       71.03791596081113       56.58800338318299
H           59.22966341472679       68.65573479674271       54.95409452503739
H           60.49912913688082       71.29889638597118       54.12896071743791
H           59.84606608258541       70.06293393583327       53.05135415948435
H           58.76829171405443       70.96738342129123       54.10173530885783
H           61.49098136849088       68.25981644234960       56.00957930543452
H           62.06053211044500       69.73332878349851       55.23397268204447
H           61.50996039030100       68.64768193347612       52.99604280701300
H           63.57372457709734       67.28331985824570       54.77516338701685
H           63.60993374376383       67.34173454398038       53.01302041160326
H           63.79628734564020       68.82296395333283       53.94153471754499
H           59.95641457804530       66.91501683882335       54.01263300679533
H           61.37110034710205       66.15424256574569       54.73625056753749
H           62.25125661996551       65.78104291803008       52.38298001149244
H           60.74882283722397       63.81940895394975       52.05032633569352
H           61.16568805329764       64.03269739745754       53.74639026909415
H           59.57876205657000       64.53844780170553       53.15924692007297
H           60.79757626041037       67.55284524058477       51.32561606224258
H           59.39774079268496       66.53598979451594       51.64073767673413
H           60.32991662126803       64.79798731510914       50.13687302598655
H           59.88416307510967       66.04618393087507       48.05819229329564
H           58.75115876161179       66.51179154062736       49.32632627594092
H           60.09513659115044       67.57525563484782       48.91491706356050
H           62.67265427090960       66.64162799937883       50.14787735028065
H           62.19307252856522       66.09952659567932       48.55023423284518
H           62.74379537031141       64.17407442781351       50.83573038703860
H           62.54156987412736       63.76828773347997       47.81896180803375
H           62.94623366590641       62.52365061602839       49.00069836494691
H           61.34320555203744       63.24714493451086       49.00466953120679
H           63.60608532912519       52.56750941810618       66.23337218334254
H           63.16186167449605       52.71158319792801       64.53480165441165
C           39.66563846666530       45.72170038952916       64.46441320668447
C           38.62030201652914       46.07364984869877       65.51900734485454
C           38.06873650993807       44.79175426790908       66.14223783812345
C           37.47453390443646       46.90061481523368       64.91945955486837
C           37.77992645274602       48.39139794212295       64.70293570488695
C           37.81229852753975       49.13164808782852       66.03761003902430
C           36.70971208375894       48.96922502884073       63.76388118774801
C           36.73547772853099       50.48527468451050       63.51505448556188
C           35.48877101291756       50.86366182056313       62.71340067187360
C           38.01071049639527       50.91231504282849       62.77987065927178
C           38.25921734612001       52.42823968089431       62.70741500651256
C           39.31766714438564       52.71305759716374       61.64315331696415
C           38.69154157335488       52.96119500573017       64.07923109429493
C           38.97739485851513       54.46711017471778       64.18403910838971
C           39.53861740569629       54.75182691090409       65.57746485232103
C           37.71553157517117       55.29554542257175       63.91909909138897
C           37.93347525627843       56.81167805572513       63.81704286354780
C           36.57391550005048       57.51028007457697       63.75846763606070
C           38.79080867272978       57.19407263118755       62.59477552574483
C           40.17997945660591       57.74101502180015       62.94615654446757
C           40.05817029785333       59.13785717485941       63.55553066637246
C           41.08162275893268       57.81655703836693       61.70614398138947
C           41.59011858131778       56.47695298142642       61.15995666202969
C           42.62240833289238       55.85665352415031       62.10032167526687
C           42.22730191900804       56.66607496188200       59.77523589470614
C           41.24941173169533       56.93906079718690       58.62794500421033
C           40.39994058605100       55.70335906146309       58.32575771021443
C           41.98509059735212       57.34960467160528       57.34392436862600
C           42.80790773404700       58.64484488170309       57.38956837935913
C           41.96701395050763       59.82473474400844       57.87683620833548
C           43.36861279552794       58.94544389096344       55.99095303748447
C           44.58400470019738       58.10386555056782       55.57336505123825
C           45.88453872442439       58.75934716379627       56.03385775634870
C           44.60729172359243       57.92816511994049       54.04838936327147
C           43.68872959680489       56.80203782696998       53.55234011696025
C           44.42545437976123       55.46692958919390       53.61828087205799
C           43.20830611758456       57.08993244059770       52.12532033263292
C           42.06434833550647       56.18372179851882       51.63396318688360
C           42.38337980157889       55.62369884625750       50.24808586698195
C           40.72495489046572       56.93137109180528       51.57664707742109
C           40.18599747435334       57.41937738544718       52.92843306289431
C           39.72883768722744       56.24221871004315       53.78660956907922
C           39.03947871075830       58.41119197423478       52.68288143967408
C           38.48204191808901       59.11356250670057       53.92685875367622
C           37.22788217158340       59.90301340123109       53.54541111122550
C           39.49702733200955       59.99230756608691       54.67681856160474
C           40.05206724138360       61.22477248672482       53.94223324995624
C           41.38466408537663       60.92181155266925       53.25806278502619
C           40.25975323799163       62.39373245034108       54.92088835887400
C           38.97356237222931       63.07759373616341       55.39620331654607
C           38.34327811818508       63.88997481558631       54.26325515560760
C           39.22688837677746       64.02525653369969       56.57926400353306
C           39.72229928216908       63.40862130145698       57.89605676920032
C           38.76571270521868       62.33514278867211       58.41305005730651
C           39.89421293132127       64.52149985182119       58.95298064605091
C           41.34001501880342       64.89132952742452       59.32291085597043
C           42.13903465754013       65.31763212525811       58.09326480877056
C           42.07022999278532       63.77391234185403       60.08186053974161
C           41.61969590709808       63.59850465258653       61.53910642031057
C           42.05978435194940       64.77147743468497       62.41331213319039
C           42.09136658452871       62.25287432811930       62.11729016399118
C           43.61256623318769       62.10153619798515       62.32573461573145
C           44.08445786149878       60.74901151621420       61.79592451796963
C           43.96142836662313       62.25375967591605       63.81228879173268
C           45.45221021968188       62.30849562231198       64.17528096810038
C           45.57977579244098       62.23880830848231       65.70008142861609
C           46.15570599638993       63.58516043458454       63.68381016189502
C           46.87153312235680       63.52779468268790       62.32748250879638
C           47.95439792924429       62.44983939378308       62.31306471940348
C           47.53667809514272       64.88068949272871       62.02795658204167
C           46.59235514721325       66.06135189473929       61.77623524786610
C           45.96546673336180       65.97200845560018       60.38438916379580
C           47.33050484253057       67.40194194854273       61.90721559491246
C           47.85694912221233       67.77512975372896       63.30299241035989
C           46.73773368446417       67.76636416688336       64.34155453823048
C           48.51955016678919       69.15795819213147       63.19836131977054
C           49.19101696694792       69.70544338305385       64.46638896976434
C           49.50947266523443       71.18622130429851       64.25659986340303
C           50.45879819411252       68.92540924131923       64.83397316931759
C           50.99800597812333       69.25100466841442       66.24111670238771
C           52.30034087550998       70.04845847002369       66.16745612514821
C           51.23912748585386       67.98237580380223       67.06964371753372
C           49.96780214145523       67.22418449402620       67.47043625310758
C           49.24366236401159       67.94120569352366       68.60917948742909
C           50.31553047457677       65.79190105039373       67.89889094510862
C           50.63321443552105       64.85090570010607       66.72904798778708
C           49.34126915356569       64.29104805591932       66.13631817967375
C           51.55357806029852       63.70575794497741       67.16683934530785
C           53.00280596769989       64.14224995479896       67.37063585724211
C           53.87910579171784       62.99710319631052       67.86082823646862
H           39.23046450182855       45.07087612880976       63.70766011459968
H           40.04334126314564       46.61508187424566       63.97484311466917
H           40.50640667391354       45.20130328593289       64.91813438300562
H           54.91603108182802       63.31385388400940       67.94229580719576
H           53.55044681410522       62.65420588838855       68.83854811706993
H           53.82820068811839       62.15782274668384       67.17166676794214
H           51.16651316461483       63.26961072625694       68.09019556198712
H           51.53303461404715       62.92507320852184       66.40369961518614
H           51.16611146876540       65.83986695809176       68.58097169540932
H           49.47772641931205       65.37084934749511       68.46034739343708
H           49.28929178832314       67.18021724375284       66.61295667450671
H           48.31467626199164       67.42986857979416       68.85429662291058
H           49.86720610431364       67.96391945866866       69.50126482536949
H           49.00150011434951       68.96597101083188       68.33748745518756
H           51.89436043538229       67.32223529891058       66.49757228364038
H           51.77527875997352       68.25417579417226       67.98319485733435
H           50.24277850421053       67.85887578618545       64.77132254659590
H           51.22716019712016       69.14035628865012       64.08886770358102
H           51.15069292313937       65.41501738701172       65.94527558557581
H           48.66731327529931       65.09542229098373       65.84785045807705
H           49.55114770416835       63.68683426111970       65.25549185305289