3864
 energy: -5104.055726951028 gnorm: 0.000854856987 xtb: 6.6.1 (8d0f1dd)
C           36.74266877827559       42.46964999915962       36.49655529503721
C           36.83482542202479       43.79591048020349       36.90373693491157
C           35.88734180109908       44.69837826932904       36.43901865021873
C           34.87220042423489       44.29227886079075       35.59103971350158
C           34.79173320038745       42.97005733561237       35.19129868388679
C           35.73160797046250       42.06117220894844       35.64641814412953
C           37.92736170914525       44.25251690390640       37.84004236845018
C           37.67818069015226       43.67587981816006       39.23463719264467
C           39.30312918868084       43.85516664295942       37.27779544601783
C           40.49563803124464       44.56956910173268       37.94093498515798
C           41.65421389970925       43.62395860058258       38.13047389273484
C           42.27987640866000       43.51996181978167       39.36503565561996
C           43.33708055453466       42.64811723943975       39.55328693818261
C           43.79376110682115       41.87585411068063       38.50108211747433
C           43.19850378358798       41.99652235899473       37.25661399274158
C           42.13382329332819       42.86002146509114       37.07327690341589
C           41.00540407381020       45.77590934640516       37.13309317772484
C           40.00108810450637       46.93032462906214       37.00689495493896
C           40.45808290309250       47.90497878023701       35.95026907077867
C           41.69786110529545       48.53035236922759       36.03005496227852
C           42.12065204881996       49.38927862697732       35.03206251224351
C           41.30935891785521       49.64175951372101       33.93891322333348
C           40.07061208827961       49.03269107248742       33.85235791230340
C           39.65111005834666       48.17304488264568       34.85187422004535
C           39.77546867468034       47.63287732176777       38.35156418855649
C           38.53457701688498       48.54925008193181       38.33165705151432
C           37.61040125028883       48.20996572247308       39.47560222906586
C           38.06283983556611       48.25409253471766       40.79123254526123
C           37.22690336671023       47.92282990363223       41.84259788971323
C           35.91760326671569       47.54180262035848       41.59630717325120
C           35.45190528562936       47.50316792459916       40.29405525939001
C           36.29319316666682       47.83479738514467       39.24511978881416
C           38.92174709985757       50.03301089576453       38.37938848174231
C           37.72451728381871       50.93492346391161       38.04118725790448
C           37.49574594473663       50.95996482091936       36.55126960296288
C           38.40851176214596       51.57423333210800       35.70210637941661
C           38.19293668355099       51.61489099116562       34.33856460411404
C           37.06353701410004       51.02490843265632       33.79746889374721
C           36.14930304767626       50.40589474884243       34.63065838893617
C           36.36239293965729       50.38121618268753       35.99786186192555
C           37.90342148679128       52.36049964283303       38.59525565620758
C           36.96664235107691       52.70803126882289       39.76865554955691
C           35.52481096232692       52.66484358343253       39.31705519072234
C           34.73116537078156       51.52499372751345       39.39587104021100
C           33.42304907991673       51.54012783037552       38.94145686928022
C           32.88173186874405       52.68919948920968       38.39469929884615
C           33.66082965917608       53.82952013424050       38.30974983526887
C           34.96298054413894       53.81559020587219       38.77398323383527
C           37.23335105311465       51.85409547417509       41.01051219216082
C           36.37391037603454       52.33773441924546       42.18969272485033
C           36.92745897820846       53.62789027696512       42.73935878961860
C           36.24370648133755       54.82445117079693       42.57287929744044
C           36.74611689688906       56.01166505246215       43.07889555361281
C           37.94669156577587       56.01685228209870       43.76532255965546
C           38.64517702477265       54.83309966168987       43.92820312593467
C           38.14435182113105       53.65453798360521       43.40924580116481
C           36.21903994631958       51.26439184932971       43.28409954378218
C           34.78978988120226       51.23341751158415       43.85171842761239
C           34.76181749831948       50.48267100265162       45.15953052001990
C           34.80250791133763       49.09556538462016       45.22028615103165
C           34.74499900486532       48.43884904708858       46.43669324170044
C           34.66685457804888       49.15813077873677       47.61694573624962
C           34.64234145572613       50.54129573871454       47.57215151175204
C           34.68604514840883       51.19212801158645       46.35226320480061
C           33.81712325091855       50.63279402717102       42.82892038166364
C           32.37300403164839       50.49978942619468       43.35513744745761
C           31.89789708641878       49.07662409880255       43.20324991622749
C           31.50214004407817       48.33691384566830       44.30899307514495
C           31.08394990128050       47.02477559255940       44.17179260881112
C           31.05572410403490       46.43174036363306       42.92244500802111
C           31.45450085576146       47.15739568347620       41.81247476439591
C           31.87213369746316       48.46761041970851       41.95329219538365
C           31.40817955987824       51.45972724053955       42.63808444376444
C           31.69470932513446       52.93902088628386       42.94797221806859
C           31.16039049354718       53.83949986844934       41.86255727794973
C           29.81346890065624       53.83805284721008       41.52023541897445
C           29.32982891371010       54.69602124000743       40.54954499706449
C           30.18327991217907       55.58000445285437       39.91091722162790
C           31.52708103666800       55.58690255242081       40.23766465125104
C           32.00818640741966       54.71492430903016       41.19713689720962
C           31.11190947929327       53.34714141710896       44.30980689561492
C           31.54975333031543       54.75292924997257       44.75596937459056
C           30.64343895012972       55.26340051536491       45.84716797351525
C           29.86441395293712       56.39279586999084       45.63121562595702
C           29.03440740672738       56.88374563420190       46.62336394715172
C           28.97012976474239       56.24834897065089       47.85104780690759
C           29.73931471153533       55.11948854996717       48.07626252746066
C           30.56885521722550       54.63090687389827       47.08313806885523
C           33.01328760257543       54.76075610337184       45.21651658504620
C           33.45966744473629       56.09987391027747       45.81370604879887
C           33.16183043634835       57.27859157756063       44.92121227671516
C           33.42939783151232       57.25794955938213       43.55810952280122
C           33.18392572297628       58.36561858889721       42.76686147106668
C           32.66386279204660       59.51847469584709       43.32929409269730
C           32.39460638516969       59.55355331210638       44.68646692268553
C           32.64369187236586       58.44376921742352       45.47426487399795
C           34.96683067710859       56.06600446569179       46.13627890405968
C           35.28285906693312       55.43814794154589       47.50402050596449
C           36.70951765949580       54.94906929135724       47.54805485963946
C           37.77300171420437       55.80439023045521       47.28554517706736
C           39.07615188006208       55.34371267153667       47.30702850110158
C           39.34261859198752       54.01625820546045       47.59007765829111
C           38.29501861283831       53.15775163329975       47.87076873970888
C           36.99210519358300       53.62264826225859       47.84799111822832
C           35.01371168902854       56.46207618358871       48.61489052262200
C           35.26330197888234       55.91840615467080       50.02564938986462
C           34.56154924142719       54.60036574273896       50.24560743486579
C           35.26725476252106       53.49571629450381       50.70550771313359
C           34.62979106830986       52.28470003075600       50.91452536832082
C           33.27287123928369       52.15963325471152       50.67126781940078
C           32.55967894280683       53.25500876514793       50.21559220684961
C           33.19802521263099       54.46386203716506       50.00595930025179
C           34.79690448256550       56.90512739674835       51.11016586001084
C           35.41659437231134       58.30877369957866       51.01931558930347
C           34.73329097130599       59.19345781048366       50.00426672006685
C           35.48017524885188       59.84925636501206       49.03265638344549
C           34.87697789491460       60.66578963818129       48.09430538501612
C           33.50694035250146       60.85092942147227       48.12000283547087
C           32.75212437619764       60.22646526560577       49.09750788390558
C           33.36101282096240       59.40941017990201       50.03337773783643
C           35.38046197884569       58.99519502374266       52.40018037564326
C           36.58376614915935       58.59490828441986       53.27260506559076
C           36.26810773771169       58.85123773815353       54.72492255963682
C           36.14081223860074       57.79891944643546       55.62189259120542
C           35.83530721352771       58.02886829978467       56.95133886750803
C           35.64439318931519       59.32151276719867       57.40520973810408
C           35.75934422417021       60.37915317446316       56.51983334777697
C           36.06661741508349       60.14483858494835       55.19262678234082
C           37.86173297378711       59.33254515495602       52.82771201711417
C           39.09964229438661       58.42788991267078       52.75793977125753
C           40.26847231474914       59.19638260113895       52.19170054523318
C           40.84244555983531       58.82087810245469       50.98394535877086
C           41.94054416818505       59.49610328976181       50.47865903664973
C           42.47098625461504       60.57416927862632       51.16598939045601
C           41.89596177848344       60.96879684997340       52.36285082233452
C           40.80770273376616       60.28352538664996       52.87094620568261
C           39.45642562630086       57.84338376954407       54.13088677920189
C           40.66991639606295       56.90817074347270       54.05045369998982
C           40.41451441550024       55.80625466547210       53.04989532630026
C           41.22632999486321       55.65217053525217       51.93271254656197
C           40.98716409170752       54.64698282400309       51.01024175620815
C           39.92983041498253       53.77512441757612       51.19692309632917
C           39.11969364303351       53.91271054567932       52.31068091035896
C           39.36196742968581       54.91589073993968       53.22944552517391
C           41.02833860326376       56.28361936152860       55.40939730349393
C           41.80520901851327       57.21362665557589       56.35445235335453
H           37.87332506798686       45.34153348495920       37.92487363285161
H           39.42612731938840       42.77659584800482       37.40067828458373
H           39.30972702995606       44.05771953722324       36.20396520128129
H           40.19462480052573       44.91604152864552       38.93363898391043
H           41.92324934800514       46.14032747933501       37.60243668393570
H           41.26550678114861       45.43673248993559       36.12806686160415
H           39.04973874435566       46.50959838154533       36.67003598809659
H           39.64337431628320       46.87507034403448       39.12506069934940
H           40.66642459838247       48.20699814396734       38.61233915270844
H           37.99614173619323       48.38611305668909       37.39193549950304
H           39.72668999941498       50.21502915243040       37.66353345892197
H           36.83833729652650       50.49443801986173       38.50153760188847
H           38.93534076205693       52.50170352488485       38.92610825173760
H           37.70946127477257       53.07915376357010       37.79571824133319
H           37.19100891479047       53.74800811720483       40.03892562133949
H           37.02071346871674       50.80501917664559       40.80690153776899
H           38.28944346231837       51.93078702070804       41.27278302660941
H           35.38126289092749       52.55225716339937       41.78360193455669
H           36.45575171381842       50.27884473033069       42.87888051122221
H           36.91668438454213       51.45640682986753       44.10095207621216
H           34.49731536227262       52.26751102281275       44.06495390850015
H           32.36400342354588       50.73991766395599       44.42262484948939
H           31.48720240157049       51.30486762202138       41.55949441768788
H           30.38463243650880       51.21584606424427       42.93187544595097
H           32.77838050150885       53.06930264346015       42.97932254032805
H           30.02137146416877       53.32618876798634       44.24733684879133
H           31.41324085541312       52.61856314066576       45.06487923887690
H           31.45109055002034       55.42685092926725       43.89821134621059
H           33.15272733173814       53.98618361728222       45.97361530731166
H           33.65863894979415       54.51330393896908       44.37230514455979
H           32.90698481176581       56.25427065751585       46.74591746701699
H           35.48911456569424       55.51200697308326       45.35293254021590
H           35.35527664300817       57.08591283942491       46.12362871198784
H           34.62466259977985       54.57701199940832       47.65807391660037
H           35.65806338181005       57.32564359194052       48.45331093565741
H           33.98315993723239       56.81202763841326       48.53698596619569
H           36.34176260561481       55.75605644997425       50.14395302251033
H           33.70967935965319       56.98422308692796       51.07183950914460
H           35.05407023676439       56.47078778436232       52.07988895402737
H           36.46537058716254       58.19928683814393       50.72247540752451
H           35.37478935995447       60.07864799326988       52.27004911619152
H           34.45365821076255       58.72517297082835       52.91152597209833
H           36.73985310561250       57.51905330982436       53.14083334757152
H           37.70632169269175       59.75765918787086       51.83273747524247
H           38.06456528341882       60.15953580877513       53.50984063214064
H           38.87516761153046       57.59688464568450       52.07792802834621
H           39.66474484107997       58.65365936602699       54.82772404127331
H           38.60268164911637       57.29286893913601       54.52407018825708
H           37.46554778530408       41.74268899823409       36.83691799128923
H           35.68128349861301       41.02709624689027       35.33870594501008
H           34.00137781099913       42.64992062079497       34.52839605858946
H           34.14370641713321       45.00935942262247       35.24066718446149
H           35.94514232550249       45.73319959061761       36.74712823710780
H           41.93781075175875       44.12709631299676       40.19037708215582
H           43.80163539250042       42.57875367638398       40.52547349305289
H           44.61207213000061       41.18793664124042       38.64772535772366
H           43.57031579651506       41.41774985757024       36.42206366062869
H           41.66514596418326       42.93828213114015       36.10316801590613
H           42.35325078457522       48.32810920037936       36.86539766556594
H           43.09281527173203       49.85355617005469       35.10009103372111
H           41.64983326435323       50.30441418449009       33.15730886680383
H           39.42994537490308       49.21809621931968       33.00332969216333
H           38.68463358403648       47.69562811452612       34.76870766971484
H           39.08248588434771       48.54958568327383       40.99591370374111
H           37.59640214845523       47.96435780505770       42.85823088035134
H           35.26567482974166       47.26409624039266       42.41190919267899
H           34.43078068051103       47.21028490735745       40.09761237309529
H           35.92107966570768       47.80026721950708       38.23025560904554
H           39.28892878984960       50.27459600970435       39.37830047587085
H           39.29401470144169       52.03437828276631       36.11693259487707
H           38.90518313152993       52.11117208546241       33.69583240235540
H           36.89370701318805       51.05339936944270       32.73105047007383
H           35.26254119832872       49.94685229150699       34.21673681645943
H           35.63126885429431       49.91733556918172       36.64608845533878
H           35.11530059205860       50.61317334736965       39.82986926176312
H           32.82328447780108       50.64348406198186       39.01415964908318
H           31.86034658172192       52.70020630677190       38.04485472464327
H           33.24992809525920       54.73041534052312       37.87911331358618
H           35.55990735437949       54.71510281992092       38.71843645267916
H           35.30649117607655       54.82173328996164       42.03111392106958
H           36.19561621926042       56.93222323961906       42.95377361972967
H           38.32830192907944       56.94237647297742       44.17123720022074
H           39.57599097795019       54.82241732273719       44.47467476138980
H           38.70353995103100       52.73881837090488       43.52577848482454
H           34.86563118527256       48.51168889741440       44.31575051359908
H           34.74840406145994       47.35919475503182       46.45596869248597
H           34.62011731014327       48.64340762675242       48.56583073842000
H           34.57235894605460       51.11269064932253       48.48732556028773
H           34.66010162840095       52.27247370439484       46.31961744459696
H           33.81342698014597       51.24612339474650       41.92719627743057
H           34.18932022981257       49.64952178061819       42.53642911928336
H           31.52831738062525       48.79130707149781       45.28961934859618
H           30.77768008264526       46.46534963384806       45.04372315311426
H           30.72188949612507       45.41023112681901       42.81207938631536
H           31.43707848970233       46.69880184649990       40.83364556623667
H           32.18678788213191       49.02575844197456       41.08338680648325
H           29.13435557527320       53.16017784989576       42.01620425496818
H           28.27996020213541       54.68028782560819       40.29431624717085
H           29.80133628591613       56.25817057341109       39.16186702231290
H           32.20156420990978       56.27428834705808       39.74818951010418
H           33.06312649103183       54.71345418202110       41.43176795571915
H           29.91429586645231       56.89537550687744       44.67529020591900
H           28.43721863820224       57.76468309325432       46.43746107531077
H           28.32347067795890       56.62888930086714       48.62829569436840
H           29.68955765608103       54.61918357229486       49.03307779546449
H           31.16619924830285       53.75134212239259       47.27559621830408
H           33.83034998395664       56.36483177206596       43.10847895372423
H           33.40040567883462       58.33128576780897       41.70852528238587
H           32.46792024721512       60.38370105660901       42.71255981227865
H           31.98695148627865       60.44803720706790       45.13407466664443
H           32.43412799660654       58.48434633461835       46.53428815957509
H           37.58129104174682       56.84003091131533       47.05076159178038
H           39.89522932870464       56.01426508626150       47.09497821150496
H           40.36347263986433       53.66255611337431       47.58222002097612
H           38.48955847389519       52.12064699686292       48.10501223962888
H           36.18331123666870       52.94302132017579       48.06949013159858
H           36.32888528670564       53.58383052574766       50.89070999823866
H           35.19371219051684       51.43083245696548       51.26112073130338
H           32.77496028574070       51.21410520745408       50.83104564931684
H           31.50091410596322       53.16403217900691       50.02157894048853
H           32.62497536503000       55.30514497217539       49.64363986104618
H           36.55342306425987       59.71744730501035       49.01215759395500
H           35.47403905611717       61.15638302995568       47.33964783481566
H           33.03321301199736       61.48629216224220       47.38721088827229
H           31.68219787244390       60.37595620111721       49.13289975110350
H           32.75668040517105       58.93999416373397       50.79654534984114
H           36.27586429645161       56.78296509939604       55.27551462907305
H           35.74358655857697       57.19570937733279       57.63328292101946
H           35.40173823968753       59.50503653927939       58.44169748904375
H           35.60405855889937       61.39161059592190       56.86382042869902
H           36.14228087531916       60.98033789671670       54.51143217015809
H           40.43305133647057       57.98167690224996       50.43820204733995
H           42.38701917908528       59.16976817027136       49.54974398889193
H           43.32362579593792       61.10998693803788       50.77206863267701
H           42.30225403360092       61.81076863987907       52.90289877034021
H           40.38036613152408       60.59669026217230       53.81229853660253
H           38.72339439123967       55.00878314432825       54.09594980704451
H           38.29929504605690       53.22859604918774       52.46624846329549
H           39.73055504860152       52.99093418136624       50.48339351591086
H           41.62764415213926       54.54786129442149       50.14501643923462
H           42.05343032485176       56.33279001109473       51.78190047332346
H           37.63678690982072       42.58990745904242       39.20054318576207
H           38.46595287673328       43.97386190276175       39.92209597425938
H           36.72943345945710       44.04382944790176       39.62118494784622
H           41.52626822460863       57.49661614493542       53.70236384990253
H           40.12179495556857       55.93469891540845       55.90547054510871
H           41.65178844989322       55.40504252704829       55.22262520787252
C           42.47202560713487       56.37627492512564       57.45439648183439
C           40.91774318660745       58.27766481437523       56.94458694680226
C           41.16129421420937       59.62181043751147       56.68639709718773
C           40.32970649362088       60.60504790706218       57.19351457685579
C           39.24516803618697       60.25814001065262       57.97999248963365
C           39.00567028511949       58.92438552906322       58.26254998094697
C           39.83301145082189       57.94372795053383       57.74785789064672
H           42.00438172876270       59.89834974026397       56.06732752554738
H           40.52781886432237       61.64425772087645       56.97172598871790
H           38.59043061047342       61.02173984707279       58.37263397789561
H           38.16706089266914       58.64756313419159       58.88373324862976
H           39.62958526834941       56.90649710300266       57.97309397085925
C           43.36360730625382       57.20875835002757       58.38078268569105
H           41.70983027702010       55.87022759384850       58.05000977458729
H           43.08795532317009       55.60659733029792       56.98410606997444
C           43.97132425764424       56.31769127670442       59.42497287280167
C           43.39468084180896       56.20015246586804       60.68244666578565
C           43.91983418976078       55.33604705551088       61.62731839935111
C           45.03180488676388       54.57055963782572       61.32199750420431
C           45.61250307186170       54.67614766782776       60.06902465089554
C           45.08593206422521       55.54223492725665       59.12803580186408
H           42.52500386010311       56.79541254871793       60.92430518173415
H           43.45975835737745       55.26001560142977       62.60147443632317
H           45.44808953292638       53.89568382374097       62.05584169004386
H           46.47632414079183       54.07355934977011       59.82609787838646
H           45.54144216727677       55.62140284139596       58.15071184155155
H           42.60055889945342       57.70266007694504       55.78039280766455
H           44.14860706501094       57.68179134496059       57.78667697992196
H           42.76765905462170       57.99264784696297       58.85280270971892
C           66.72119100293511       45.34377996662105       52.39016809398946
C           66.63330296789010       46.72501582981479       52.50538029936281
C           65.49186088931137       47.26808587624522       53.08210265750475
C           64.46888905547496       46.46045258698697       53.54207107864569
C           64.57032254827988       45.08541060892475       53.42534476912327
C           65.69619841739274       44.53033888181075       52.84205829134803
C           67.75622701792071       47.63171144426963       52.07117943819121
C           69.00270364701194       47.36535706216874       52.92141378968518
C           68.10226595262843       47.50050377627361       50.57971348541781
C           66.89747003683784       47.58766901080181       49.62559492558742
C           65.83444311183348       48.55187376477691       50.08624716823738
C           66.12791941792206       49.86714856156325       50.42584521070343
C           65.12840052001563       50.73307944215447       50.83361577349772
C           63.81323034043835       50.30332574758305       50.87479913670425
C           63.50693128231874       49.00103105740296       50.52140801442496
C           64.51132249371634       48.13160221660038       50.13781901788332
C           67.33021439678373       48.01116260425326       48.21075135639505
C           68.13855195706866       46.96782060037751       47.42561310600782
C           68.92095149165885       47.64272612215644       46.32241150449654
C           68.28439594580914       48.43331352783451       45.37160162423587
C           68.99763611748449       48.98715235608309       44.32497808121840
C           70.35900650908307       48.76450325712872       44.21014963421152
C           71.00514583991553       47.99063771753941       45.15747399928571
C           70.28874035462061       47.43528673006525       46.20358527419670
C           67.26427555205510       45.87744769637885       46.77600399810279
C           66.95943508318386       44.65060931182666       47.66086574953631
C           65.50403948150286       44.54324272514527       48.03898105189239
C           64.50232961579367       44.52784539274710       47.07435758627084
C           63.17326464841285       44.39804728013360       47.43794736313937
C           62.82057137372938       44.27941819600360       48.77204610620629
C           63.81088934773212       44.27663652993996       49.73873721542530
C           65.13837408187680       44.40362813099174       49.37179362125733
C           67.38857703506591       43.36686237211259       46.93129222609747
C           67.06710757467411       42.09257618526856       47.71769193054284
C           67.65412283319077       42.09032865923823       49.10778672160926
C           66.88457471617653       41.61790747393940       50.16502622494401
C           67.38579171095346       41.57734036638668       51.45362977448939
C           68.67084676681201       42.02562975304605       51.70853927712816
C           69.45073896098066       42.49077067866347       50.66357694639355
C           68.95032292707668       42.51417804835440       49.37287416385928
C           67.54516450626048       40.84284880559957       46.95804754739432
C           66.65783457320154       40.48175702699985       45.75433050531008
C           67.39962655602287       39.55664962823028       44.82233550036141
C           67.83531247297255       38.30568592036744       45.24236441766354
C           68.50418980198238       37.46119255508424       44.37590553912714
C           68.75120368287246       37.85391356674621       43.07181733857551
C           68.33315468277530       39.10197439833282       42.64505189453558
C           67.66607585668318       39.94540211922306       43.51571678536779
C           65.33812209045857       39.84864065395949       46.21348208825787
C           64.42857428497214       39.46218781652723       45.03951823136124
C           64.12142210477188       40.65321543142002       44.16618945198918
C           64.43781977495475       40.62481021669787       42.81382666113550
C           64.17070496162694       41.71053958753622       41.99724286069981
C           63.56702010464715       42.84091962983689       42.52032299869655
C           63.23541622751654       42.87584940904625       43.86410562164835
C           63.51261535539491       41.79331493351779       44.67965825930386
C           63.11685181407240       38.83151152542053       45.53627330054967
C           63.33750632873827       37.46168948991184       46.18967662642451
C           63.98995609057743       36.50047647237319       45.22531994087973
C           63.38270430776494       36.16741309928661       44.01964932357200
C           63.98363222880691       35.28510527861120       43.14087565366671