3864
 energy: -5104.218026556155 gnorm: 0.000826203648 xtb: 6.6.1 (8d0f1dd)
C           30.40466601167565       45.53752846372556       56.98385568002244
C           29.13307845365746       45.63359383649165       57.53624861084547
C           28.10641940952355       46.12930822099455       56.74209574615589
C           28.34113892605628       46.51786628711283       55.43481952034431
C           29.61231344635123       46.41863050180971       54.89755493011139
C           30.64365905756547       45.93018039497365       55.67983971052186
C           28.84811116902290       45.17579509419783       58.94565298372312
C           28.92126746799914       43.64667588679738       59.01399730939824
C           29.80643975719624       45.79972369756011       59.96600625719147
C           29.76236918143278       47.33539748416364       59.96421726843550
C           28.40591459184909       47.82738014174126       60.39456341937503
C           27.57723738337318       48.47170070118658       59.48440425726685
C           26.31801619223057       48.90882094862142       59.85551616995703
C           25.86631508457032       48.70953330805813       61.14882652347939
C           26.68374148518113       48.07064993171269       62.06569285713889
C           27.94084231637338       47.63262637989048       61.68992776832016
C           30.88892752684558       47.87905419707086       60.85131047213670
C           30.91840537392412       49.41170003416253       60.96209761083394
C           30.87134204987014       50.05850805367143       59.60255358785113
C           29.80832488602348       50.88442814687476       59.25961251437176
C           29.72797956473982       51.45054246986290       57.99956118232457
C           30.71548478965311       51.20207507119013       57.06205576627598
C           31.79062622714656       50.39854288438568       57.39911608504151
C           31.86487978045604       49.83211368477094       58.65811219693688
C           32.17112485962861       49.81231758703990       61.75476590903273
C           32.44793927817616       51.31957009917780       61.79466686703905
C           31.25646465306269       52.13194468549727       62.22735429197157
C           30.85108584384052       53.23414361726827       61.48487567341511
C           29.80275832044949       54.03244525145953       61.90796725953790
C           29.13633334129635       53.73530357456642       63.08418782316286
C           29.52099813003805       52.63155607795939       63.82726690098458
C           30.57343634173548       51.84061286888198       63.40284311326916
C           33.62363600304919       51.58774454547127       62.74852476049904
C           34.19496625608107       53.00186873345140       62.59944112355193
C           35.01940069138161       53.11208443967008       61.34012995599353
C           34.65827868618624       54.00107780783734       60.33563258296452
C           35.40808305739973       54.11010718053348       59.17710308177003
C           36.53669575896040       53.32709244225169       59.00783634952305
C           36.91108267838062       52.43813714541765       60.00132081720631
C           36.15744508012522       52.33417602216318       61.15639533185573
C           35.03099062988969       53.39247372383035       63.82816918808003
C           34.17158151154322       53.70482894668141       65.06917233836805
C           34.13918474602662       52.55657030985567       66.04562673932445
C           32.93678547466960       51.93955313675265       66.37000960567576
C           32.89672276734312       50.88550890849387       67.26569565435271
C           34.06192893929808       50.43785399130583       67.86292551102311
C           35.26192454355775       51.05857291166731       67.56313039588295
C           35.30121439981270       52.10652549582869       66.66137067541540
C           34.67426143525799       54.97547279314537       65.77782653132928
C           34.27983562734276       56.25727026134898       65.01614477467635
C           35.26990270035659       57.35222225528669       65.33796748011001
C           36.42870316371798       57.45076286736423       64.57314551130611
C           37.39193300440255       58.40602810913881       64.84245517824183
C           37.21147652099543       59.29300781683611       65.89124820372255
C           36.06974499731528       59.20013191273607       66.66764156762984
C           35.11193847131767       58.23695943192078       66.39755759858735
C           32.82113572276147       56.61585442624321       65.31289638571252
C           32.25946882461191       57.74200713017321       64.42899557993036
C           30.97148700846003       58.24393041647594       65.03223924749489
C           30.88291127023538       59.53584127820246       65.53324452844248
C           29.70847794650411       60.00184735595592       66.09698382154454
C           28.59808453342934       59.17970681041387       66.16541162225086
C           28.67389647510178       57.88796132971818       65.67152364687792
C           29.85045585204980       57.42393964497824       65.11328290961416
C           32.04654026820355       57.25938565111370       62.98661067297689
C           31.26904210667917       58.25781562759099       62.11455521429307
C           30.80251727535123       57.57455459472671       60.85443674382319
C           31.71715385886333       57.02858539203444       59.96068732409942
C           31.29512131513987       56.40593504580939       58.80099026907715
C           29.94251459970617       56.31234972238491       58.51618124341504
C           29.02015065443413       56.84982374356036       59.39711893025412
C           29.44985798636565       57.47637662232651       60.55556149319668
C           32.10923815572637       59.48917224147036       61.76066130820632
C           31.25352293674683       60.60443742176692       61.13867760806787
C           30.59068283098929       61.41269821764602       62.22233622053045
C           31.34069343695103       62.22568846322635       63.06519505581817
C           30.73202225764163       62.96718960655956       64.06048267535174
C           29.35974676910919       62.90403511668767       64.23527536127587
C           28.60313242223754       62.09384261700168       63.40759213309697
C           29.21619404521509       61.35779816367873       62.40889178015590
C           32.10677226500417       61.48824613336352       60.21449069580094
C           32.22577320960557       60.87212859906455       58.81149577585348
C           30.93125884703262       61.04803742771273       58.05745660253161
C           30.48738789166973       62.31293474364021       57.68716103610215
C           29.30457973542928       62.47288473456793       56.98938965565180
C           28.54231270419162       61.36764567715715       56.64865507106443
C           28.97568801240153       60.10408468147916       57.00847561023852
C           30.16175976684881       59.94766170698659       57.70475906585745
C           33.39777913714140       61.47013463635782       58.01079197394160
C           34.67566042862980       60.62083978106050       58.08740968663287
C           35.20958803901486       60.52450159458841       59.49190100160901
C           35.28963942765543       59.29182609026314       60.12757582871537
C           35.74811916398841       59.19077867442802       61.42946886635929
C           36.14730922678256       60.32421436526336       62.11518311890330
C           36.09564644012655       61.55595088146727       61.48472609580145
C           35.62988583000074       61.65425228097804       60.18567889038816
C           35.72875460610779       61.19462487873159       57.13171162203314
C           37.05233224601067       60.41831717995712       57.14705421006143
C           36.86046294258168       58.94463793209454       56.87556629201453
C           37.43153153868057       57.99358645451203       57.71041785778791
C           37.31663124127132       56.64062023396812       57.44145795028862
C           36.60871291898333       56.21144316911142       56.33330591390656
C           36.01974424152856       57.14534294061153       55.49873994590546
C           36.14759036297941       58.49587897338528       55.76777165666718
C           38.02151258835461       61.03509121305598       56.11473468911297
C           39.41885020594682       61.37430628260503       56.65641798873950
C           40.15822971437563       62.11556384186659       55.57098779833119
C           40.46181134467240       63.46308969208400       55.71574137230890
C           41.08675036240538       64.16559393873253       54.70019130039566
C           41.40909724028894       63.53171803040929       53.51370033419304
C           41.11246941032684       62.18871180878280       53.36145312524559
C           40.49873582614315       61.48586909825866       54.37978646960877
C           40.16966961763707       60.11994262308655       57.11429307609851
C           41.61543486681470       60.40581360864626       57.54071986319056
C           41.67347916698952       61.50790147779646       58.56775667081676
C           41.01366599304384       61.39124709757169       59.78636298839943
C           41.07439601221995       62.40425191072070       60.72569972078295
C           41.80262147259462       63.55336435681404       60.46474074908492
C           42.47085363000211       63.67785644648525       59.25877454321843
C           42.40572873987761       62.66218423346503       58.32035161595689
C           42.28111684645589       59.14454173582749       58.11587767119742
C           42.61810227516084       58.07810990429964       57.06045400391351
C           42.67390974947034       56.71875370658549       57.71499105529064
C           41.67787010837529       55.78158281652046       57.46837306393799
C           41.71789162687974       54.52863362495893       58.05382936308078
C           42.75823570057092       54.19268863608647       58.90176690212268
C           43.74496393585874       55.12343258958263       59.17472321167969
C           43.69861510421597       56.37565507358568       58.58851310086258
C           43.92865073231138       58.41584608370221       56.34185588585688
C           44.25666423630771       57.40564934216484       55.23307951723782
C           43.30095626282878       57.57501091248987       54.08155564609744
C           43.38290718681673       58.67396003078792       53.23479234574995
C           42.49736625672340       58.82815091711365       52.18504500737201
C           41.49503580964576       57.89577838630516       51.98342334809020
C           41.39091607431716       56.80085072943507       52.82412633953559
C           42.29744740557868       56.64104261300177       53.85772935872728
C           45.71798660682300       57.54788014610135       54.79461273175214
C           46.09383647045451       56.54321109063267       53.70455479151392
C           45.87796278649667       55.10596065138282       54.10886219287963
C           45.39630337715482       54.19860174548310       53.17327789571767
C           45.26352518125062       52.85623482288305       53.47929807148428
C           45.60019821014942       52.39988795371944       54.74112421474496
C           46.06089783770536       53.29643299515765       55.68916871051344
C           46.20947437791582       54.63354779873127       55.37244344117789
C           47.56143146851947       56.70681547892930       53.27727346961397
C           47.81663679874571       57.97374135617773       52.44074954304271
H           27.82835875272778       45.48297744326069       59.20522915260381
H           29.54530571372653       45.43020925554223       60.95990613636265
H           30.82686816913317       45.47721443575859       59.75281854652325
H           29.93983564709809       47.68044530003397       58.93938214879535
H           30.80287063981081       47.45964450058718       61.85588780999557
H           31.83834719890760       47.53643992134953       60.43425674678328
H           30.03200079632730       49.73835821606464       61.51747783405053
H           32.07124591662316       49.42871408559306       62.77258708088285
H           33.04258034799116       49.32639203315333       61.30963168761505
H           32.73497918370044       51.64049708061074       60.78683111390703
H           34.41436617659426       50.86287318892635       62.54426771580006
H           33.35727606882522       53.70516394775873       62.52141629719844
H           35.73313941412622       52.59262768893176       64.06378400798785
H           35.62315145150075       54.27211602086332       63.57072873799633
H           33.14297606609670       53.88556112178349       64.73978171335852
H           34.25937110407362       55.02084955155846       66.78769129843481
H           35.76063415497760       54.92241387962854       65.87242060602513
H           34.36682559161044       56.04413619671207       63.94681144774448
H           32.20528901107042       55.72560108409400       65.17283001332336
H           32.71870769674802       56.90491540020433       66.36087600811548
H           32.98198453560155       58.56467652290504       64.42695026758557
H           30.38912000816091       58.59281727720347       62.67490146672822
H           32.59612364810808       59.87373057711923       62.65740271600592
H           32.89447652201287       59.20143691772837       61.06193341507555
H           30.46710536833061       60.14659420283239       60.52805189362587
H           31.65020483871655       62.47730078671598       60.13448682902516
H           33.09999197685745       61.61008531230633       60.64731954817661
H           32.40182400537812       59.79749772057257       58.92323134322570
H           33.10665078412065       61.53748298861768       56.95928519007427
H           33.60362800603556       62.48388531197343       58.35782796408318
H           34.42641590220714       59.60909339229211       57.74703276150468
H           35.31384357466106       61.20263955514185       56.12192329340316
H           35.93811338017004       62.23169507447368       57.40330875918524
H           37.48101071083484       60.52831603080217       58.14889723561257
H           38.13345471964769       60.35440655521882       55.27190211517518
H           37.58965087595003       61.95869591697988       55.72046273804366
H           39.30586021958842       62.04449432021822       57.51708513986046
H           39.63510889273686       59.67636315796047       57.95319215224763
H           40.16999215152224       59.38844127725321       56.30549316273179
H           42.17564580363955       60.73516163547868       56.65917650809469
H           43.20534566273366       59.43752393762265       58.62165819831918
H           41.61609105125787       58.70739836372450       58.86573746796860
H           41.81813386196613       58.05584295242736       56.31401879268675
H           43.85292056500722       59.41591427535217       55.90884785722246
H           44.74888387235485       58.43439514927545       57.06277450664003
H           44.12552787552847       56.39829119700055       55.64549065429582
H           45.90385548818189       58.55708896107090       54.42439182361377
H           46.36032391743639       57.41162943349548       55.66669088696690
H           31.22136146626073       45.15073821620321       57.57488114320960
H           31.63839948402303       45.84412440087857       55.26735113520613
H           29.79415360988135       46.72174098779240       53.87711703216961
H           27.53089985705846       46.89865421059230       54.82969042406523
H           27.10976098504736       46.21011514190851       57.15485282476328
H           27.92596305119649       48.63035731708040       58.47318348122335
H           25.68657551554081       49.40646716747419       59.13297584239367
H           24.88304099407326       49.04914446057237       61.44075161837181
H           26.33767484381541       47.91151624235513       63.07711947756138
H           28.56408954795937       47.13321236025900       62.41734905413713
H           29.03089010480601       51.08152392932143       59.98564112960857
H           28.88814980445835       52.08444613188486       57.75005913180993
H           30.65334664445934       51.64058343513908       56.07598112027539
H           32.57619067144144       50.20911324574006       56.68196496807231
H           32.70883818335825       49.20459522715717       58.89901589032662
H           31.35901881978244       53.47111212315594       60.56022443335002
H           29.50874071954027       54.88939689313284       61.31934987706845
H           28.31848896891254       54.35828262617962       63.41797922970574
H           28.99977023946758       52.39021743126672       64.74348714934892
H           30.86434694920059       50.98571451088232       63.99593500025075
H           33.28918808783649       51.43961794088462       63.77655046570488
H           33.77400696908160       54.61219470119230       60.46039222957553
H           35.11037113427723       54.80631443776838       58.40558739782039
H           37.12500018988468       53.40937664079406       58.10514909069126
H           37.79287948543433       51.82468967892479       59.87779184959542
H           36.45980842368571       51.63447385261614       61.92262965036532
H           32.01962725469789       52.29004185037667       65.91540434689810
H           31.95318108810806       50.41437763175063       67.50271927836413
H           34.03349701217859       49.61222309732870       68.55918874356988
H           36.17354968202347       50.72541408385880       68.03799440853304
H           36.24490159478334       52.58082536768023       66.43846906249286
H           36.58093455319138       56.76822246353419       63.74771107475571
H           38.27794575261493       58.46165627746948       64.22521212605054
H           37.94793488335328       60.05540769137810       66.10480567497716
H           35.92520824986522       59.88520950962966       67.49151167687221
H           34.23377481497819       58.18853937393168       67.02349113667249
H           31.74207485252038       60.18969566611691       65.47810123633427
H           29.65927514982517       61.01110058779793       66.47859378499128
H           27.67818024181284       59.54242561550569       66.60069356172893
H           27.80993430173775       57.24020553456210       65.72295767541897
H           29.89275208360562       56.41522179818487       64.72873388578681
H           33.01722001303117       57.06780954805990       62.52845122349927
H           31.49327561926254       56.31603853524201       63.00208809839988
H           32.77455257153768       57.09200784710749       60.17132548656967
H           32.02224037112720       55.99825072326661       58.11363212854152
H           29.60882858277127       55.82747454075671       57.61008777466930
H           27.96246788998258       56.78302555871370       59.18284248014507
H           28.72344319600002       57.89224047475199       61.24130403413588
H           32.41212052056637       62.28244521566936       62.93726481665493
H           31.32896634001180       63.59773074706671       64.70439395729628
H           28.88239629698748       63.48472212774074       65.01159892803038
H           27.53181163606860       62.03703065669840       63.53844754781386
H           28.61717182379688       60.73498600159387       61.75828062402611
H           31.07467374059590       63.18332186095768       57.94256106698592
H           28.97421886020071       63.46303449264671       56.70873245020591
H           27.61784126093371       61.49267699898643       56.10352507347812
H           28.38980135675242       59.23482915688459       56.74552790151578
H           30.49254769349351       58.95608782682554       57.97763326519425
H           34.99322010948974       58.40098424512325       59.58986614061464
H           35.79513037118542       58.22868575870168       61.91684261929252
H           36.49949164940806       60.24392251129087       63.13317262033515
H           36.41461661871494       62.44575230377644       62.00976207053787
H           35.58942615719508       62.62428215073152       59.71096318994915
H           37.97427569879527       58.31155464275910       58.58821993985336
H           37.78267159351152       55.92340416625394       58.10177094281470
H           36.50225271124397       55.15847224963576       56.11776353504670
H           35.46378607240492       56.81232065798580       54.63326092514346
H           35.68078666402958       59.20716288087532       55.10440426303012
H           40.20709462271388       63.96880346761713       56.63777760044594
H           41.31814597140939       65.21323345695463       54.83267105899309
H           41.89251264886096       64.08244362346744       52.72055439625012
H           41.35533709812371       61.67679989278339       52.44266958278725
H           40.28404760759346       60.43726525318976       54.23813050640746
H           40.44622261763168       60.49976956871066       60.00741085174817
H           40.55405893402492       62.29860538482396       61.66725973861679
H           41.85128498813044       64.34593939004527       61.19809020760135
H           43.04284555471428       64.57103331635676       59.04782398231622
H           42.92193416389910       62.77220250451702       57.37619268046812
H           40.86034761946291       56.03797469822033       56.80769295473235
H           40.94114198274359       53.80880826593754       57.83803854870649
H           42.79703183095394       53.21126764885058       59.35155550875854
H           44.55668194688702       54.86930985483495       59.84066239566064
H           44.47360851994418       57.09616993269370       58.81029728878219
H           44.15067846427900       59.41611394474243       53.39471381962114
H           42.59202791684503       59.67324981085211       51.51848044079649
H           40.80097713728979       58.02165815707420       51.16520845475007
H           40.61112173775289       56.06781423215751       52.66874778308600
H           42.23053377749006       55.77950005441797       54.50797302609234
H           46.58415497450945       55.31209872356370       56.12467218823453
H           46.30604395428529       52.94735269002707       56.68014739277334
H           45.51032159874679       51.35291127089886       54.99573419629108
H           44.88831270622833       52.17338446668986       52.73103964711653
H           45.11860260107477       54.54675492361970       52.18740303929322
H           28.66205155549658       43.29869850976090       60.01135977639245
H           28.22896820752305       43.20280488170278       58.30187366196614
H           29.92458292722258       43.30111652273523       58.77630603055746
H           45.46200510590520       56.74013334147589       52.83020643145947
H           48.19005666894517       56.70913422066697       54.16966201040158
H           47.83726046585808       55.82624102147182       52.69342529395655
C           48.77387057233496       57.67539709266540       51.27504016673376
C           48.35224103144007       59.11784873273594       53.26287841224835
C           49.52353915060648       58.99689341356925       54.00003126490843
C           50.00646791934928       60.05584790122860       54.74647130668074
C           49.32515982025703       61.26034126034697       54.76651499367751
C           48.16921247855651       61.40580196070177       54.01938657220886
C           47.69437885496542       60.34171283674615       53.27335774423468
H           50.07426920850863       58.06815775699413       53.98715344625812
H           50.91986390441943       59.94294263071672       55.31054808434848
H           49.69856790668695       62.08408417999657       55.35876505510841
H           47.63400173691547       62.34598871137702       54.01566012944122
H           46.79527288183515       60.46785648428308       52.68630949348434
C           48.06438432365453       56.95135849407960       50.12311758892550
H           49.18351465708018       58.61584050682818       50.90039772712705
H           49.61066613163698       57.07260157697762       51.63301823808333
C           47.06829831812814       57.85362575635511       49.45340038048583
C           47.51542720580281       58.89097791724380       48.64459084139845
C           46.62098249947041       59.74958558091851       48.03672614587236
C           45.25894801295087       59.58688998215675       48.22594704150558
C           44.80198912115671       58.56789542176875       49.04352403995605
C           45.70109733656243       57.70764808395420       49.65076122099320
H           48.57507916969181       59.02695645790320       48.48431517458041
H           46.99741159641089       60.54807963183942       47.41328150830838
H           44.55570369694219       60.24653266705862       47.73781842631955
H           43.74056803175384       58.44875339804950       49.21065485166609
H           45.33162792197927       56.91148680692836       50.28284846617357
H           46.86708336348523       58.29832934105141       52.00107770013214
H           48.81712698217049       56.63554066255258       49.39615215727850
H           47.55857907652243       56.06038743357485       50.49969744752046
C           52.55303004373007       35.59636591374852       44.26327217333665
C           52.97307815316660       36.28468415118513       45.39492361610249
C           52.02540626086018       36.59621730973017       46.36308889625554
C           50.70548974373478       36.20830114124388       46.22386099393920
C           50.30646412661628       35.49882549400722       45.10540482762866
C           51.23410301411133       35.20247835021599       44.12160627926391
C           54.40395535444578       36.72536522414769       45.57963410318865
C           55.39743448117339       35.60749597943929       45.26564762847067
C           54.69411007613578       37.97619088857993       44.72551134635519
C           55.62554830887517       38.98141422999896       45.42471107610956
C           56.26399567587321       39.89692433449862       44.41219817038937
C           55.50314428804154       40.72798652008888       43.59766134500965
C           56.11162563325105       41.59733693586628       42.71005496702313
C           57.49280086930438       41.65437915657787       42.62550789201041
C           58.25668071784594       40.82730096625948       43.42794760323172
C           57.64654290257970       39.95160830374333       44.30605059321582
C           54.85986448048754       39.78563338024274       46.49117268608693
C           55.58803002095063       41.05575957791361       46.94978248514868
C           56.94146705272976       40.78439489866800       47.55887461988964
C           58.06271227711773       41.44553467473414       47.06828776886233
C           59.30392851064877       41.28491241291383       47.65828794995340
C           59.44705595806187       40.44555511634744       48.74939569266118
C           58.34416337327151       39.76082737591089       49.23060601955838
C           57.10175732997252       39.93412088950529       48.64652199075627
C           54.73697688163016       41.85852096327027       47.95258621598221
C           53.51320500256384       42.55175301515305       47.33744023781561
C           52.65447130820166       43.17355767579907       48.41624845721815
C           53.17200078766977       43.99500676225134       49.41127163448372
C           52.34223483591860       44.57632309639881       50.35343684694593
C           50.98362812919332       44.31852067189384       50.34544994102290
C           50.45826687900169       43.47159155528603       49.38724352243791
C           51.28795751575694       42.91944204467427       48.43014777696722
C           53.80625555868934       43.55765967050783       46.19970065801876
C           54.62304343602043       44.81871123091580       46.53843541380660
C           54.21275674547200       45.93784564585679       45.61148943328343
C           53.64690100380547       47.10616011007281       46.10736552705676
C           53.28374888722841       48.13775569031631       45.25727683376281
C           53.47851615725610       48.01246483019444       43.89303277163200
C           54.02593100414431       46.84594882112548       43.38562787831442
C           54.38803207220166       45.82002324429730       44.23744869068646
C           56.14338057766234       44.60035105051592       46.45126762282163
C           56.93166145688777       45.75985158484092       47.07788034949390
C           56.54233299457370       45.91877573225394       48.52675482375835
C           55.92895664213188       47.08084700772467       48.97441724783476
C           55.55397086299512       47.22227068715657       50.29847126489422
C           55.78040040288351       46.19453968476152       51.19508187897263
C           56.40731106132715       45.03675854954463       50.76732559694752
C           56.79149015203133       44.90430552731377       49.44493289767240
C           58.45182085945456       45.52309898238632       47.00558572799434
C           59.16497462120264       45.90136817697313       45.69115414613285
C           60.21848987340785       44.85605828112207       45.41093682371893
C           60.23313606091853       44.14805675379467       44.21817611051110
C           61.19149020623597       43.17650500807212       43.98361475273579
C           62.15079435254069       42.89395069442114       44.93955933970359
C           62.14673147927265       43.59898647433776       46.13138959556723
C           61.19219810511216       44.57092017110909       46.36451290256319
C           59.86258194894290       47.27614412563395       45.74544860587385
C           58.90327325961168       48.48129793010857       45.72636325023818
C           58.51227287760234       48.84064972451625       44.31527455966551
C           57.23478760496657       48.56384774888673       43.84214730914128
C           56.86404416696476       48.90075602667832       42.55179253379418