3536
 energy: -3716.260388878132 gnorm: 0.000669189227 xtb: 6.6.1 (8d0f1dd)
C           73.32259758935639       52.27998617099918       43.04028085859206
C           72.78021774099604       52.62587135715028       44.42733976060038
C           73.84530954690364       53.36704226366891       45.23084197070450
C           72.32998316408981       51.33960142479677       45.12747054722978
C           71.68773655865077       51.48969970818872       46.51608119655918
C           71.25644145030880       50.10003749703133       46.98330900846375
C           70.50929049180054       52.46967770347805       46.46851281294748
C           69.61897914656686       52.55461292189483       47.71567083590862
C           68.46605880310064       53.50790275750297       47.41119713969448
C           70.39112745748101       53.01000253797034       48.95789309378864
C           69.54253348867131       53.00372003970758       50.24524836597131
C           69.24452682879686       54.43028842884546       50.70594549715759
C           70.22533229235519       52.23556891734534       51.38517159528549
C           70.25387842691971       50.71362159556618       51.21295812642730
C           68.85410727278681       50.12315627674745       51.38597860851146
C           71.18498146797030       50.04835947474013       52.23663085661153
C           72.67563688681287       50.40330144346350       52.16017482821568
C           73.22388285559411       50.23993329864321       50.74216531133317
C           73.49363785791833       49.50490055769820       53.10173585114748
C           73.19191597962251       49.62054195709047       54.60241883435549
C           73.67668020822039       50.96276414627837       55.14323878122914
C           73.86529413404878       48.44567452435593       55.32692587788274
C           73.57462691513965       48.32250100301941       56.82861005251610
C           74.56747324758093       47.33814279658417       57.44868716829946
C           72.13620637905608       47.86705078392456       57.10294216215483
C           71.62748106515235       48.22473519266745       58.50886970185417
C           70.41765633330098       47.34927347642225       58.83972885938397
C           71.27576293115071       49.72224795588514       58.61334466329544
C           71.86643402624505       50.49973719384236       59.80161307605777
C           73.39206802654319       50.57829883703658       59.72757511497415
C           71.45109339193232       49.96045679325378       61.17481328582721
C           69.95635895806855       50.03570608012858       61.51471610709684
C           69.39186091531151       51.43946307002227       61.32406104005200
C           69.75416836521013       49.56545002201066       62.96221235984738
C           68.29702995771676       49.21150049547634       63.31541053196091
C           67.69852713696950       50.21554144408415       64.29881674644005
C           68.20285725609924       47.80499710968881       63.91652668618242
C           68.45912441527989       46.66548350545080       62.92259031513299
C           67.21313514376227       46.38646470553412       62.08584047455137
C           68.88589022133810       45.39917336810453       63.67812846796284
C           70.37062228984152       45.39505582488980       64.07519651231517
C           71.20732582962599       44.73849517341247       62.97831773346689
C           70.58354359502425       44.68711499984889       65.42156599829039
C           70.27325526046039       45.60016852632104       66.61836527349253
C           71.48774381775475       46.46561766047149       66.94913398674893
C           69.83541176046430       44.80218515024028       67.85403801937210
C           69.08526879470588       45.64492269634825       68.90464206238242
C           69.61344398657343       45.34629030085414       70.30836985002144
C           67.57164508616222       45.38892124463602       68.86990166491518
C           66.86051032520307       45.85545778323141       67.59385275706474
C           66.71767728310766       47.37680863053300       67.57724735599470
C           65.46786489286869       45.22406134363778       67.46223047858686
C           65.42901786059490       43.70859941447535       67.22675769222514
C           66.27690418415014       43.30195027655235       66.02066492759198
C           63.98934103262898       43.23429474769154       66.98400588622687
C           62.99477858289430       43.43278242642482       68.13207331279274
C           63.34739520663795       42.55404732320415       69.33078490789110
C           61.57614729464228       43.10695767403445       67.64242428977725
C           60.92329553155478       44.21570114451210       66.80272309339384
C           60.40803244906676       45.32936477442746       67.71016351242358
C           59.79751868095953       43.60651209532436       65.95996852295146
C           59.02100367220553       44.57864913151460       65.06409143321285
C           57.81531531492483       43.84124818685461       64.48348553212897
C           59.88142430398477       45.17584769512789       63.93253098244956
C           59.95480562321362       46.70790771257722       63.93055366261033
C           58.56006144349880       47.32457669981948       63.82270138697378
C           60.78849477919321       47.24384547690734       62.75544651639218
C           62.22371941894732       46.72900870897386       62.61013429582088
C           63.02811285606649       46.91564959638380       63.89629723592311
C           62.95507335764392       47.45118518056695       61.46583421387177
C           62.31532196432465       47.37624110834563       60.07389057209303
C           62.16250407557916       45.92683117630892       59.61476046086981
C           63.16707616140179       48.12980149442313       59.03922150257505
C           63.21600894109228       49.65588240232709       59.17742245674437
C           61.87863164527359       50.28443261300935       58.78805640968517
C           64.31341204537476       50.26690887750119       58.29092475547821
C           65.75470132682500       49.83083632515709       58.58284511350723
C           66.09289533103194       49.96807384609406       60.06603194591379
C           66.76400692157604       50.67140238257578       57.78425874054052
C           66.63725623434330       50.63291429317665       56.25774552479368
C           66.76774306674011       49.20557325047615       55.72517081034582
C           67.71192120517279       51.51008386789322       55.59306632127571
C           67.72143389504740       52.99033459988193       55.99334613955652
C           66.34816916593576       53.63160650420492       55.79554444555635
C           68.74649862933782       53.79014039914155       55.17539234193963
C           70.21165633481274       53.34430279094979       55.25698654615620
C           70.71901481195140       53.25698259909294       56.69345631879654
C           71.09857515165849       54.27277666855348       54.40912992833532
C           71.28590810418311       55.69092570630433       54.94483231935715
C           72.06498878800205       56.54965200695557       53.95511853481343
H           74.19284952383371       51.63175702747824       43.12297573449283
H           72.56898389777395       51.76319584538295       42.44906600436064
H           73.61740045359933       53.18109862632749       42.50598374996032
H           72.22233343464467       57.54937109732553       54.35316173331744
H           73.03800097162903       56.10853171235653       53.74603221648865
H           71.52198485454477       56.63680469758850       53.01598185390264
H           72.08697998180652       53.81410565735576       54.30952042015980
H           70.67090575667331       54.33950933949875       53.40713619790970
H           68.44180403124324       53.76836698117323       54.12473399618701
H           68.68701362973135       54.82932975800904       55.50533098484269
H           67.98918776180636       53.07500238033935       57.05020003721768
H           66.01106138314987       53.50250540922880       54.76941591815517
H           65.60956930287469       53.19142434971648       56.45806646288161
H           66.39194999685685       54.69704090315378       56.00874085847527
H           68.68900124741909       51.07638657270624       55.82026458036285
H           67.57337114768869       51.45360501833492       54.50889490521370
H           66.67023529725218       51.70576474809745       58.12076917267831
H           67.77153172166815       50.33416582771866       58.04781365433533
H           70.29485973387152       52.34632450234208       54.80968215246482
H           70.23387382758052       52.44346414698245       57.22700895450625
H           71.79165384417344       53.07297995559519       56.70376077742358
H           70.52682780757722       54.18278683455001       57.22840265770068
H           65.65417045763110       51.01285896933194       55.96829372370331
H           67.70097423941887       48.75493407489432       56.05846028922675
H           65.94485481936556       48.58414423132574       56.06754301810905
H           66.76011566832727       49.20172391193835       54.63662494269497
H           65.88004354529893       48.78055085197166       58.30419329061056
H           67.14542809986469       49.74586027531691       60.22543333362665
H           65.90634969935341       50.98430330799093       60.40876752292654
H           65.50507398583912       49.28402264121744       60.67209511340437
H           64.07814379429519       50.02840310989419       57.25121384857788
H           64.25999619776171       51.35445725171836       58.39941575499092
H           63.41987683531179       49.92176734205441       60.21683295561606
H           61.64968228332624       50.06968365149731       57.74592846967774
H           61.06944198818670       49.89651737262938       59.40031588990509
H           61.91293243918047       51.36465565741445       58.91417587113547
H           64.18053765622250       47.72833274661672       59.09261066520364
H           62.77503840468148       47.90137737679994       58.04471752520650
H           61.32147871393284       47.83071845858294       60.10780380403090
H           61.51729980637006       45.36445008700952       60.28380215159467
H           61.72368577048545       45.88759389083680       58.61953179381000
H           63.13332601155350       45.43499330237300       59.57909952944968
H           63.05025303646821       48.50230313900406       61.74652843651382
H           63.96636400150553       47.03849313102160       61.39753181965402
H           62.19634278207673       45.66002940151161       62.38250801642269
H           63.02446879091436       47.95958525879133       64.20219998335580
H           62.61887124469475       46.31889737994408       64.70742446423860
H           64.06191903957399       46.61034602221252       63.74329141651237
H           60.24607201869348       47.00717812441329       61.83789354115281
H           60.82737931068324       48.33351140320493       62.84393439259538
H           60.40752265754369       47.04141897838260       64.87076226462162
H           58.63178576341961       48.40402380277267       63.72033638695583
H           58.04212864366739       46.93557715688871       62.94913994748475
H           57.95177824605651       47.11000128851728       64.69578738788140
H           60.89113699363632       44.77324503800967       64.00588107034946
H           59.47775574660083       44.85373793189441       62.97000088127842
H           58.64246560717855       45.38387677579702       65.69730852020642
H           57.23867044219406       44.49733289110708       63.83679137098315
H           58.14885591705158       42.98429490691174       63.90059709913595
H           57.16381417974468       43.47603465955155       65.27734368331936
H           60.21638998284821       42.81529301076200       65.33142071463077
H           59.08645009140135       43.13259004386595       66.64349998814950
H           61.67577166207507       44.64148060730118       66.13222213866896
H           59.57308980514971       44.97591324361546       68.31395536409995
H           61.19543288573251       45.67081459547247       68.37780108927748
H           60.07692948774714       46.18380141229274       67.12679018502214
H           61.62078089652793       42.18386237527127       67.05789018933562
H           60.93332111382680       42.90853554407226       68.50426539629274
H           63.01923104648346       44.47679901452933       68.45498634904438
H           64.33293085474457       42.79883460452931       69.71870195299067
H           62.62734121902435       42.69690849956459       70.13424965948370
H           63.33980385856361       41.50298104780674       69.04759322499712
H           63.61240862440930       43.75575374504635       66.10226969544775
H           64.01390933077441       42.16742656948387       66.74406303867187
H           65.82337585281786       43.19131623013300       68.10698180410378
H           66.12542400604492       42.24853662396010       65.79156475526631
H           66.00066551397747       43.88618151278782       65.14511107533978
H           67.33644130072702       43.44718032956663       66.21171766569098
H           64.90799278677089       45.45582120990677       68.37061094039404
H           64.95395209204254       45.70676730627270       66.62648002203308
H           67.45509525193259       45.56290661361001       66.72752707302600
H           66.12550349609396       47.71574461314053       68.42490797260383
H           67.69047779142305       47.85962111270079       67.62529057980552
H           66.22525065945176       47.70635747607803       66.66551997493482
H           67.41379647638617       44.31687202316581       69.00436691535904
H           67.10949883231461       45.89154514949637       69.72447194942860
H           69.26497922711869       46.70535438712895       68.70521363922452
H           69.45288539446237       44.29984247152836       70.56147446167060
H           70.67952203725501       45.55480236961711       70.36975330347461
H           69.10441046365857       45.95887824760773       71.05003719492845
H           69.19303375032702       43.97528051905352       67.54371247594339
H           70.72379319126887       44.35581931854515       68.30664581598413
H           69.45125397974626       46.26317073899293       66.33451719915874
H           71.27711201249548       47.12753400036742       67.78532715827805
H           72.33715881376654       45.83968633087095       67.21774664989417
H           71.77197087260257       47.07863257630576       66.09682435961096
H           69.94901374710506       43.79773986620063       65.44886119999049
H           71.61781134109614       44.34357984740939       65.49677944945108
H           70.71262086326783       46.43013796792345       64.17956767938813
H           72.27029841064858       44.83138466284833       63.19291989035295
H           70.96627719202934       43.67981576227164       62.89862129741731
H           71.01168729194140       45.20856617255159       62.01667468614242
H           68.26107701153252       45.30974696939688       64.56820556846647
H           68.68968117987087       44.51964252971877       63.06084812234264
H           69.26758281024486       46.95277778924773       62.24207614680176
H           66.86465183217393       47.29086685761128       61.59384432334321
H           67.42815865902735       45.64453650034564       61.32046122291018
H           66.41078438072255       46.00680770830129       62.71642040319763
H           68.92049159427430       47.74320259906514       64.73761957686307
H           67.20791992327194       47.66452931926920       64.34576610843496
H           67.69555334426063       49.23606193175960       62.40294551719224
H           66.64570498365933       50.00090972454053       64.46885836259476
H           68.21510559366712       50.15905912942071       65.25410336489719
H           67.78058634550014       51.23219053557712       63.92302869084937
H           70.38702889093318       48.69069321396835       63.12838892349508
H           70.11711709903068       50.34542662880528       63.63600280049076
H           69.41312671906570       49.35089012783830       60.85530622986103
H           68.37389260720269       51.49062999547410       61.69965989889819
H           69.99520417051014       52.16608528385495       61.86284717024024
H           69.37144475812735       51.71788582772871       60.27441001030502
H           71.77783510487805       48.92084948215973       61.26205680947757
H           71.99608006333335       50.52793162661429       61.93599496533752
H           71.49633826006279       51.52738053006418       59.71558513367584
H           73.84683961377846       49.59361590317975       59.80438627610533
H           73.70824963394689       51.03297862252950       58.79094726628121
H           73.77972193970490       51.18987699272181       60.54007445767918
H           71.61036635069111       50.22793777499183       57.70491254344447
H           70.18904960148170       49.82599418501546       58.64563300802606
H           72.41530979760923       47.98631462092909       59.22881650054092
H           70.68180850445967       46.29416416967425       58.78181375591787
H           70.05219192313935       47.54943210686446       59.84359108687703
H           69.60885263079572       47.53724456334058       58.13512614069776
H           71.45853505040141       48.30807086186410       56.36979072638955
H           72.09066573669932       46.78323008254514       56.97076553610793
H           73.73397187079053       49.29485429872835       57.29616600387575
H           74.36242972964723       47.18935307871725       58.50619869844553
H           74.50492086368028       46.37066698206853       56.95289800159171
H           75.58723748638931       47.70557314360453       57.35132460857790
H           73.56028044141406       47.51303995343872       54.84348959051486
H           74.94652329475232       48.54005528476611       55.19071352378992
H           72.11174700373080       49.55209350505660       54.75477037910953
H           74.76042229075233       51.03536160826590       55.06847875854596
H           73.23747113731039       51.78090819772096       54.57873343872227
H           73.39509349240508       51.09277049872847       56.18464964190005
H           73.33792768510996       48.46875823754577       52.79321589546738
H           74.55519728594322       49.72551370976038       52.95542464907341
H           72.81648071897433       51.44646294045634       52.45979813708764
H           74.30525685710190       50.36390694799444       50.73604243309791
H           72.99299769180998       49.24925255843854       50.35544071388980
H           72.80174682072708       50.97961458010784       50.06778586811348
H           70.81553804880447       50.30363149818740       53.23212752393908
H           71.09272871209572       48.96562145527835       52.12180770956755
H           70.60005835653952       50.46884264248792       50.20503389210987
H           68.15995639504574       50.54100149627687       50.66161916365840
H           68.87243336348688       49.04371069863177       51.25033368196177
H           68.47595219152402       50.33348336300052       52.38479011817474
H           71.24473676522561       52.61264519840960       51.48617489562375
H           69.70281096553114       52.45370822922121       52.31927671193167
H           68.58686705925575       52.51648358020786       50.03270094211300
H           70.16492979168717       54.93204009494481       51.00084345628925
H           68.78064110595676       55.00719124152789       49.91024788521874
H           68.57064755131098       54.42851931107457       51.56075113383184
H           71.25280051622661       52.35560987514601       49.09215065429356
H           70.78231457405178       54.01491322575966       48.78118131073403
H           69.19436287844303       51.56662658489481       47.91681788331243
H           67.94350169922946       53.19333567507965       46.51096229853860
H           67.75121445383454       53.53298894503805       48.22739332628522
H           68.84023144007109       54.51718641086716       47.25100226820029
H           70.89612003951235       53.47135775483520       46.26765388003123
H           69.87209276197989       52.18608752995334       45.62662202422757
H           72.44534759759502       51.86641575165623       47.21143509965700
H           72.09189978276933       49.40565469632224       46.91325157266031
H           70.92011270767063       50.11258197876136       48.01598931884075
H           70.44591195377735       49.72881183345802       46.35911099294581
H           71.61151131365123       50.83208476117278       44.47715894548836
H           73.19930311590554       50.68244101371784       45.21921004576712
H           71.91629561453678       53.28586518410156       44.29642149435221
H           74.70554964603507       52.72350852822903       45.40459644678359
H           74.18323308922601       54.25028645905177       44.69181694364322
H           73.45669996741627       53.68694428751076       46.19415152755560
H           70.31705130451128       56.15824271203464       55.12412173969201
H           71.82777077720293       55.66167175657203       55.89198835048077
C           66.60078086806003       66.07204015112409       48.00376682258648
C           67.29985940684125       64.76610474500525       48.38026224122324
C           68.34505075183669       65.03140509344372       49.45942425553544
C           67.92489857215240       64.14010636828239       47.12830380391321
C           68.53920547669327       62.74087532233334       47.29500332497794
C           69.17465338693842       62.32807880050174       45.96710352375704
C           67.46773836359107       61.74209832023946       47.74760773775548
C           67.84129404977800       60.25284270146211       47.75933869648211
C           66.58123190759748       59.46699142530849       48.11962220560907
C           68.96820176952703       59.95444673421612       48.75454443103650
C           69.57186353006327       58.54354377772028       48.64814947554575
C           70.23204347491256       58.17273981781774       49.97429804838046
C           70.55704243748174       58.47206342873446       47.47307600654570
C           70.96543482066869       57.05302104273169       47.03010343990951
C           72.30691216616732       56.65308947874586       47.64947791643942
C           71.07777152332866       56.93939088327510       45.49692064035563
C           69.83285579683876       56.43158783717190       44.74969692533621
C           70.16587343531887       56.37022324089929       43.25925794068683
C           68.60618513214845       57.30771242883338       45.02037965055604
C           67.31502958705062       56.96208823970456       44.25858256412580
C           66.20078251245096       57.86345203864933       44.79215636633553
C           66.94858151131226       55.48107486833781       44.39978149583014
C           65.59826544437321       55.05740041209162       43.79836995894561
C           65.44912073357122       53.54487820485718       43.95439350412034
C           65.49540134421132       55.49157018521232       42.33171508906116
C           64.28796092941862       54.98332492444760       41.52772970210322
C           64.30901622904265       55.67015931999074       40.16147388356035
C           62.95664509293537       55.23447858972730       42.24418051396774
C           61.72642490882443       54.56714594139424       41.61109575891003
C           60.47009586213643       55.06880102788165       42.32274123658393
C           61.78883221186135       53.03645486889899       41.70009595024473
C           60.93789881684503       52.32048050804783       40.64206918594046
C           60.67502620517178       50.88352961400495       41.09073256141353
C           61.62927716281502       52.33797192271405       39.26573143732568
C           60.72680531015007       52.70339276203349       38.08117223933539
C           59.55431789625445       51.73619914750621       37.94500489865379
C           61.53456430920702       52.70296538796831       36.77385109534234
C           62.43355236883061       53.93021905439575       36.57893978919009
C           61.62173382045117       55.09895469411501       36.02003795763284
C           63.60481683911920       53.63302223426437       35.63353861580633
C           64.66611499694943       52.66014281636797       36.16443188482556
C           65.30824204247544       53.17951252252486       37.44777570279756
C           65.73604813983314       52.43832712776116       35.08519443379740
C           66.55908073474703       51.15895272515983       35.28142750171608
C           67.78145549307543       51.18591739015391       34.36395261992907
C           65.71165866479525       49.89483266567969       35.03364982231577
C           65.55706696458641       48.99365045008282       36.26427833152478
C           66.89110809139109       48.33864919638470       36.62088262535031
C           64.51095942772467       47.89802613452862       36.01768493120491
C           63.03815692655980       48.33602718938854       36.07428516910048
C           62.60899713766754       48.60450433685867       37.51334739664082
C           62.20139723241783       47.22231695318123       35.42746065790180
C           60.67144377470063       47.35089642787709       35.47358328161243
C           60.08018178093998       46.13928255584562       34.75297568362570
C           60.20094222817030       48.66718284547788       34.84394192748005
C           58.68324660562789       48.84682686095131       34.66882488607886
C           58.43611510083297       50.22910071180324       34.06348132147446
C           57.92933122610916       48.66568836575986       35.99151771550437
C           56.39600817625875       48.78033076421401       35.88271090951950
C           55.90421897800176       50.10570815861918       36.46387737136013
C           55.69893422593701       47.62142311531779       36.61010356326894
C           55.70458135996888       46.29981715825709       35.82954320211505
C           54.57032919852196       46.28280550398280       34.80601638480137
C           55.57254129601196       45.10567191685868       36.78580937513666
C           56.89957887206644       44.73306728392068       37.46768917973189
C           57.66541670163084       43.74217691731101       36.59220969007673
C           56.64841935146935       44.16580779749639       38.86958811788814
C           57.90586303342119       43.93960281250840       39.72128366883013
C           57.54737384291020       43.05411858350082       40.91423130628766
C           58.50357630031852       45.26974316532219       40.19866822298874
C           59.97362083838880       45.18106790591882       40.62894555285548
C           60.34182494556683       46.40085659868605       41.47283338627691
C           60.91016253833357       45.07416888053237       39.41564749571861
C           62.20172241653600       44.29567936265405       39.70641462888995
C           63.27498726282655       44.65045222685092       38.67903828468581
C           61.92235832439424       42.78726335291366       39.70265561240478
C           63.00260304570575       41.91892347531775       40.36327895583557
C           62.79721536173005       40.46107360209683       39.95142943048831
C           62.95933367994284       42.06453853063378       41.88882979606766
C           64.19591980860093       41.54428073942147       42.63742227646723
C           63.86147120401460       41.42643442344466       44.12380095623758
C           65.39279685404004       42.47747411195274       42.41603806398220
C           66.74504284959448       41.99523380937492       42.96183863657793
C           67.75300853893870       43.13949533325790       42.86048936355644
C           67.23288773973974       40.75842588206271       42.19932152053664
C           68.55891912399993       40.15377621714345       42.67836128559104
C           68.91272053352822       38.95383859057092       41.79808381470715
C           68.56667914077254       39.77318799625943       44.16610896946363
C           67.46743158907829       38.80875902032376       44.60685448163196
C           67.61377040421939       38.44248828737448       46.07987423669233
H           66.13443524420116       66.52029740699017       48.87876505139089
H           67.31418827295376       66.78492216160242       47.59435538465264
H           65.83114284989719       65.89367619478058       47.25529375990535
H           66.82194935411218       37.76261364196032       46.38675132958531
H           68.57097254262315       37.95711633197134       46.26034070174759
H           67.56016135138611       39.33239298218194       46.70327426457857
H           69.53577990882272       39.31941097257039       44.39311267376154
H           68.49509480416732       40.68350180430101       44.76504282004521
H           66.46931821126915       39.98089430488226       42.24989680306756
H           67.34810093813057       41.02776802617326       41.14502100109803
H           66.62495871907220       41.74154969491953       44.01682762958707
H           68.69508044953024       42.87468921356501       43.33263730041300
H           67.94917367271466       43.38418712319208       41.81838979245691
H           67.36938785065033       44.02931093600969       43.35428711541458
H           65.51152363035749       42.66088448499832       41.34575265652352
H           65.15668164959639       43.43553482711502       42.88528109321800
H           62.82493259001531       43.11520022858719       42.15212342951367
H           62.07883417460624       41.52737609451503       42.25050397618546
H           69.34980556345403       40.89951067219352       42.53806398946153
H           69.03377679862473       39.26681493675527       40.76303506055940
H           69.84381549819075       38.49696022313173       42.12701398907160