3536
 energy: -3716.238608059924 gnorm: 0.000949622058 xtb: 6.6.1 (8d0f1dd)
C           73.32185992393036       52.27989541936764       43.04069116528100
C           72.77897290803604       52.62645721602780       44.42739955872564
C           73.84429929123753       53.36660964974121       45.23129673139137
C           72.32965860436961       51.33949326975856       45.12731359098805
C           71.68850506861205       51.48946303511826       46.51654257231523
C           71.25669887822826       50.09966960849277       46.98360538394726
C           70.51003138292832       52.46971656287535       46.46881342707411
C           69.61961216785055       52.55418544469377       47.71618558786378
C           68.46678375902439       53.50828336546198       47.41167150871008
C           70.39163779726276       53.01026132642043       48.95839887920204
C           69.54226548914458       53.00383722640560       50.24552026003936
C           69.24515113547530       54.43095010143310       50.70664830182689
C           70.22579257668848       52.23549294740556       51.38536518065531
C           70.25445104516950       50.71331251984067       51.21268837680162
C           68.85418755876333       50.12297513613905       51.38570130887280
C           71.18529788088991       50.04804330888018       52.23683087306002
C           72.67614128325613       50.40310550250637       52.15996259359864
C           73.22361834534487       50.23896789952766       50.74178510322020
C           73.49339111253339       49.50422860922939       53.10173263975246
C           73.19057699695732       49.62002694866073       54.60237956267773
C           73.67617246941256       50.96234957549848       55.14253219992629
C           73.86502175390416       48.44559947013382       55.32679761861655
C           73.57479005088054       48.32329443551696       56.82860960221335
C           74.56709228692085       47.33855539671870       57.44822811023834
C           72.13627738908184       47.86717032096191       57.10286380575682
C           71.62828006552070       48.22454761488868       58.50922729348075
C           70.41864956739232       47.34861087544459       58.84037914935136
C           71.27600474230977       49.72216272777666       58.61333350950159
C           71.86693710683815       50.50033185029106       59.80152485698697
C           73.39242354681322       50.57810651733343       59.72745728012558
C           71.45209320983520       49.95996803484478       61.17461663396732
C           69.95722853460185       50.03468275903519       61.51431944265269
C           69.39276493460505       51.43907713151328       61.32429434724697
C           69.75490389342988       49.56493938269015       62.96214114240116
C           68.29749101726892       49.21089744086497       63.31475753602800
C           67.69897567932445       50.21484143914289       64.29889723411260
C           68.20332684466348       47.80451067307456       63.91664618026368
C           68.46000373786715       46.66487080318328       62.92274241118730
C           67.21372941665395       46.38572844955679       62.08594759742724
C           68.88637210066348       45.39894310097034       63.67908929995335
C           70.37143467460812       45.39558468903520       64.07562930046399
C           71.20710089467751       44.73877965913372       62.97833508924671
C           70.58349889573951       44.68742854819630       65.42186124196367
C           70.27254660307440       45.60075069844351       66.61836981387103
C           71.48730190487073       46.46568131165157       66.94971346723298
C           69.83522787073542       44.80224716780381       67.85392303518873
C           69.08528254658752       45.64521574720906       68.90435998448636
C           69.61308327841203       45.34559610052585       70.30767741215182
C           67.57166140421609       45.38879561771365       68.87019088313102
C           66.86052240502381       45.85484688467486       67.59400021327194
C           66.71687207449472       47.37649973947536       67.57780899877314
C           65.46749249509251       45.22382899137193       67.46282024557730
C           65.42916220332350       43.70827545872331       67.22675771385784
C           66.27724211451259       43.30178892386536       66.02069287758145
C           63.98939813216771       43.23420025866105       66.98359606379040
C           62.99505705277659       43.43367363560209       68.13203227869872
C           63.34771187151018       42.55458206231973       69.33007766504289
C           61.57656229872354       43.10670178311828       67.64249663718552
C           60.92393965466095       44.21542418766040       66.80250376773807
C           60.40774337770562       45.32863835802812       67.71053719989655
C           59.79798026929522       43.60580073230392       65.96005083101593
C           59.02099482745495       44.57846221274680       65.06498731993344
C           57.81534394732547       43.84098127382196       64.48387521838320
C           59.88163026677092       45.17519216335302       63.93276722310191
C           59.95532721892175       46.70737344939785       63.93098196130618
C           58.56040235017566       47.32439669128402       63.82245275893062
C           60.78880241559176       47.24365891133235       62.75543363132748
C           62.22431739308375       46.72853292053650       62.61057788567686
C           63.02890892877772       46.91605488605568       63.89666500916880
C           62.95554309397836       47.45092107890095       61.46600233987559
C           62.31498988762362       47.37581534563252       60.07404979446365
C           62.16340758903633       45.92612870834099       59.61474543786994
C           63.16745482753322       48.12925204143069       59.03930363809110
C           63.21651571415052       49.65555987496602       59.17762486416477
C           61.87902788051201       50.28425894732676       58.78744485754697
C           64.31372600010469       50.26640013521737       58.29026683619360
C           65.75520484929508       49.83002519708628       58.58240885631657
C           66.09339935553699       49.96806704493604       60.06579764872368
C           66.76424771420650       50.67131215209756       57.78378346314181
C           66.63722030393237       50.63268726013052       56.25689321572801
C           66.76920360357505       49.20510193456212       55.72442880357612
C           67.71265512499221       51.50987750242403       55.59295005133531
C           67.72236371617996       52.99015966244998       55.99398500255709
C           66.34878599297556       53.63150730588197       55.79518319111305
C           68.74722627196822       53.78973859605021       55.17519908489118
C           70.21265453535104       53.34371825662198       55.25689777907263
C           70.71952326094755       53.25712027044377       56.69379808611100
C           71.09865617103046       54.27332591622157       54.40905768957907
C           71.28495098062929       55.69156170515769       54.94562776662367
C           72.06400775934476       56.55001207286271       53.95558183385631
H           74.19229029957549       51.63237627777508       43.12479054302966
H           72.56893837656007       51.76211018061539       42.44942222959209
H           73.61592915169409       53.18121017084388       42.50684796349702
H           72.22200562346394       57.54907300254514       54.35457451863358
H           73.03598666922981       56.10753564607817       53.74707952024296
H           71.52076507411121       56.63811872018056       53.01667400764586
H           72.08657171264832       53.81536524338621       54.31080785497048
H           70.67030280506837       54.33958868742619       53.40755464960709
H           68.44098482554287       53.76725176219873       54.12538541519498
H           68.68720730672263       54.82849702696339       55.50547849432605
H           67.98916685519590       53.07477268252556       57.05053347710169
H           66.01296037207885       53.50274119970280       54.76865343650032
H           65.60967284780544       53.19090268199526       56.45699995944785
H           66.39249434846069       54.69677786036218       56.00879225058942
H           68.68875727738950       51.07585945803427       55.82093347301321
H           67.57320258565115       51.45430225796170       54.50935708850950
H           66.66969004506815       51.70540054041056       58.12039475323547
H           67.77088340911222       50.33348485235753       58.04704497927326
H           70.29475063519915       52.34614835565760       54.81014759552241
H           70.23421751260841       52.44358051272806       57.22726544296532
H           71.79179316470371       53.07382765912043       56.70333023881497
H           70.52638353417578       54.18313333111083       57.22786362333114
H           65.65431100868319       51.01244477334669       55.96778856086242
H           67.70291911370984       48.75614733837820       56.05771544115461
H           65.94644771604730       48.58387991585350       56.06732909795393
H           66.76125449574580       49.20156435785329       54.63593698472881
H           65.88026940205695       48.78051585693684       58.30357508605244
H           67.14576616180659       49.74572734216254       60.22406887871198
H           65.90702033141788       50.98461850761733       60.40763432258274
H           65.50529978675642       49.28446190495287       60.67197015147793
H           64.07763489906509       50.02750780507429       57.25109159865806
H           64.26000708123411       51.35361394730239       58.39921005393932
H           63.42039214835226       49.92170460378892       60.21642796795879
H           61.65097973325451       50.06981934560335       57.74511878029859
H           61.06995897115090       49.89574202483378       59.39930571397036
H           61.91353657479544       51.36434731948310       58.91392833780112
H           64.18072102519517       47.72849837536634       59.09354114117309
H           62.77519156574773       47.90168648155637       58.04505837644361
H           61.32165483595741       47.83051348231875       60.10754959320436
H           61.51824808098283       45.36452541232278       60.28409248781799
H           61.72466279825495       45.88772738014192       58.61963099272492
H           63.13471212334304       45.43611867477762       59.57969400550246
H           63.05062089390732       48.50193381473847       61.74648044877608
H           63.96589375690731       47.03739641113022       61.39701701666181
H           62.19680277954296       45.66036048887399       62.38274342156372
H           63.02536363133015       47.96021479136397       64.20186656214810
H           62.61878965479747       46.31956079891506       64.70708822965068
H           64.06219760461219       46.61067592318170       63.74258612699337
H           60.24644291038670       47.00696041483437       61.83796994869945
H           60.82781416113700       48.33314133282872       62.84434265241557
H           60.40807577360185       47.04160624317341       64.87001760193759
H           58.63253095937921       48.40389534659959       63.72022393492952
H           58.04301703807920       46.93560091810218       62.94852003840185
H           57.95205900703098       47.10951510816373       64.69519104521261
H           60.89142847146893       44.77342691175939       64.00593239497633
H           59.47763924736659       44.85422703423217       62.97021018592032
H           58.64367817037343       45.38457424615530       65.69717269929539
H           57.23900956456117       44.49753309300242       63.83711376812518
H           58.15033817512830       42.98496713187265       63.90101189061548
H           57.16482871933002       43.47615103361829       65.27796801297681
H           60.21634528657417       42.81599392666570       65.33025881974602
H           59.08684354511429       43.13309962998262       66.64315178660424
H           61.67588420126504       44.64204498007548       66.13208636469324
H           59.57320264131273       44.97404303220068       68.31358297139201
H           61.19558621795238       45.66982330759237       68.37754661951706
H           60.07646138710682       46.18352229124758       67.12747007694006
H           61.62150894174197       42.18448303202074       67.05756294609972
H           60.93377760847293       42.90962533604309       68.50390420774841
H           63.01934666885717       44.47790569392807       68.45358521209134
H           64.33313677967995       42.79989748139135       69.71723374702508
H           62.62768280262900       42.69765343558122       70.13320671406268
H           63.33986384475327       41.50425273825515       69.04531663948491
H           63.61290221171775       43.75536466158066       66.10123755669342
H           64.01408474816731       42.16754096069606       66.74492036096809
H           65.82276410741044       43.19172374899001       68.10657559457860
H           66.12520724551882       42.24867993981387       65.79193990371610
H           66.00128132080310       43.88608605351809       65.14479126500903
H           67.33647129982022       43.44703490055645       66.21216278310436
H           64.90862965415646       45.45556042163926       68.37163780390112
H           64.95313672134687       45.70757133147013       66.62754098508053
H           67.45422787062934       45.56304896171066       66.72711032997857
H           66.12518938316657       47.71453687246444       68.42607696777796
H           67.68954745503827       47.85934189439416       67.62497295173846
H           66.22283672069318       47.70713393164060       66.66673886951774
H           67.41361418088405       44.31717446422830       69.00372328545591
H           67.10918444711828       45.89215934429136       69.72372343739488
H           69.26469793173504       46.70551701291416       68.70520206081041
H           69.45220031481351       44.29922081625826       70.55974569642737
H           70.67896355528556       45.55426765967649       70.36834978803758
H           69.10409508560309       45.95815071967949       71.04927251436325
H           69.19335464584221       43.97513779233904       67.54393657943972
H           70.72399059527814       44.35769207389432       68.30635044132693
H           69.45042731435605       46.26375950681307       66.33455972541630
H           71.27675629941432       47.12677926631330       67.78648952616089
H           72.33560418040894       45.83859789855714       67.21764130569584
H           71.77173930849527       47.07927672922835       66.09784187330747
H           69.94899221241489       43.79839318501275       65.44841580516133
H           71.61762328834108       44.34546919031119       65.49710515606627
H           70.71240522607388       46.43062637051051       64.17988298427915
H           72.26955598687684       44.83157326960626       63.19364314192160
H           70.96510735821113       43.68052314516290       62.89891344872877
H           71.01169450807916       45.20940092264524       62.01681155600797
H           68.26079256301297       45.31093518073795       64.56856761967418
H           68.68942754082185       44.52006167569795       63.06167109612655
H           69.26741758828928       46.95286247523695       62.24239544053778
H           66.86464137613447       47.29023137046399       61.59405549716615
H           67.42941704540470       45.64425707739420       61.32059783377549
H           66.41136787517210       46.00581181022728       62.71641954265924
H           68.92116330670341       47.74373407071868       64.73695880797672
H           67.20819526559124       47.66489811487290       64.34562530781348
H           67.69534509284946       49.23594287182715       62.40286885626383
H           66.64597321708810       49.99988667397452       64.46912580929663
H           68.21606959578990       50.15785427740434       65.25362606731960
H           67.78042929357628       51.23164542681874       63.92301100806883
H           70.38671060656976       48.69034542962775       63.12855674525595
H           70.11595379876189       50.34557395179219       63.63539723015182
H           69.41296700688787       49.35115731504229       60.85496139406644
H           68.37453235199801       51.49088128638795       61.69986093039667
H           69.99621274813063       52.16528083471919       61.86321449304883
H           69.37209093199117       51.71777494784688       60.27465898073056
H           71.77747660508582       48.92055439759070       61.26049804278077
H           71.99573720070457       50.52758165869271       61.93567611929544
H           71.49620296608083       51.52763104996165       59.71510254540183
H           73.84589729547051       49.59330068915102       59.80429253060989
H           73.70748957287576       51.03293316985694       58.79078012442815
H           73.77901332677496       51.19003684553801       60.53981864156433
H           71.61048818109069       50.22752068222444       57.70487367509183
H           70.18909568773540       49.82577990266643       58.64514995566091
H           72.41580077396519       47.98708271440807       59.22850868100610
H           70.68355785778918       46.29405116704172       58.78214267670521
H           70.05273152175423       47.54883757729699       59.84399799380026
H           69.60953436112453       47.53653709769447       58.13575080799406
H           71.45709014815250       48.30752771319886       56.37040322484555
H           72.09117910304583       46.78354922354644       56.97194789702999
H           73.73338635261814       49.29568613514786       57.29556439762030
H           74.36198979222289       47.19003153286375       58.50555845396163
H           74.50365009088377       46.37165983615734       56.95199864572842
H           75.58623750787099       47.70647541973323       57.35028677844704
H           73.56038344878935       47.51294893148723       54.84384186152868
H           74.94545170335213       48.54180792507171       55.19101396146415
H           72.11036798918671       49.55141819594484       54.75473356987513
H           74.75956394480171       51.03309093762100       55.06711386255976
H           73.23733815456427       51.78043084843946       54.57777861533383
H           73.39490819704191       51.09265997798445       56.18393617332114
H           73.33809774651419       48.46842273503461       52.79264332053539
H           74.55397097972320       49.72646561553135       52.95640995059989
H           72.81607072933321       51.44567910820820       52.45956749795872
H           74.30466934519437       50.36180875470777       50.73666008373610
H           72.99141373028584       49.24867410699530       50.35500600687568
H           72.80243795481381       50.97938426595729       50.06770807082004
H           70.81472952055616       50.30319436610058       53.23177064567937
H           71.09199625940927       48.96564155191057       52.12124537657414
H           70.60003592255474       50.46848399644939       50.20520368721542
H           68.16011573918422       50.54175195708164       50.66169316028959
H           68.87157153785979       49.04353358492666       51.24937124052955
H           68.47621818886999       50.33268541596165       52.38473406107946
H           71.24485093450186       52.61189478397957       51.48496604282132
H           69.70301208444072       52.45329675490558       52.31916307341768
H           68.58644536234267       52.51712236680837       50.03322093153057
H           70.16591131778981       54.93107228252405       51.00156791727323
H           68.78130802633274       55.00788484783401       49.91091810581047
H           68.57037379438509       54.42928908544412       51.56089761843639
H           71.25213251191812       52.35534556541644       49.09284425862597
H           70.78134739928608       54.01506112661335       48.78170180014001
H           69.19433079958107       51.56677372905040       47.91719747943124
H           67.94376966098569       53.19387771345418       46.51152707834321
H           67.75203738933554       53.53353335963844       48.22808408882604
H           68.84163425477760       54.51707675486662       47.25164398150167
H           70.89638413219119       53.47121648812467       46.26905712425443
H           69.87193795655115       52.18646844197918       45.62752635786018
H           72.44521840076494       51.86618532214985       47.21139894392302
H           72.09225814577681       49.40565638639475       46.91439915300303
H           70.91859043838656       50.11138350612462       48.01579974054349
H           70.44671364123525       49.72852949500926       46.35833088901212
H           71.61084059556079       50.83118383059583       44.47800968496615
H           73.19901039966417       50.68323783232209       45.21958842769469
H           71.91452889655086       53.28544592675512       44.29663791680271
H           74.70363280759901       52.72190122826858       45.40373284706087
H           74.18204905272279       54.24946691104197       44.69214802994809
H           73.45644270001532       53.68603517585519       46.19497602018593
H           70.31579254395348       56.15816927378784       55.12537205011760
H           71.82713491995403       55.66149184087767       55.89203799917803
C           66.60065672773811       66.07134921426500       48.00406562649901
C           67.29905810391124       64.76509814984041       48.38087405739599
C           68.34525995863359       65.03089959379308       49.45915619356042
C           67.92435272036573       64.13963277566208       47.12863715701725
C           68.53963354667331       62.74091801453335       47.29552785110418
C           69.17368981204773       62.32726556058570       45.96747068668425
C           67.46790082019875       61.74232517164501       47.74849093919456
C           67.84191137272454       60.25307603527354       47.75934518792486
C           66.58151097753941       59.46702826017179       48.11982400443617
C           68.96878049745575       59.95437368180797       48.75460309788053
C           69.57192605130234       58.54301976579731       48.64816916635935
C           70.23300732286457       58.17327295824249       49.97452500021544
C           70.55719683627750       58.47193673913513       47.47293873630352
C           70.96464881098616       57.05242294719063       47.02993795022697
C           72.30661666167340       56.65303217455320       47.64853268606479
C           71.07724524831319       56.93962908782640       45.49658284040925
C           69.83276240787430       56.43072840517224       44.74918934276109
C           70.16603893094133       56.37053432059324       43.25863554278637
C           68.60635837922096       57.30802081277389       45.01998271503269
C           67.31484216053776       56.96329357909166       44.25795260027359
C           66.20016319350296       57.86474702644469       44.79169877151909
C           66.94863464434491       55.48199678133884       44.39962289862843
C           65.59789975010216       55.05855165539902       43.79847189005010
C           65.44931696325364       53.54556522247196       43.95434191152682
C           65.49582443156226       55.49202451428975       42.33136873103499
C           64.28876928355665       54.98283288794030       41.52697195404028
C           64.30974576625212       55.66990734103000       40.16076212389056
C           62.95742577656178       55.23448457879010       42.24394864759618
C           61.72719921494717       54.56729321408312       41.61022570127594
C           60.47073260599942       55.06936587305036       42.32182378873964
C           61.78929053238485       53.03627397761336       41.69965396952879
C           60.93788043677339       52.32031386910062       40.64147113302831
C           60.67548310824149       50.88292965802881       41.09026215136101
C           61.62932675185523       52.33756223957356       39.26505980214908
C           60.72659807817872       52.70361318672357       38.08051051625350
C           59.55413395003805       51.73604058974896       37.94473054386546
C           61.53513861093751       52.70274311743976       36.77366919757529
C           62.43417332095894       53.93038542333738       36.57943750261434
C           61.62184829219377       55.09863776708502       36.02027075565615
C           63.60453723378258       53.63236915668740       35.63319282098234
C           64.66561150753215       52.65915429065047       36.16378281309322
C           65.30850065241309       53.17930816163312       37.44690251415198
C           65.73581121859681       52.43799572124396       35.08476277678220
C           66.55888738655553       51.15876807777232       35.28164520262994
C           67.78028731910149       51.18581923815742       34.36334473573102
C           65.71134021818830       49.89475372840923       35.03351499138700
C           65.55636260643628       48.99427880221981       36.26468151365647
C           66.89047855141324       48.33920451309642       36.62109450436582
C           64.51086374607370       47.89790950704325       36.01786839954429
C           63.03800030496718       48.33580959388053       36.07363282792633
C           62.60876665373893       48.60422049566162       37.51320121230198
C           62.20121962523785       47.22197830637287       35.42716899510195
C           60.67122565917207       47.35084279840567       35.47419317633160
C           60.08010895770067       46.13972134662212       34.75265421988622
C           60.20128815684092       48.66730217321842       34.84409892712019
C           58.68360092893641       48.84661287641075       34.66872618058002
C           58.43628001991637       50.22878234713081       34.06387454379297
C           57.92963160123693       48.66520114892916       35.99160720801056
C           56.39625284821555       48.78006680742008       35.88225021804062
C           55.90440910960001       50.10568291417287       36.46305533934225
C           55.69889993147208       47.62145365557095       36.61013197407016
C           55.70476596156088       46.29964451497380       35.82946616074058
C           54.57047527229324       46.28291743529606       34.80646493774682
C           55.57254317687558       45.10560494828315       36.78583547222672
C           56.90002135175855       44.73397437117498       37.46765159406048
C           57.66577814622620       43.74282398664108       36.59254686550225
C           56.64812379595996       44.16609177806739       38.86929768848982
C           57.90558928344061       43.93902006163356       39.72067842426986
C           57.54680297486642       43.05393560894690       40.91381664107383
C           58.50318488202215       45.26947561348358       40.19827003293168
C           59.97332860531529       45.18039978924954       40.62874013831345
C           60.34144584254825       46.40051522645297       41.47297722333704
C           60.91015199992363       45.07404061011466       39.41562902490308
C           62.20183521191908       44.29560111710384       39.70721661777981
C           63.27463160282974       44.65091307222633       38.67944124811882
C           61.92241802141537       42.78709172488025       39.70287896308912
C           63.00344233053013       41.91940098241910       40.36317464312503
C           62.79762640545804       40.46187852012900       39.95181975910049
C           62.95943700834747       42.06461404921051       41.88894439289553
C           64.19616065261772       41.54398699479412       42.63728447576454
C           63.86157695393531       41.42601738097791       44.12375212234595
C           65.39291778606542       42.47746396816861       42.41576243026743
C           66.74512734225669       41.99475189838584       42.96180602216514
C           67.75316636293812       43.13931849451306       42.85984292975046
C           67.23305961626890       40.75856516352280       42.19856532021256
C           68.55957949628956       40.15504068924525       42.67772275270060
C           68.91219528559463       38.95485212073469       41.79791029904553
C           68.56718697465172       39.77443077701964       44.16554596514541
C           67.46768668946609       38.80992006781385       44.60571905125662
C           67.61463161025668       38.44357666627833       46.07851116322220
H           66.13504444594355       66.51978365947684       48.87928787068761
H           67.31515590780765       66.78264179812334       47.59483991068143
H           65.83103759374227       65.89309356810446       47.25569547675058
H           66.82346555669835       37.76286405926189       46.38502649208492
H           68.57212399489009       37.95893113616120       46.25829828996777
H           67.56029220654089       39.33271223801701       46.70313795951642
H           69.53561469852062       39.31972425167260       44.39183344941457
H           68.49645317122196       40.68465118183000       44.76490281221022
H           66.46984969698930       39.98128460423962       42.24985754175604
H           67.34787910107002       41.02914988286420       41.14500013358433
H           66.62495277163077       41.74173305522717       44.01671305628236
H           68.69504591987217       42.87416520034898       43.33191074646226
H           67.94853072078462       43.38337718935844       41.81764603337550
H           67.36967070192563       44.02945557237094       43.35369768843609
H           65.51182664524897       42.66047124888391       41.34581506314296
H           65.15687895627595       43.43573409291999       42.88504850518823
H           62.82437317786315       43.11506963711420       42.15350328356973
H           62.07964111891059       41.52654580416718       42.25013199280962
H           69.34999816683460       40.90086603625127       42.53703636795802
H           69.03300513081381       39.26779422142717       40.76292677071837
H           69.84319104962835       38.49814129723556       42.12680747137279