3795
 energy: -5103.093938881010 gnorm: 0.000928195316 xtb: 6.6.1 (8d0f1dd)
C          120.92266307569099      117.34938461260330       97.87204801762803
C          120.05944712128549      117.74864241576785       99.04622730298674
C          122.22921656417036      118.15229612574555       97.84408149775312
C          123.12086240996813      117.84482121243437       99.04577143604544
H          122.76977415717793      117.90734619064743       96.92789138836970
H          121.98970062506461      119.21696871701404       97.82020347805559
C          124.42455023012208      118.64375856321084       98.98707574973821
H          122.59011050628462      118.08480400479537       99.96953028122176
H          123.36132237835214      116.78092910040384       99.05681683374036
C          125.30631313840540      118.34490349183055      100.18641687527146
H          124.96265237798572      118.38667886668100       98.07408285324362
H          124.20141694996944      119.71168925564186       98.98155247168778
N          126.02625974132003      117.22409908404678      100.08947369072017
O          119.71804697140507      119.01446775958641       99.00156771518124
O          119.71302830200030      116.98520738801048       99.92519941210720
H          119.24614981207328      119.34338488690481       99.82023483031284
H          120.35888502521009      117.55442222405432       96.96023052186685
H          121.12969731663684      116.28094950343907       97.93215562264652
C          126.97764261834844      116.83974228182230      101.11307646682125
H          125.92961680888133      116.61689135020150       99.28124888407820
C          127.43837654536591      115.40015980754394      100.94085091344411
H          127.84297709148038      117.51368905494867      101.06698167808615
H          126.51876917732288      116.97165474862759      102.09811272661779
C          128.34069953369729      114.99184503371593      102.10221388640305
H          126.56832490286561      114.74215724091701      100.89984830812629
H          127.97607397812467      115.30534621604632       99.99519190174917
C          128.96529008486260      113.61291877255563      101.90738169482879
H          129.13843690679647      115.72980707790822      102.20977546208751
H          127.75423214409690      115.00276182964589      103.02246392599258
C          129.76354543582906      113.19217644527392      103.13933726419928
H          128.17735467103446      112.88333089207904      101.71685595367660
H          129.62135138153155      113.62781400856289      101.03388589362366
C          130.36115008816648      111.80069116895530      102.99478916837002
H          130.57113634354448      113.90723580971473      103.30793794944037
H          129.11326025427547      113.21065614926171      104.01530535638523
N          131.10148065755254      111.43030575930348      104.18295367101346
H          129.57223339501493      111.05763844858895      102.83201593633375
H          131.03410192400131      111.77022153065765      102.12722085280076
C          131.53213814828177      110.18377170326239      104.39142906916655
H          131.29214399643513      112.14838980350483      104.87524826593682
O          125.34617551655084      119.07327157042488      101.17263074906249
C          132.34584760956983      109.99729980683354      105.65533495476059
C          131.74731676472285      108.89559115852229      106.52954395187734
H          133.35916116984200      109.71284351635333      105.36185358681672
H          132.38760646815138      110.93692798648223      106.20495562957358
C          132.55924545672548      108.70315059647919      107.80626331178364
H          130.72213994023076      109.16802534904666      106.79116469806364
H          131.71484024498636      107.96297532983544      105.96227667888854
C          131.95770958526887      107.61926597292283      108.70554526876400
H          133.58636706400486      108.43398206620091      107.55218579702009
H          132.58075405027398      109.64492419116338      108.35886397632099
C          130.57390136578417      108.04765571324435      109.14641350924147
H          131.90654800882965      106.66570078226779      108.18125831031089
H          132.58532976574099      107.50386182675966      109.59114546948680
N          129.57424698493469      107.29419300917823      108.68465618938926
C          128.18862767804961      107.54915044608265      109.00538921160279
H          129.78369093783741      106.43055275252729      108.18835272876468
O          131.28920180454509      109.25735786137193      103.62199234965013
C          127.45686595874209      106.24236311060919      109.28595594104975
H          128.16417979867438      108.21086651018364      109.87684047977964
H          127.70798092295422      108.07247586667309      108.16871736421399
C          126.02401776648856      106.46615231940686      109.75743819549305
H          127.44567445760109      105.64122020490603      108.37533007848556
H          128.00746248286066      105.68102615828684      110.04333066571046
C          125.25500616958342      105.14668762393370      109.77119049991030
H          126.03879037811078      106.90748813301094      110.75498520706665
H          125.52370175384611      107.16780483636305      109.08710889720341
C          123.86828083838454      105.26191336389161      110.39962880460463
H          125.16616464876196      104.78653891350952      108.74484464602290
H          125.83219739013768      104.40683815436921      110.33054106701579
C          123.95431070662299      105.32953352736864      111.91724775797643
N          122.64019105413122      105.30065291424044      112.51696405041896
H          124.54188917031500      104.47981433190247      112.29097101654087
H          124.45735500250333      106.24214939356563      112.25022472315223
C          122.43988260651363      105.70714621512988      113.77120493300471
H          121.86987910510146      104.95455702588374      111.95478054328282
O          130.38561513861683      109.03440823790339      109.85348540456091
C          121.02623878025473      105.53280582549644      114.27361568642074
C          120.98244474748931      104.54207296712508      115.44205411551481
H          120.62763327637595      106.49420436186455      114.60020701156728
H          120.40113998562485      105.16872911566203      113.45878703310564
C          119.53998273927205      104.24971327844897      115.83408022511514
H          121.47446817287822      103.61135655551615      115.14726359194114
H          121.52514321482479      104.95237905221057      116.29475521866119
C          119.40674128836389      103.21563504200660      116.95520060534771
H          119.04952042969076      105.17908819924834      116.13354031656937
H          119.00626534408630      103.86420033619602      114.96259834083790
C          117.94572348847470      102.79312639674035      117.02213255055499
H          120.00563714663168      102.33560832433275      116.70873112849355
H          119.75106085778276      103.61505645219860      117.90817831859817
N          117.34810380152584      102.92555297770419      118.21312427670790
C          115.93857843644652      102.66489791405552      118.41333548348075
H          117.87015446769436      103.20786752804453      119.03572645840524
H          123.35880855338178      106.14914328392177      110.01958513820082
H          123.26653305171580      104.39311435503487      110.12828543906333
O          123.35682988901507      106.16036089585505      114.45757626780714
O          117.36359814107271      102.39686008037062      116.02374357514252
C          115.24852066514194      103.83715304869717      119.10213719533117
H          115.49572818869315      102.48002616362515      117.43250140137498
H          115.81426652125683      101.76806765453588      119.02555046084392
C          115.13523993277228      105.04619392675039      118.18174729824845
H          114.25566685598615      103.50643784346298      119.39640532462575
H          115.80478481739335      104.09689320475805      120.00422925326571
C          114.50431489453526      106.26257137735145      118.86040576666176
H          116.13218318916078      105.31812630217597      117.82706193600846
H          114.54525277947170      104.76169700283451      117.30980606145835
C          113.04888894901858      106.04432676514945      119.29743329636889
H          115.10593828368798      106.53068328334243      119.73081390070217
H          114.54377202741219      107.10093974480776      118.16296832189533
C          112.91087241955023      105.83420090684741      120.80016979974978
H          112.43359665612378      106.90146465903011      119.01813225545374
H          112.64093147147412      105.16800577402860      118.79430206466876
N          111.51295975311167      105.69438588963965      121.15341893371169
H          113.43304089406445      104.92692988811663      121.10569312467587
H          113.34771563575201      106.68069612155045      121.34540446394297
C          111.08059743684909      104.88295839102184      122.12106708050773
H          110.86813960771684      106.25314735819816      120.60412512027168
C          109.57903501296305      104.78502952248233      122.29434671119391
C          108.93153379339446      103.81404156084717      121.29673145507915
H          109.40227318345795      104.41301441848951      123.30527433384752
H          109.11689964551294      105.76630005068596      122.18124451032295
C          108.58404341555025      104.46592796538282      119.96117144719631
H          109.58913458852349      102.95990155041919      121.14709547798782
H          108.00722061905884      103.44548191778564      121.74429457925829
C          107.85033203543905      103.48806218435952      119.03888147304437
H          107.93761229697067      105.31684977862650      120.17280909775867
H          109.48226397216473      104.83257730917211      119.46225112156364
C          107.09016775659386      104.16499609538572      117.91391748965252
H          108.54648167427193      102.77889286982742      118.59190956269785
H          107.12845962915563      102.92410011334084      119.62998705375580
N          106.11031053945413      104.98802633921758      118.32258882130679
C          105.23601905336831      105.68593254428430      117.40998965329243
H          105.95683631611847      105.16875166638421      119.30881453690165
O          111.84645745737706      104.24527117377322      122.84253653451012
C          103.81267188517094      105.71879530050730      117.96111681896963
H          105.58383077290942      106.71521628305993      117.25853872813437
H          105.29331915780013      105.17127467605998      116.44785886994792
C          103.24347163850115      104.32076436678922      118.19669000876834
H          103.84094509341921      106.25469453153488      118.91195449031716
H          103.17339729147486      106.27630966302956      117.27660507540980
C          102.94344412053931      103.55861809647367      116.90879982035881
H          103.96108391927221      103.75802089446242      118.79231459735571
H          102.32135113975443      104.39573326838132      118.77839470745015
C          102.54111906009433      102.10942319807381      117.18790266049994
H          102.13292930740454      104.06333408658030      116.37833674281457
H          103.82349316185136      103.55976950258751      116.26448122286841
C          103.72535375784105      101.23450570667595      117.58442047298057
H          101.80469948346338      102.08234101261988      117.99252728917895
H          102.07355481412272      101.68262689777086      116.29809895637983
N          104.65695493747324      101.09241493585296      116.48514451503409
H          104.27182452638750      101.67315586731596      118.41961174981934
H          103.37410684832034      100.24805859795775      117.90884472068622
O          107.32214017461774      103.96105402256674      116.73179856235105
C          105.97252575056436      100.88305343656592      116.63841563634524
H          104.26480394889428      101.08101380060025      115.55731307678809
C          106.75054397494360      100.69365481667832      115.35189900145109
C          106.61175030547294      101.84087274861264      114.34587974714833
H          107.79604493626391      100.58658935497103      115.63876184800561
H          106.42375626408609       99.75404153454778      114.89508537282636
C          107.53431623163041      101.61798177511105      113.14722600780570
H          105.58039981412328      101.91459087138740      113.98924004612265
H          106.87008252450406      102.77518690945196      114.84465791101418
C          107.31048178544120      102.63045126907006      112.02327621892560
H          108.57426374702706      101.68800584354962      113.46854612843700
H          107.37264329098586      100.61104154202542      112.74937664833452
C          108.36598377662351      102.48838902744454      110.94649820025175
H          106.32169624118598      102.51196832611727      111.57999120251677
H          107.38521126648155      103.64533026974122      112.42342514434269
N          107.89815482973621      102.52382879400733      109.69291108565875
O          106.51067303487970      100.80915924036218      117.73413283034412
C          108.75677082383081      102.44896850311193      108.52592982477593
H          106.90199845791395      102.62973484225888      109.53475761728792
C          107.93075272309194      102.12739282951172      107.28968244784046
H          109.27438431984439      103.40660078549669      108.38915694058967
H          109.51578555141045      101.67878580408501      108.69836735892559
C          108.73722631743888      102.10091643687969      105.99086344810330
H          107.44625096069386      101.15914835268811      107.43490790964064
H          107.15274932997485      102.88704020845940      107.20470856020285
C          107.83757294552075      101.68510574013172      104.82631037470237
H          109.15566894085586      103.09146173033740      105.80553197273309
H          109.56852703672286      101.39827651920537      106.08435794433612
C          108.52150520363085      101.62589548797665      103.45929977354511
H          107.43726198617286      100.69023353208163      105.03694127180482
H          106.98796131164049      102.36381992590798      104.76303372355811
C          109.07339965803364      102.95350574890796      102.95124949034728
H          109.34657719637072      100.91053401753962      103.49179295514197
H          107.78770124698778      101.25995027194621      102.73843081455264
N          108.07088777050464      103.99802827103893      102.92500691129368
H          109.90501144136671      103.29475893844531      103.57872093956573
H          109.47324994875611      102.81022417287807      101.93888386199411
C          108.35426414362523      105.21386655248057      102.44846037600209
H          107.10553532479203      103.75045453368782      103.14492426275692
O          109.56198667732833      102.35658109082502      111.19628846038916
C          107.23728263517395      106.22809811296835      102.60265416324059
C          106.22570254433860      106.17297566630731      101.45405810878563
H          106.70651825043424      106.02766621213406      103.53407471662111
H          107.68084626746221      107.22385549058157      102.66731502008810
C          105.06395236150925      107.12303507760748      101.73683087644926
H          106.70777284299756      106.44479409031705      100.51340434529774
H          105.84582888369343      105.15376677263724      101.35815798732970
C          104.04463667515306      107.18625902922444      100.59383380485156
H          104.55200974666741      106.78997313428346      102.64292681096055
H          105.45315019862061      108.12656481097902      101.92507364359636
C          102.79811628657204      107.87966011021048      101.12000508126759
H          104.45357534146278      107.72986701650686       99.74310965033696
H          103.78094140768140      106.17423201805114      100.28344664046044
N          102.78604747622747      109.20514945161283      100.91973741366979
C          101.73218223169546      110.05653635000853      101.42124453409545
H          103.49176490292419      109.62677479806808      100.32811655742796
O          109.44809001073088      105.49816888380370      101.96479009060974
C          101.26956008139091      111.09510251584372      100.40327892676945
H          100.90666402274636      109.39798623316437      101.70575849764802
H          102.08255469249924      110.57403991337550      102.32334765947454
C          102.37349205491675      112.09187333755725      100.04054176684284
H          100.91829878377236      110.59222605461849       99.50068696648080
H          100.42212662501436      111.62723439085134      100.83976740227693
C          101.81667291332651      113.37714437901420       99.42360439456257
H          102.93987582594887      112.34637885263895      100.93694525932838
H          103.05848671269807      111.62011427906160       99.33687790418547
C          101.24674408467364      114.33031861485706      100.47663311915886
H          102.60743967887697      113.89280071563930       98.87525364737068
H          101.03628507429561      113.11589664679070       98.70617531128401
C          102.33477933041121      115.16452140965004      101.16206175062958
H          100.52528594864110      115.00886434973856      100.01749406571084
H          100.72020415186896      113.75917914746536      101.24379449350761
N          101.82482074986601      115.77120331602373      102.37072203299417
H          103.19410073939302      114.53900937875076      101.41450777720824
H          102.66742242426855      115.96743949505887      100.50063491891608
C          101.47546535463259      117.05900010218292      102.47042126931696
H          101.52830891180584      115.12885005134494      103.09973862593533
O          101.92853161401418      107.28121137799859      101.73640031225696
C          100.78491862480166      117.39532574900187      103.78057751541107
C          101.79859165101814      117.72018510506692      104.88213948865715
H          100.12830775664732      118.25302451291019      103.62300137427690
H          100.18410017385379      116.53962095432584      104.08976633302014
C          102.47437487662677      119.06883814862837      104.66913301501006
H          101.27271107858795      117.73286466596900      105.83905974513907
H          102.55643689180530      116.93732058650599      104.91936292265973
C          103.39855862334890      119.45549631449845      105.82978823717524
H          103.03063687689988      119.05287986122592      103.73031742409927
H          101.69688893436991      119.83100633451943      104.58601320382849
C          104.66415026883547      118.62397523619416      105.88824341396399
H          103.65933592193275      120.50999090226885      105.74908933484463
H          102.86724522997331      119.30421079345994      106.77194605145620
N          105.73966436950151      119.07103155995171      105.23734650281187
O          101.71528075994976      117.90133667503152      101.61210003371703
C          105.84346651352337      120.27634348658330      104.44737311453952
H          106.61312577023578      118.58258068659393      105.43983084047356
C          107.23292204578860      120.38894696660712      103.82674331003628
H          105.07748934457021      120.26151006593072      103.66616903812195
H          105.66805490993603      121.16382790560297      105.07193477220801
C          107.42736899184126      121.71882003493786      103.09649064336689
H          107.96770617563503      120.30169370090016      104.62853000108298
H          107.40038464474073      119.56451903577781      103.13151808086805
C          106.69007504612999      121.76240232679196      101.75903718743665
H          107.07883705591864      122.52951070583252      103.73889042667052
H          108.49389097656420      121.86926391116067      102.91547945066861
C          106.84929098527398      123.08833519264678      101.01484182181942
H          107.07220066496156      120.95665342440647      101.12857090623282
H          105.62585715021268      121.58351989411356      101.91488092221167
C          106.07619001458912      124.24584075662571      101.64668377535803
H          107.90471351066317      123.36423361091495      100.97249307364784
H          106.48898629642839      122.96031554645214       99.99163586552758
N          104.66109993565715      123.96423757472913      101.71212870714399
H          106.41244590398105      124.44394675309613      102.66659591444929
H          106.24326683287293      125.15032479694013      101.04838420376051
C          103.92770195486933      124.13992598265891      102.81523322106305
H          104.23291041146437      123.54471156679189      100.88946435603758
O          104.70792949988680      117.56923367528840      106.51841868850714
C          102.49069186743655      123.67702158313567      102.67093113457223
C          102.43152783588950      122.15447439588110      102.85585606122274
H          101.87006135807161      124.17406301426166      103.41717469007673
H          102.14039864029853      123.94988781114414      101.67770850939856
C          101.22134917664900      121.49664009265514      102.19311953832027
H          103.33430118992621      121.70789715903554      102.43374221576678
H          102.42698839177878      121.92885334470573      103.92345253421358
C          101.21050075430723      121.67800654552262      100.67055278055409
H          101.25076848813534      120.42725463814219      102.40629921365084
H          100.29873606623406      121.90444232992778      102.61151365676690
C          102.58490353546543      121.41490596210875      100.07749990573220
H          100.48873756631896      120.98829776548635      100.23177254017405
H          100.91881280334277      122.69429337489849      100.40329102002099
N          102.92639435222323      120.12444096100592      100.00684813972570
C          104.15348045774826      119.67517653663759       99.38933410600129
H          102.32944803166238      119.40931688080217      100.40672449602691
O          104.37714473475981      124.60448724374861      103.85730116333208
C          104.91308037178800      118.67979735961931      100.26066962514335
H          103.91438835890740      119.20104056160601       98.42889128143351
H          104.76009995239575      120.56247918084354       99.19107266039482
C          106.11892358540918      118.11708604772910       99.51157988733719
H          105.24232062156887      119.16672065601425      101.17985230444189
H          104.23689070458988      117.86812821000431      100.53742530897489
C          106.86077857415924      117.06463188843219      100.32804827417081
H          105.77524683246136      117.66904150712097       98.57583919626779
H          106.80239850187759      118.92963821546437       99.25622341772507
C          107.97088210658134      116.39036149684630       99.52714325357050
H          107.29496387269970      117.53171555857251      101.21193752808962
H          106.15577712847509      116.29434211244262      100.64425213579189
C          108.55357670679024      115.20010130487285      100.27730466571880
H          107.56034786418674      116.03088220889514       98.58158960703209
H          108.75826174271417      117.11175952585833       99.30274195239569
N          109.55987563854309      115.60736310382448      101.24574650472043
H          107.74756309732946      114.66087155340188      100.78849671025462
H          109.03340768138847      114.49951070434486       99.58462967888906
C          110.44218624371759      114.72255805709509      101.68067400073697
H          109.57820575828751      116.59345533063767      101.50110586843864
O          103.31915256131684      122.32536834585942       99.70837645847482
C          111.54823508499507      115.13334093635321      102.63201960015199
C          111.87758913116451      116.61921610273808      102.70428945846713
H          111.26733001291447      114.77786626544022      103.62783086862017
H          112.42812586909089      114.55802697876358      102.33121373170070
C          110.99116062149592      117.33867201686662      103.71832789014016
H          112.92166554282528      116.74342023753846      102.99778802832628
H          111.76460276712110      117.07344319347831      101.71912038038263
C          111.04828929700071      118.84716424382151      103.52720111729366
H          109.95417138252805      117.02187559388108      103.60222547646612
H          111.30992383938849      117.07446910557186      104.72687346914840
C          110.45864702571826      119.23712474293085      102.18032805477839
H          110.44508950264085      119.33608804658073      104.29607951698040
H          112.07017247683699      119.21957210354728      103.59732238171927
N          110.96818472202023      120.36698162875176      101.68925615982602
O          110.39828517589743      113.53619419976846      101.30963868762159
C          110.52115140861339      121.01262478152421      100.47223035085872
H          111.78329061054150      120.76872287026471      102.14106004397065
C          111.25138824325266      122.34230637650343      100.32824021704441
H          110.71094691484051      120.36802086515515       99.60521691827989
H          109.43880742040827      121.16757511992596      100.53110448372277
C          110.65532569837700      123.24193359960938       99.25109528323188
H          111.21089433825252      122.86490176771790      101.28733502489193
H          112.30213358723545      122.14598361889735      100.10512938723818
C          111.46683846810382      124.52911487096135       99.10122312768378
H          110.62434389234213      122.70695902007068       98.30024979986851
H          109.62773930890835      123.48826303156179       99.51997241369934
C          110.75480581401197      125.59735289723149       98.27244378050068
H          111.67435194610317      124.93850826977865      100.09267303939356
H          112.42791294904505      124.28860479074642       98.63962310180227
C          109.64038215047884      126.30389371894518       99.04784282437865
H          111.47061047576800      126.36100032454442       97.96411643069119
H          110.33955031905575      125.14957002761787       97.36656108415360
N          109.14393549073301      127.43649508161869       98.28604278696179
H          108.84940596459244      125.58007327200768       99.30935204339616
H          110.04652077798852      126.69740893126028       99.98367769723845
H          108.62990413153182      127.11083693792712       97.47334783631565
H          108.50327369220237      127.97561944843481       98.86836380942378
O          109.58494232058537      118.57900085570337      101.62417528711161
C          127.31389936740219      116.78888745382396      127.44474705392881
C          126.85094728859312      117.20215520882432      126.06774802803122
C          126.13098522486310      116.51310050558931      128.38315922991580
C          125.40798395588060      115.21781407770541      128.02312267474167
H          126.50949206885242      116.44032386443908      129.40446117826551
H          125.43347932178440      117.35079145054341      128.34789816724756
C          124.16937374646751      114.98297493389914      128.90027225443188
H          125.10573055941727      115.25037857098805      126.97494360712233
H          126.09480298977770      114.37740383916622      128.14813487460907
C          123.10099381293594      115.98755258705580      128.52588518374543
H          123.79355404500566      113.97151728043308      128.74995117695934
H          124.43648781362513      115.11805707976772      129.94892099878209
N          122.18167144481880      115.53246001668073      127.67121861450758
O          126.55708289490082      118.48187273797852      125.99794656496398
O          126.76814055739112      116.44456595566466      125.12333851497499
H          126.37524444269920      118.80373562256041      125.06908073545699
H          127.91093340648894      117.60502071466874      127.85216799465455
H          127.92918436147944      115.89194617115680      127.35617248946953
C          121.22001057892970      116.38246923383876      127.00634198778187
H          122.24750187404111      114.57021099079671      127.34555823918780
C          121.27335811824469      116.20125469359908      125.48656463908121
H          120.20956684312550      116.16307014760176      127.36703872285587
H          121.46143117462748      117.41226637881849      127.27874097791343
C          122.71041054851078      116.10390092681212      124.97722671836748
H          120.73280787758793      115.29511813382534      125.20856512476725
H          120.76215059204026      117.04646702708757      125.02543796856814
C          122.81154376505759      116.11713355074723      123.45008494131319
H          123.30028426261165      116.91685537605900      125.40139237159757
H          123.14017516310541      115.17126921365751      125.33797220895013
C          122.90653331490887      117.52005815908458      122.85170403977158
H          123.69858745286143      115.55803372523951      123.15006412952336
H          121.94816813237287      115.59728812104360      123.03227648929655
C          124.14588448209933      118.25329133087961      123.35755500899944
H          122.97537544858235      117.43445697399511      121.76614689712078
H          122.01080941309090      118.09943155913436      123.07873390571793
N          124.63435754726703      119.21253099455626      122.38451973038732
H          123.93307100825720      118.77591090118942      124.29847338520077
H          124.94780662481850      117.53076698031761      123.54725926081665