3536
 energy: -3716.262152085961 gnorm: 0.000666067553 xtb: 6.6.1 (8d0f1dd)
C           47.87839555396834       48.23789207764171       50.58824736494422
C           48.96467965434530       49.22326730916512       51.01007925961842
C           48.35561459909773       50.61057640053858       51.19927686255180
C           50.09233850525438       49.31714015077339       49.97566396900811
C           50.77924423060694       47.99971965797802       49.60491358651426
C           51.31392797764770       47.27903539781208       50.84146839070266
C           51.94571841377030       48.24790741145250       48.63722490562253
C           51.60068679630365       48.89062852065359       47.28838043550189
C           50.64970109511660       48.00834360243491       46.48376627643714
C           52.88785424920605       49.15328032626592       46.48847530958425
C           53.61090306214857       50.44630125301705       46.88615315216098
C           52.92395164331071       51.65865812194119       46.25943951252081
C           55.08539484594468       50.43930386567710       46.46408118572491
C           55.98937827767911       49.42006474477893       47.16931923272755
C           55.86496152199575       49.50793459444007       48.68816143461994
C           57.44912372867793       49.65852593632514       46.75394562438921
C           58.33722141108269       48.41998771978153       46.92517572875222
C           59.80738486566882       48.82765135172370       46.94404030443437
C           58.06538825796572       47.37984525433528       45.82193524290301
C           57.60605279674237       46.01493892645203       46.34658432807358
C           58.76594611185891       45.29018866296275       47.02683739757130
C           57.04444968256106       45.15767325924501       45.20402892352704
C           55.65638723793444       45.59332724116733       44.70856017085432
C           54.56674838360361       45.07197025568819       45.64059654601309
C           55.45292542643761       45.10016224565922       43.27072625362362
C           54.11058558021033       45.44345337360536       42.60713695927471
C           54.12904948258149       44.89743681383717       41.17896871404734
C           53.84768981790642       46.95288234032806       42.61886208376902
C           52.53223129093782       47.41764975766988       41.97349801718389
C           52.47892668576779       48.94377035767245       42.03590606892096
C           51.33123034767475       46.77676651942873       42.68130556433650
C           49.93545428915034       47.26544403598094       42.26420995796990
C           48.89230854035173       46.57360595437078       43.14227208065277
C           49.68098741154292       46.98883974143118       40.77884344575389
C           48.31480096939283       47.42526372425326       40.23032811168920
C           48.20680512074220       46.99920040896421       38.76579310467454
C           48.01364824578062       48.92207527866631       40.41291542470498
C           48.97391479154749       49.90053650082544       39.70784929819531
C           49.34587987761024       51.05356819257379       40.63799847163001
C           48.34201564320232       50.43298852020628       38.41433341947927
C           49.20539018473083       51.38195878360578       37.56939602417589
C           48.34956432506498       51.92569166497888       36.42456774127304
C           50.45554432605029       50.68138728568376       37.02425365964886
C           51.52702062536623       51.62482705408848       36.45820420045064
C           52.46335460961350       50.83883962450301       35.54009651844825
C           52.32856899465630       52.29561128787256       37.58094843686924
C           53.14138857731660       53.52010893160799       37.11866998399498
C           54.60560316591332       53.38443761359363       37.54002153116487
C           52.58036051244360       54.83362644413146       37.67957187865218
C           51.14846598796468       55.19276326003574       37.25659869304456
C           51.08875982818930       55.56606671252647       35.77732461435232
C           50.65934229617204       56.34989967957766       38.13852523199083
C           49.20529718122099       56.80711318033708       37.94834319135852
C           48.95918520747674       58.00661729306638       38.86328957700743
C           48.22761154574951       55.66019384244819       38.24095804864349
C           46.73841617846254       56.03307224028046       38.31948137779170
C           45.93053532413989       54.77618203940446       38.64497681190115
C           46.25561931006237       56.66753158000150       37.01075979765957
C           44.84453534868697       57.27525289275180       37.02624878257300
C           44.44891406468804       57.60102857354094       35.58511116941874
C           44.78997508147386       58.52994472511106       37.90730975296518
C           43.38582484210202       59.15090290553461       38.04630769261085
C           43.36231668174761       60.56054566408842       37.45232043326397
C           42.91517822003647       59.21579305162401       39.50558726462716
C           42.64313562264205       57.86368249768582       40.17623641789643
C           41.48913329848580       57.13196220666880       39.49072951405346
C           42.29173995799024       58.05762614873436       41.66086225944961
C           43.45419209296750       58.48550114030623       42.56365472098926
C           44.42744187219827       57.32535772485988       42.77135534683108
C           42.97133988804403       58.97187907914025       43.93870642280010
C           42.00310235099818       60.16453085259937       43.96288243962947
C           42.50405399279654       61.32400953660704       43.10448233330408
C           41.81419204320785       60.65781916219781       45.40612999571373
C           40.90640673639402       59.78058169673160       46.27731391120371
C           39.43697672490302       60.11350331450263       46.02158600891821
C           41.24180400338690       59.96878749913899       47.76471809735331
C           42.44908124195062       59.14277629619310       48.22531650737561
C           42.04317305646885       57.68072889922528       48.40627782672681
C           43.03182353339821       59.65536911552527       49.54991683524857
C           43.68831020283954       61.03987281726568       49.52855781092667
C           44.80470474946313       61.11805020062271       48.48728116579267
C           44.28913419168413       61.38760743875473       50.90064524435636
C           43.33475049604323       61.39216318702104       52.10127356204842
C           42.18151429636464       62.37218684184217       51.89051036091004
C           44.10150872902168       61.76276456988326       53.38192400511213
C           44.93285229814566       60.61503935848576       53.97236346713309
C           44.05965698631999       59.67582993557062       54.80058053199988
C           46.12440742963891       61.14007782912299       54.78615454938321
C           45.76479868418103       61.95391089578975       56.02731097750765
C           47.01059954213001       62.55307995178826       56.67024936517736
H           47.50175486782838       48.48908041947394       49.59856086409432
H           48.25394703962235       47.21867505493720       50.56620771062295
H           47.04434338346169       48.27319190509967       51.28620554703922
H           47.50015743680117       63.24226709935703       55.98530558239788
H           46.75378196153169       63.09801028862527       57.57641142993084
H           47.72198462076326       61.77247815227302       56.92936261591638
H           46.73293363342807       60.28817881998895       55.10217473391084
H           46.74405599605949       61.75956029956730       54.13178969387240
H           44.75550100967968       62.60988963070287       53.15944037390926
H           43.38460406899546       62.09555516781458       54.13590193002166
H           42.91372700528248       60.39217435821589       52.23349827285556
H           41.53898350357960       62.39826560049085       52.76875497229270
H           42.56193922181413       63.37729227697925       51.71718109710559
H           41.57144886233687       62.08266166364182       51.03875798694973
H           45.09972549502197       60.68308964367565       51.10075003596339
H           44.73767144415348       62.38281255253836       50.82601365566552
H           42.22546019505924       59.65914381784566       50.28556013027671
H           43.78570502678340       58.93851972543657       49.88591316369218
H           45.35489221569437       60.03480742641705       53.14368701183108
H           44.65961690884906       58.87520976282876       55.22714179511544
H           43.57310328652855       60.21163645904349       55.61042158024383
H           43.28586862736518       59.23039039041402       54.18099205062936
H           42.93797887219066       61.79578254908324       49.27640361429786
H           45.32833196441755       62.06816546279275       48.57130769326231
H           45.52676705946576       60.31847029936531       48.63944326756614
H           44.40773183162536       61.04207074822922       47.47832301971247
H           43.22278835757189       59.18007306031328       47.45412699462942
H           42.90584226631957       57.07967379802056       48.67830720318184
H           41.30006579471119       57.58612448776817       49.19569688531240
H           41.62197468539599       57.27236081230157       47.49152223286603
H           41.42131361723183       61.03091185890829       47.94109328269272
H           40.37816186901622       59.68266124550824       48.37043150947547
H           41.06509962322743       58.73210818766609       46.01164063905151
H           38.78751460786872       59.42984530209453       46.56466228856730
H           39.21474519522002       61.12823043445972       46.34790670643535
H           39.19954870152523       60.03698831248866       44.96275467393702
H           42.79992777243511       60.73607017844012       45.86856208915019
H           41.39152119599361       61.66599275448858       45.38697626889117
H           41.02922193469833       59.84740022009424       43.57537161439085
H           41.83005778301897       62.17537687020260       43.18681323381013
H           43.48958965034934       61.63713702590860       43.44231341455777
H           42.56324254995562       61.04535940483002       42.05596871310195
H           42.50128268576324       58.13040789783310       44.45321095558058
H           43.85862153379362       59.24907650790098       44.51371115424258
H           44.00425665030684       59.30040841041801       42.08589387514198
H           43.92066843128013       56.48047047462479       43.23315333366664
H           44.84913012009176       56.99697240081575       41.82545881633761
H           45.24837175019070       57.62193398255550       43.41986413262590
H           41.49325885959424       58.79973075025803       41.71485873389236
H           41.88814552660295       57.11942658510982       42.05116212537224
H           43.53618519055710       57.23742181882245       40.09614975667073
H           41.27694553555118       56.19742430548124       40.00430480710861
H           40.58813383317683       57.74289108876210       39.50568604819555
H           41.72523562343061       56.89614619330899       38.45633494793282
H           43.67125376765174       59.75866401116258       40.07637829814553
H           41.99287239206409       59.80338749655329       39.54309748727431
H           42.66840426498331       58.54668822812630       37.48547536449321
H           44.02995988092348       61.21673340213015       38.00808659463366
H           43.68120789989480       60.54591623966555       36.41255906691529
H           42.35967897717575       60.98220334027442       37.49480597336287
H           45.16644787243507       58.27959237527774       38.89928999554189
H           45.47269528507660       59.27124895438941       37.48444400369787
H           44.13514050775709       56.53965324275029       37.41855304084569
H           43.45284109636322       58.03244126076259       35.53076808147599
H           45.15203891766406       58.31097620960630       35.15294689135612
H           44.45726223948194       56.69959632626639       34.97524491115536
H           46.94626571050404       57.45979967287751       36.71768722707853
H           46.29427445999926       55.90053309832681       36.23171735932506
H           46.60538161283085       56.74091813771482       39.14151890982470
H           46.34449768421682       54.27148795520275       39.51461455466345
H           44.89188568514192       55.01875616283517       38.85720048029447
H           45.95056052172334       54.08163485328673       37.80668674853939
H           48.34286109597515       54.89547980708582       37.47009948440979
H           48.50944218822769       55.21111583954710       39.19731785708415
H           49.07778660259000       57.13499470018632       36.91207776456485
H           47.99226279199416       58.46211891978719       38.66919366554426
H           48.99575935982360       57.69938839815713       39.90476672345082
H           49.72225261694484       58.76442226983802       38.70194313184533
H           50.78292112470706       56.06222701292761       39.18490772193415
H           51.31345534335706       57.20761250802455       37.95824206069411
H           50.50637019130043       54.32440795641575       37.42216168347665
H           51.66622071676094       56.46962817784838       35.58911751529223
H           51.49356761625832       54.76988625892700       35.15684365855833
H           50.06301383830939       55.74208353296271       35.46214603706602
H           52.61887866612438       54.77506232836574       38.76999659392499
H           53.24000382025305       55.65028646247823       37.37229795900827
H           53.11691001600355       53.57126643083417       36.02569800651030
H           55.19070988350212       54.22797134662817       37.17859991788465
H           54.68439211523444       53.34971105318527       38.62454138704055
H           55.03990326496662       52.47343752248609       37.13306060557555
H           51.65002711181089       52.60019575222216       38.37820297052874
H           53.00241986178444       51.54794230711819       38.00611946051984
H           51.03874194760677       52.40166499097054       35.86261742880716
H           51.91982813122457       50.43690898606230       34.68712308204027
H           53.26381224091825       51.47157596863692       35.16385530711745
H           52.91241494346723       50.00811103878312       36.08165483289410
H           50.92066041321653       50.08825548813962       37.81341404114837
H           50.14069018658042       49.98791271183853       36.23969490128554
H           49.50665986213576       52.22919164211105       38.19117161153524
H           48.01130170601196       51.11410674863246       35.78248154353835
H           47.47251884954338       52.43683958823745       36.81645602569640
H           48.90645686082593       52.63239743090175       35.81404214138841
H           48.05170889413425       49.58916396257995       37.78591975267149
H           47.42536762439900       50.96628461284322       38.68454143823582
H           49.89172299765469       49.36258657661482       39.45888411678447
H           48.49045455650783       51.70714244769383       40.79553475930778
H           49.67264201642287       50.68124126719579       41.60580989329137
H           50.15800477102050       51.64109077689109       40.21910538930054
H           46.99491295515827       49.10380564927781       40.06068100427010
H           48.01244750374646       49.13260756540624       41.48343866500804
H           47.53784519223760       46.88265105557736       40.78097701687652
H           48.99015244272859       47.45802103019879       38.16712599114003
H           48.30662401616335       45.91869915314393       38.67768372371401
H           47.24104597880866       47.28388791955643       38.35311052929715
H           50.46259812999390       47.47168017276934       40.19072245864008
H           49.77716301457349       45.91146587003485       40.61142131686005
H           49.87452300396082       48.34126684516134       42.44559680362467
H           47.90274820780547       46.99526576033476       42.98884509000211
H           48.84804023263830       45.51045062053302       42.91373390486655
H           49.14522659983086       46.68625993195911       44.19421450867507
H           51.36643990976599       45.69695573422538       42.52158976026548
H           51.44351510331442       46.95281698837277       43.75419213544866
H           52.53510313664206       47.12156075646350       40.92012166919390
H           52.36319743338940       49.27855703974076       43.06526232038060
H           53.39989686989299       49.36799397433511       41.64193225171049
H           51.65347064683045       49.33562334466434       41.44961910998297
H           53.84603721202470       47.30489786003261       43.65210440737263
H           54.67761074081021       47.44658983367486       42.10456812745955
H           53.31547159374387       44.93707914603196       43.15995259047181
H           54.39861389561253       43.84325454636628       41.17666503816514
H           53.15649517616073       44.99325775948375       40.70430762632870
H           54.85976399918324       45.43458395031833       40.57654192826841
H           56.25330279230057       45.50922134455953       42.64855329784243
H           55.56712985197407       44.01163259242727       43.26347712030936
H           55.61642706233154       46.68621844808320       44.70808711960850
H           54.79095397598878       45.33069011602094       46.67232141262512
H           53.59982558313227       45.49978866500816       45.38930398145581
H           54.49185989350430       43.98879274199381       45.56963486921308
H           57.75521633161251       45.18917807873923       44.37405816776782
H           56.97818604155912       44.11720838457796       45.53151588141996
H           56.81589125932432       46.17108269729411       47.09019016186400
H           58.44252484816814       44.33479937264097       47.43485236260637
H           59.56339842135515       45.10240533355235       46.30948045699967
H           59.16960808584516       45.88760466111858       47.84076219145767
H           57.30446231412004       47.77083018163692       45.14584159938018
H           58.96734989963655       47.23078296258795       45.22385953829474
H           58.10740582209269       47.96931429409070       47.89612770203053
H           60.07760895379699       49.32201801244553       46.01355612497291
H           60.00261828221731       49.51120804116513       47.76704514808961
H           60.44448415634388       47.95448490372010       47.06854345335189
H           57.49128625357346       49.97490179376832       45.70849167366057
H           57.84850873726280       50.47989548054575       47.35372009957798
H           55.70321279201433       48.41128979042357       46.85454905630946
H           56.64349862571544       48.91958279534344       49.16658474064315
H           55.96866024553597       50.53927033985846       49.01898236895869
H           54.90763628168484       49.12420553538395       49.02811272700328
H           55.13588324415539       50.26576040334978       45.38482518273716
H           55.49453612746682       51.43506640092726       46.65249638489090
H           53.55908051786621       50.56222697902775       47.97125396003694
H           52.95008373142188       51.59358423429659       45.17334622977376
H           51.88678022613026       51.72515006370899       46.57414802717010
H           53.42461359336557       52.57667590326243       46.55749248090652
H           53.55402123357080       48.29822601446152       46.61717998888562
H           52.64554002716144       49.21263256973726       45.42388255588578
H           51.10653830205461       49.85023692037836       47.46289311387635
H           49.70587072566588       47.87293763108387       47.00475083618960
H           50.43645415312199       48.46393940388645       45.51845265131264
H           51.09141033856314       47.02697066126098       46.31612966256224
H           52.67304399970860       48.88373594945385       49.14810338953895
H           52.43334204525593       47.28844698190397       48.43803254802852
H           50.05451214381234       47.34108910667472       49.11819447725385
H           52.03204795572030       47.90361534057892       51.36961512435029
H           50.51293916538949       47.02548670558421       51.52890197293371
H           51.80755245551124       46.35376912333748       50.55213321840463
H           49.67244491593890       49.75747217978533       49.06835654545149
H           50.85161286563657       50.00763353822314       50.35475884565290
H           49.37820784258839       48.89972995374964       51.97066665543058
H           47.57452977920342       50.59240939331634       51.95627697640871
H           49.11062869527060       51.33115434676331       51.50675761516786
H           47.91565491981421       50.95594789510884       50.26574619074761
H           45.07822240625266       62.75874615233975       55.75764096939294
H           45.26139783421655       61.31320043743099       56.75410376523097
C           74.98820872580303       64.15265145925302       58.15806156023587
C           74.89178892975787       65.67038079571286       58.28815682930708
C           74.84600916909244       66.05965657841308       59.76600411972532
C           73.64927814624529       66.22669897027605       57.58150741332393
C           73.52605076759306       65.90307135098269       56.08830203934816
C           74.75153833059510       66.38023243456023       55.30797836031982
C           72.27992827367424       66.56413713393972       55.48029141625360
C           70.93217538882224       66.20714742518672       56.11683246758795
C           70.69261550861998       64.69772199254463       56.12986193351078
C           69.78015298384280       66.87759699578677       55.35444458282353
C           69.78868326374874       68.41063537382452       55.29670414303273
C           69.88675283958379       69.03383655929930       56.68938895436150
C           68.50902956904740       68.92211256152106       54.61689765985786
C           68.38786717236668       68.63285511166538       53.11402158452778
C           69.36786042373132       69.49243869279749       52.31873775196700
C           66.94233740206360       68.88734721171761       52.66806400154648
C           66.58502487532770       68.41156740341772       51.25375898976998
C           65.16446103395954       68.87289516051710       50.92280068674461
C           66.69374684136214       66.88299141615511       51.10791435454692
C           67.94514633755433       66.38985498845572       50.37019123220588
C           67.81848292817787       66.66708185625632       48.87230123604400
C           68.14580166664541       64.88488584134481       50.59854152257535
C           68.78130710223128       64.52819602914337       51.94841352392094
C           70.30240645957524       64.65644942376153       51.85830255644482
C           68.41594152480403       63.10577243971744       52.39532349157872
C           66.95962439077371       62.91145744005760       52.83585812308149
C           66.68781102227575       63.65354711201132       54.14327609098730
C           66.64072765339466       61.42229803868349       53.03969777875444
C           66.54226908306438       60.58425878835442       51.75898169534755
C           65.21273003984979       60.83096156627852       51.04970570662060
C           66.68227696909426       59.08822821818717       52.06670836130584
C           68.07273207612961       58.69689560022269       52.60494221487227
C           68.79350894124308       57.78183530177036       51.61796054315951
C           67.94817365263502       58.06489145883042       53.99706590198998
C           69.25678855174985       57.99308166565464       54.79844303814528
C           69.87648375133618       56.59818787097640       54.71715653506011
C           69.03509731573104       58.34173320939906       56.27762759796564
C           68.61266380465361       59.78372751050279       56.59626632839699
C           69.69235735445113       60.78538951908241       56.19972652861270
C           68.29871865109244       59.86293552667335       58.09593686922445
C           67.79056641109898       61.20408153311237       58.64533085602932
C           67.50237992016380       61.01921386681382       60.13482686544400
C           66.54064891239688       61.67624765096931       57.89550150885114
C           65.89175373508743       62.97125491573709       58.40607147056597
C           64.54847638717021       63.15232193819232       57.70051277201511
C           66.80239061618516       64.18154152372475       58.16751048771326
C           66.34402962883468       65.48385293616808       58.83887844710811
C           67.01853553729771       66.67389491891444       58.15848425615378
C           66.66594475328165       65.48678673097443       60.33795581889698
C           65.91028685836443       66.56669201172475       61.13484493793623
C           66.87947423315552       67.37925299634999       61.99492547317339
C           64.82321289886229       65.96816060998847       62.03635087542776
C           63.71583311086493       65.18073816534583       61.32251686707820
C           62.85491526411131       66.09407078149503       60.45280963311503
C           62.86200004575819       64.46456588048498       62.37812404835682
C           61.90168767050618       63.39067529885391       61.84450813863511
C           60.84140262713152       63.10255516331567       62.90634952007876
C           62.67099444713019       62.11982913350693       61.46926353649955
C           61.86572679853532       61.03703566227448       60.74065241612222
C           62.73888588587107       59.79019862615712       60.59392785589968
C           61.36650594679133       61.50455591771113       59.36222680690435
C           59.87111447788430       61.83192071778566       59.28700814641692
C           59.03593325459941       60.56616921903955       59.46813965949330
C           59.51149824459878       62.44762368904412       57.92856561569623
C           60.09346351554804       63.83192708294142       57.61389966075769
C           59.49872691793544       64.89602199988281       58.52992105408133
C           59.81257330918580       64.13394604821013       56.13613867544570
C           60.39392186082062       65.42867759507378       55.55090003195264
C           59.92671057294201       65.53453980246560       54.09980420609301
C           61.92395959956102       65.44731575521379       55.63040271953489
C           62.58964085055612       66.78504360336369       55.27799573559621
C           64.08725912905147       66.55486129026801       55.07647975317535
C           62.34906457801514       67.82048451511918       56.38410209779578
C           62.68011734392574       69.27455865637471       56.00552406629853
C           63.35449415057494       69.97755584148175       57.18629552654927
C           61.43690193894497       70.07973861456180       55.59990919607478
C           60.73634309007362       69.66615496039468       54.29763537231579
C           61.66675330996485       69.83416329519591       53.09898299164443
C           59.47663546525224       70.52838008211992       54.12598146705806
C           58.49239217246518       70.08885968044997       53.02976336282956
C           57.58648054686100       71.27089857971418       52.68246702739012
C           57.67077275018246       68.87890751553931       53.49089596652160
C           56.80755363280133       68.21573529350491       52.40714960728416
C           55.75649972738477       67.32867070410045       53.07334708338288
C           57.65554129212484       67.39180387723209       51.42868212322085
C           56.98328111803064       67.14724128825164       50.07058848135655
C           57.62156834099274       65.95272071875644       49.36215455865030
C           56.96925707699910       68.38914818915153       49.16588733138340
C           58.33056237015623       68.90255779767720       48.70293229069260
C           58.17496203404800       70.12043160876364       47.79912840473783
H           75.15734047129199       63.85661491566827       57.12608411845721
H           75.81390667664185       63.77302654350930       58.75699826168460
H           74.06932712592253       63.68769206415158       58.50679588287874
H           57.58384720719581       69.87304217905718       46.91910450076771
H           57.67419279861121       70.92901586991056       48.32850958066484
H           59.14646196888012       70.48015491364906       47.46670519790423
H           56.37870900800949       68.15032732746381       48.27770988797669
H           56.45512278726010       69.20192206342084       49.68515408719869
H           58.61237832266678       67.88675139372346       51.26701237096574
H           57.87072053151584       66.42554651883195       51.89100527009192
H           56.28461366385328       68.99905077926023       51.85183503855504
H           55.08615656002279       67.92288713494293       53.69130599248456
H           55.15634420446300       66.80665351328069       52.33218825753660
H           56.23897564111854       66.58566986344835       53.70278082743302
H           58.34393713991654       68.12380873760226       53.89974482795981
H           57.01728176383612       69.20731947006233       54.30375803132558
H           58.93183058059284       70.55359978864033       55.07260144225853
H           59.80061011874134       71.55153554028074       53.91571619729311
H           55.93271920609686       66.88921127059000       50.25309068781747
H           57.44970694957075       65.03957430346523       49.92831360955208
H           57.19333857577571       65.82611450940969       48.36978248691955