      -----------------------------------------------------------      
     |                   =====================                   |     
     |                           x T B                           |     
     |                   =====================                   |     
     |                         S. Grimme                         |     
     |          Mulliken Center for Theoretical Chemistry        |     
     |                    University of Bonn                     |     
      -----------------------------------------------------------      

   * xtb version 6.6.1 (8d0f1dd) compiled by 'stahn@M-Bot' on 2023-08-01

   xtb is free software: you can redistribute it and/or modify it under
   the terms of the GNU Lesser General Public License as published by
   the Free Software Foundation, either version 3 of the License, or
   (at your option) any later version.
   
   xtb is distributed in the hope that it will be useful,
   but WITHOUT ANY WARRANTY; without even the implied warranty of
   MERCHANTABILITY or FITNESS FOR A PARTICULAR PURPOSE.  See the
   GNU Lesser General Public License for more details.
   
   Cite this work as:
   * C. Bannwarth, E. Caldeweyher, S. Ehlert, A. Hansen, P. Pracht,
     J. Seibert, S. Spicher, S. Grimme, WIREs Comput. Mol. Sci., 2020, 11,
     e01493. DOI: 10.1002/wcms.1493
   
   for GFN2-xTB:
   * C. Bannwarth, S. Ehlert and S. Grimme., J. Chem. Theory Comput., 2019,
     15, 1652-1671. DOI: 10.1021/acs.jctc.8b01176
   for GFN1-xTB:
   * S. Grimme, C. Bannwarth, P. Shushkov, J. Chem. Theory Comput., 2017,
     13, 1989-2009. DOI: 10.1021/acs.jctc.7b00118
   for GFN0-xTB:
   * P. Pracht, E. Caldeweyher, S. Ehlert, S. Grimme, ChemRxiv, 2019, preprint.
     DOI: 10.26434/chemrxiv.8326202.v1
   for GFN-FF:
   * S. Spicher and S. Grimme, Angew. Chem. Int. Ed., 2020, 59, 15665-15673.
     DOI: 10.1002/anie.202004239
   
   for ALPB and GBSA implicit solvation:
   * S. Ehlert, M. Stahn, S. Spicher, S. Grimme, J. Chem. Theory Comput.,
     2021, 17, 4250-4261. DOI: 10.1021/acs.jctc.1c00471
   
   for DFT-D4:
   * E. Caldeweyher, C. Bannwarth and S. Grimme, J. Chem. Phys., 2017,
     147, 034112. DOI: 10.1063/1.4993215
   * E. Caldeweyher, S. Ehlert, A. Hansen, H. Neugebauer, S. Spicher,
     C. Bannwarth and S. Grimme, J. Chem. Phys., 2019, 150, 154122.
     DOI: 10.1063/1.5090222
   * E. Caldeweyher, J.-M. Mewes, S. Ehlert and S. Grimme, Phys. Chem. Chem. Phys.
     2020, 22, 8499-8512. DOI: 10.1039/D0CP00502A
   
   for sTDA-xTB:
   * S. Grimme and C. Bannwarth, J. Chem. Phys., 2016, 145, 054103.
     DOI: 10.1063/1.4959605
   
   in the mass-spec context:
   * V. Asgeirsson, C. Bauer and S. Grimme, Chem. Sci., 2017, 8, 4879.
     DOI: 10.1039/c7sc00601b
   * J. Koopman and S. Grimme, ACS Omega 2019, 4, 12, 15120-15133.
     DOI: 10.1021/acsomega.9b02011
   
   for metadynamics refer to:
   * S. Grimme, J. Chem. Theory Comput., 2019, 155, 2847-2862
     DOI: 10.1021/acs.jctc.9b00143
   
   for SPH calculations refer to:
   * S. Spicher and S. Grimme, J. Chem. Theory Comput., 2021, 17, 1701-1714
     DOI: 10.1021/acs.jctc.0c01306
   
   with help from (in alphabetical order)
   P. Atkinson, C. Bannwarth, F. Bohle, G. Brandenburg, E. Caldeweyher
   M. Checinski, S. Dohm, S. Ehlert, S. Ehrlich, I. Gerasimov, C. Hölzer
   A. Katbashev, J. Koopman, C. Lavigne, S. Lehtola, F. März, M. Müller,
   F. Musil, H. Neugebauer, J. Pisarek, C. Plett, P. Pracht, F. Pultar,
   J. Seibert, P. Shushkov, S. Spicher, M. Stahn, M. Steiner, T. Strunk,
   J. Stückrath, T. Rose, and J. Unsleber
   
 * started run on 2024/10/04 at 03:03:50.210     

           -------------------------------------------------
          |                Calculation Setup                |
           -------------------------------------------------

          program call               : /home/abt-grimme/AK-bin/xtb input.xyz --input input.inp --opt
          hostname                   : boar108.thch.uni-bonn.de
          coordinate file            : input.xyz
          omp threads                :                     8

   ID    Z sym.   atoms
    1    6 C      1-120, 363-482, 725-844, 1087-1206, 1449-1568, 1811-1930,
                  2173-2292, 2535-2654, 2897-3016
    2    1 H      121-362, 483-724, 845-1086, 1207-1448, 1569-1810,
                  1931-2172, 2293-2534, 2655-2896, 3017-3258

molecular fragmentation (1/2 indicates fragments):
111111111111111111111111111111111111111111111111111111111111111111111111
111111111111111111111111111111111111111111111111111111111111111111111111
111111111111111111111111111111111111111111111111111111111111111111111111
111111111111111111111111111111111111111111111111111111111111111111111111
111111111111111111111111111111111111111111111111111111111111111111111111
112222222222222222222222222222222222222222222222222222222222222222222222
222222222222222222222222222222222222222222222222222222222222222222222222
222222222222222222222222222222222222222222222222222222222222222222222222
222222222222222222222222222222222222222222222222222222222222222222222222
222222222222222222222222222222222222222222222222222222222222222222222222
222222222222222222222222222222222222222222222222222222222222222222222222
222222222222222222222222222222222222222222222222222222222222222222222222
222222222222222222222222222222222222222222222222222222222222222222222222
222222222222222222222222222222222222222222222222222222222222222222222222
222222222222222222222222222222222222222222222222222222222222222222222222
222222222222222222222222222222222222222222222222222222222222222222222222
222222222222222222222222222222222222222222222222222222222222222222222222
222222222222222222222222222222222222222222222222222222222222222222222222
222222222222222222222222222222222222222222222222222222222222222222222222
222222222222222222222222222222222222222222222222222222222222222222222222
222222222222222222222222222222222222222222222222222222222222222222222222
222222222222222222222222222222222222222222222222222222222222222222222222
222222222222222222222222222222222222222222222222222222222222222222222222
222222222222222222222222222222222222222222222222222222222222222222222222
222222222222222222222222222222222222222222222222222222222222222222222222
222222222222222222222222222222222222222222222222222222222222222222222222
222222222222222222222222222222222222222222222222222222222222222222222222
222222222222222222222222222222222222222222222222222222222222222222222222
222222222222222222222222222222222222222222222222222222222222222222222222
222222222222222222222222222222222222222222222222222222222222222222222222
222222222222222222222222222222222222222222222222222222222222222222222222
222222222222222222222222222222222222222222222222222222222222222222222222
222222222222222222222222222222222222222222222222222222222222222222222222
222222222222222222222222222222222222222222222222222222222222222222222222
222222222222222222222222222222222222222222222222222222222222222222222222
222222222222222222222222222222222222222222222222222222222222222222222222
222222222222222222222222222222222222222222222222222222222222222222222222
222222222222222222222222222222222222222222222222222222222222222222222222
222222222222222222222222222222222222222222222222222222222222222222222222
222222222222222222222222222222222222222222222222222222222222222222222222
222222222222222222222222222222222222222222222222222222222222222222222222
222222222222222222222222222222222222222222222222222222222222222222222222
222222222222222222222222222222222222222222222222222222222222222222222222
222222222222222222222222222222222222222222222222222222222222222222222222
222222222222222222222222222222222222222222222222222222222222222222222222
222222222222222222
# atoms in fragment 1/2:   362  2896
 fragment masses (1/2) :     1685.21    13481.68
CMA distance (Bohr)    :  16.659
constraining FC (au)   :  0.0500

           -------------------------------------------------
          |                 G F N 2 - x T B                 |
           -------------------------------------------------

        Reference                      10.1021/acs.jctc.8b01176
      * Hamiltonian:
        H0-scaling (s, p, d)           1.850000    2.230000    2.230000
        zeta-weighting                 0.500000
      * Dispersion:
        s8                             2.700000
        a1                             0.520000
        a2                             5.000000
        s9                             5.000000
      * Repulsion:
        kExp                           1.500000    1.000000
        rExp                           1.000000
      * Coulomb:
        alpha                          2.000000
        third order                    shell-resolved
        anisotropic                    true
        a3                             3.000000
        a5                             4.000000
        cn-shift                       1.200000
        cn-exp                         4.000000
        max-rad                        5.000000


          ...................................................
          :                      SETUP                      :
          :.................................................:
          :  # basis functions                6498          :
          :  # atomic orbitals                6498          :
          :  # shells                         4338          :
          :  # electrons                      6498          :
          :  max. iterations                   250          :
          :  Hamiltonian                  GFN2-xTB          :
          :  restarted?                      false          :
          :  GBSA solvation                  false          :
          :  PC potential                    false          :
          :  electronic temp.          300.0000000     K    :
          :  accuracy                    1.0000000          :
          :  -> integral cutoff          0.2500000E+02      :
          :  -> integral neglect         0.1000000E-07      :
          :  -> SCF convergence          0.1000000E-05 Eh   :
          :  -> wf. convergence          0.1000000E-03 e    :
          :  Broyden damping             0.4000000          :
          ...................................................

 iter      E             dE          RMSdq      gap      omega  full diag
   1  -3473.3890503 -0.347339E+04  0.243E+00   11.41       0.0  T
   2  -3478.4952164 -0.510617E+01  0.134E+00   11.47       1.0  T
   3  -3478.6985880 -0.203372E+00  0.596E-01   11.41       1.0  T
   4  -3478.7191160 -0.205280E-01  0.754E-02   11.46       1.0  T
   5  -3478.7200357 -0.919781E-03  0.389E-02   11.47       1.0  T
   6  -3478.7202426 -0.206873E-03  0.614E-03   11.46       1.0  T
   7  -3478.7202580 -0.154134E-04  0.123E-03   11.46       1.4  T
   8  -3478.7202590 -0.996736E-06  0.384E-04   11.46       4.6  T
   9  -3478.7202591 -0.616078E-07  0.140E-04   11.46      12.5  T

   *** convergence criteria satisfied after 9 iterations ***

         #    Occupation            Energy/Eh            Energy/eV
      -------------------------------------------------------------
         1        2.0000           -0.6248378             -17.0027
       ...           ...                  ...                  ...
      3243        2.0000           -0.4019723             -10.9382
      3244        2.0000           -0.4017204             -10.9314
      3245        2.0000           -0.4016835             -10.9304
      3246        2.0000           -0.4013132             -10.9203
      3247        2.0000           -0.4008607             -10.9080
      3248        2.0000           -0.4002702             -10.8919
      3249        2.0000           -0.3996991             -10.8764 (HOMO)
      3250                          0.0215914               0.5875 (LUMO)
      3251                          0.0234673               0.6386
      3252                          0.0257192               0.6999
      3253                          0.0257665               0.7011
      3254                          0.0270677               0.7366
       ...                                ...                  ...
      6498                          0.3795994              10.3294
      -------------------------------------------------------------
                  HL-Gap            0.4212905 Eh           11.4639 eV
             Fermi-level           -0.1890538 Eh           -5.1444 eV

 SCC (total)                   0 d,  0 h, 13 min, 11.478 sec
 SCC setup                      ...        0 min,  0.490 sec (  0.062%)
 Dispersion                     ...        0 min,  3.565 sec (  0.450%)
 classical contributions        ...        0 min,  0.142 sec (  0.018%)
 integral evaluation            ...        0 min,  6.387 sec (  0.807%)
 iterations                     ...        9 min,  2.975 sec ( 68.603%)
 molecular gradient             ...        3 min, 49.428 sec ( 28.987%)
 printout                       ...        0 min,  8.491 sec (  1.073%)

         :::::::::::::::::::::::::::::::::::::::::::::::::::::
         ::                     SUMMARY                     ::
         :::::::::::::::::::::::::::::::::::::::::::::::::::::
         :: total energy           -3427.476938115889 Eh    ::
         :: gradient norm              0.018264954996 Eh/a0 ::
         :: HOMO-LUMO gap             11.463898526975 eV    ::
         ::.................................................::
         :: SCC energy             -3478.720259092981 Eh    ::
         :: -> isotropic ES            0.422175495452 Eh    ::
         :: -> anisotropic ES          1.112588290398 Eh    ::
         :: -> anisotropic XC          1.946248848970 Eh    ::
         :: -> dispersion             -4.031209472322 Eh    ::
         :: repulsion energy          50.606174052799 Eh    ::
         :: add. restraining           0.000000000000 Eh    ::
         :: total charge              -0.000000000014 e     ::
         :::::::::::::::::::::::::::::::::::::::::::::::::::::

      ----------------------------------------------------------- 
     |              Fast Inertial Relaxation Engine              |
      ----------------------------------------------------------- 

          ...................................................
          :                      SETUP                      :
          :.................................................:
          :   energy convergence        0.5000000E-05 Eh    :
          :   grad. convergence         0.1000000E-02 Eh/a0 :
          :   optimization log               true           :
          :   writing optlog all                1     steps :
          :   Hessian reset                    20     steps :
          :   time step scaling                 5     steps :
          :   maximium step len.        1.0000000     a0    :
          :   initial time step         0.2500000     fs    :
          :   maximum time step         1.2500000     fs    :
          :   power reset thr           0.0000000     au    :
          :   alpha parameter           0.1000000           :
          :   BFGS update                   false           :
          :   preconditioning               false           :
          ...................................................

........................................................................
.............................. CYCLE    1 ..............................
........................................................................

 iter      E             dE          RMSdq      gap      omega  full diag
   1  -3478.7238437 -0.347872E+04  0.268E-04   11.46       0.0  T
   2  -3478.7238437 -0.263499E-07  0.154E-04   11.46      11.3  T
   3  -3478.7238437 -0.458385E-09  0.475E-05   11.46      36.9  T
     SCC iter.                  ...        3 min,  1.212 sec
     gradient                   ...        3 min, 49.026 sec
 * total energy  : -3427.4769756 Eh     change    :  -0.3750692E-04 Eh
   gradient norm :     0.0167896 Eh/a0  converged?    E=F G=F D=F
   time step     :     0.2500000 fs     power     :   0.1907138E-08
   step length   :     0.0021406 a0     speed     :   0.2071159E-03

........................................................................
.............................. CYCLE    2 ..............................
........................................................................

 iter      E             dE          RMSdq      gap      omega  full diag
   1  -3478.7290549 -0.347873E+04  0.380E-04   11.46       0.0  T
   2  -3478.7290550 -0.586747E-07  0.217E-04   11.46       8.1  T
   3  -3478.7290550 -0.124373E-08  0.705E-05   11.46      24.8  T
     SCC iter.                  ...        2 min, 57.676 sec
     gradient                   ...        3 min, 50.782 sec
 * total energy  : -3427.4770248 Eh     change    :  -0.4912996E-04 Eh
   gradient norm :     0.0146811 Eh/a0  converged?    E=F G=F D=F
   time step     :     0.2500000 fs     power     :   0.2431106E-08
   step length   :     0.0031243 a0     speed     :   0.3022906E-03

........................................................................
.............................. CYCLE    3 ..............................
........................................................................

 iter      E             dE          RMSdq      gap      omega  full diag
   1  -3478.7356637 -0.347874E+04  0.484E-04   11.46       0.0  T
   2  -3478.7356638 -0.944037E-07  0.276E-04   11.46       6.3  T
   3  -3478.7356638 -0.205910E-08  0.892E-05   11.46      19.6  T
     SCC iter.                  ...        2 min, 58.851 sec
     gradient                   ...        3 min, 50.818 sec
 * total energy  : -3427.4770778 Eh     change    :  -0.5309082E-04 Eh
   gradient norm :     0.0120503 Eh/a0  converged?    E=F G=F D=F
   time step     :     0.2500000 fs     power     :   0.2533526E-08
   step length   :     0.0039834 a0     speed     :   0.3854148E-03

........................................................................
.............................. CYCLE    4 ..............................
........................................................................

 iter      E             dE          RMSdq      gap      omega  full diag
   1  -3478.7433751 -0.347874E+04  0.567E-04   11.46       0.0  T
   2  -3478.7433753 -0.128261E-06  0.324E-04   11.46       5.4  T
   3  -3478.7433753 -0.272530E-08  0.104E-04   11.46      16.9  T
     SCC iter.                  ...        2 min, 54.771 sec
     gradient                   ...        3 min, 49.535 sec
 * total energy  : -3427.4771268 Eh     change    :  -0.4899990E-04 Eh
   gradient norm :     0.0090858 Eh/a0  converged?    E=F G=F D=F
   time step     :     0.2500000 fs     power     :   0.2211350E-08
   step length   :     0.0046848 a0     speed     :   0.4532791E-03

........................................................................
.............................. CYCLE    5 ..............................
........................................................................

 iter      E             dE          RMSdq      gap      omega  full diag
   1  -3478.7518250 -0.347875E+04  0.627E-04   11.46       0.0  T
   2  -3478.7518251 -0.153038E-06  0.358E-04   11.46       4.9  T
   3  -3478.7518251 -0.346017E-08  0.113E-04   11.46      15.5  T
     SCC iter.                  ...        2 min, 57.272 sec
     gradient                   ...        3 min, 49.794 sec
 * total energy  : -3427.4771647 Eh     change    :  -0.3785785E-04 Eh
   gradient norm :     0.0061379 Eh/a0  converged?    E=F G=F D=F
   time step     :     0.2500000 fs     power     :   0.1539798E-08
   step length   :     0.0052000 a0     speed     :   0.5031306E-03

........................................................................
.............................. CYCLE    6 ..............................
........................................................................

 iter      E             dE          RMSdq      gap      omega  full diag
   1  -3478.7614534 -0.347876E+04  0.726E-04   11.46       0.0  T
   2  -3478.7614536 -0.196516E-06  0.416E-04   11.46       4.2  T
   3  -3478.7614536 -0.446653E-08  0.127E-04   11.46      13.8  T
     SCC iter.                  ...        2 min, 59.827 sec
     gradient                   ...        3 min, 51.022 sec
 * total energy  : -3427.4771882 Eh     change    :  -0.2346668E-04 Eh
   gradient norm :     0.0040301 Eh/a0  converged?    E=F G=F D=F
   time step     :     0.2750000 fs     power     :   0.5772312E-09
   step length   :     0.0060780 a0     speed     :   0.5346196E-03

........................................................................
.............................. CYCLE    7 ..............................
........................................................................

 iter      E             dE          RMSdq      gap      omega  full diag
   1  -3478.7712366 -0.347877E+04  0.774E-04   11.46       0.0  T
   2  -3478.7712368 -0.197766E-06  0.446E-04   11.46       3.9  T
   3  -3478.7712368 -0.471846E-08  0.124E-04   11.46      14.1  T
     SCC iter.                  ...        2 min, 57.421 sec
     gradient                   ...        3 min, 50.016 sec
 * total energy  : -3427.4771921 Eh     change    :  -0.3910954E-05 Eh
   gradient norm :     0.0050271 Eh/a0  converged?    E=T G=F D=F
   time step     :     0.3025000 fs     power     :  -0.3585403E-09
   step length   :     0.0065751 a0     speed     :   0.5257660E-03

........................................................................
.............................. CYCLE    8 ..............................
........................................................................
 * reset velocities

 iter      E             dE          RMSdq      gap      omega  full diag
   1  -3478.7711160 -0.347877E+04  0.135E-05   11.46       0.0  T
   2  -3478.7711160 -0.141426E-09  0.715E-06   11.46     244.9  T
   3  -3478.7711160  0.363798E-11  0.327E-06   11.46     535.0  T
     SCC iter.                  ...        2 min, 58.111 sec
     gradient                   ...        3 min, 50.982 sec
 * total energy  : -3427.4771926 Eh     change    :  -0.5400875E-06 Eh
   gradient norm :     0.0049670 Eh/a0  converged?    E=T G=F D=T
   time step     :     0.1512500 fs     power     :   0.4698493E-10
   step length   :     0.0001078 a0     speed     :   0.1724391E-04

........................................................................
.............................. CYCLE    9 ..............................
........................................................................

 iter      E             dE          RMSdq      gap      omega  full diag
   1  -3478.7708767 -0.347877E+04  0.266E-05   11.46       0.0  T
   2  -3478.7708767 -0.198725E-09  0.155E-05   11.46     112.9  T
   3  -3478.7708767  0.113687E-10  0.387E-06   11.46     453.2  T
     SCC iter.                  ...        3 min,  2.786 sec
     gradient                   ...        3 min, 48.681 sec
 * total energy  : -3427.4771937 Eh     change    :  -0.1052623E-05 Eh
   gradient norm :     0.0048549 Eh/a0  converged?    E=T G=F D=T
   time step     :     0.1512500 fs     power     :   0.9128760E-10
   step length   :     0.0002144 a0     speed     :   0.3428155E-04

........................................................................
.............................. CYCLE   10 ..............................
........................................................................

 iter      E             dE          RMSdq      gap      omega  full diag
   1  -3478.7705241 -0.347877E+04  0.391E-05   11.46       0.0  T
   2  -3478.7705241 -0.395630E-09  0.228E-05   11.46      76.9  T
   3  -3478.7705241 -0.277396E-10  0.570E-06   11.46     307.2  T
     SCC iter.                  ...        3 min,  2.257 sec
     gradient                   ...        3 min, 48.916 sec
 * total energy  : -3427.4771952 Eh     change    :  -0.1519843E-05 Eh
   gradient norm :     0.0046915 Eh/a0  converged?    E=T G=F D=T
   time step     :     0.1512500 fs     power     :   0.1310147E-09
   step length   :     0.0003185 a0     speed     :   0.5093291E-04

........................................................................
.............................. CYCLE   11 ..............................
........................................................................

 iter      E             dE          RMSdq      gap      omega  full diag
   1  -3478.7700659 -0.347877E+04  0.513E-05   11.46       0.0  T
   2  -3478.7700659 -0.705313E-09  0.299E-05   11.46      58.6  T
   3  -3478.7700659  0.118234E-10  0.744E-06   11.46     235.5  T
     SCC iter.                  ...        2 min, 55.468 sec
     gradient                   ...        3 min, 50.415 sec
 * total energy  : -3427.4771971 Eh     change    :  -0.1920830E-05 Eh
   gradient norm :     0.0044818 Eh/a0  converged?    E=T G=F D=T
   time step     :     0.1512500 fs     power     :   0.1645360E-09
   step length   :     0.0004191 a0     speed     :   0.6701806E-04

........................................................................
.............................. CYCLE   12 ..............................
........................................................................

 iter      E             dE          RMSdq      gap      omega  full diag
   1  -3478.7695126 -0.347877E+04  0.628E-05   11.46       0.0  T
   2  -3478.7695126 -0.949058E-09  0.366E-05   11.46      47.8  T
   3  -3478.7695126 -0.186446E-10  0.901E-06   11.46     194.6  T
     SCC iter.                  ...        2 min, 59.783 sec
     gradient                   ...        3 min, 49.487 sec
 * total energy  : -3427.4771994 Eh     change    :  -0.2238482E-05 Eh
   gradient norm :     0.0042328 Eh/a0  converged?    E=T G=F D=T
   time step     :     0.1512500 fs     power     :   0.1906366E-09
   step length   :     0.0005150 a0     speed     :   0.8236838E-04

........................................................................
.............................. CYCLE   13 ..............................
........................................................................

 iter      E             dE          RMSdq      gap      omega  full diag
   1  -3478.7688779 -0.347877E+04  0.734E-05   11.46       0.0  T
   2  -3478.7688779 -0.130194E-08  0.429E-05   11.46      40.9  T
   3  -3478.7688779 -0.518412E-10  0.104E-05   11.46     168.8  T
     SCC iter.                  ...        2 min, 56.138 sec
     gradient                   ...        3 min, 49.681 sec
 * total energy  : -3427.4772018 Eh     change    :  -0.2468666E-05 Eh
   gradient norm :     0.0039540 Eh/a0  converged?    E=T G=F D=T
   time step     :     0.1512500 fs     power     :   0.2086147E-09
   step length   :     0.0006055 a0     speed     :   0.9683081E-04

........................................................................
.............................. CYCLE   14 ..............................
........................................................................

 iter      E             dE          RMSdq      gap      omega  full diag
   1  -3478.7681004 -0.347877E+04  0.924E-05   11.46       0.0  T
   2  -3478.7681004 -0.200498E-08  0.540E-05   11.46      32.4  T
   3  -3478.7681004 -0.723048E-10  0.128E-05   11.46     136.4  T
     SCC iter.                  ...        2 min, 57.902 sec
     gradient                   ...        3 min, 48.924 sec
 * total energy  : -3427.4772047 Eh     change    :  -0.2884232E-05 Eh
   gradient norm :     0.0036248 Eh/a0  converged?    E=T G=F D=T
   time step     :     0.1663750 fs     power     :   0.2188020E-09
   step length   :     0.0007677 a0     speed     :   0.1116204E-03

........................................................................
.............................. CYCLE   15 ..............................
........................................................................

 iter      E             dE          RMSdq      gap      omega  full diag
   1  -3478.7671791 -0.347877E+04  0.114E-04   11.46       0.0  T
   2  -3478.7671791 -0.298496E-08  0.667E-05   11.46      26.3  T
   3  -3478.7671791 -0.836735E-10  0.154E-05   11.46     113.8  T
     SCC iter.                  ...        2 min, 58.636 sec
     gradient                   ...        3 min, 48.532 sec
 * total energy  : -3427.4772079 Eh     change    :  -0.3228862E-05 Eh
   gradient norm :     0.0032595 Eh/a0  converged?    E=T G=F D=T
   time step     :     0.1830125 fs     power     :   0.2190793E-09
   step length   :     0.0009561 a0     speed     :   0.1263705E-03

........................................................................
.............................. CYCLE   16 ..............................
........................................................................

 iter      E             dE          RMSdq      gap      omega  full diag
   1  -3478.7661327 -0.347877E+04  0.138E-04   11.46       0.0  T
   2  -3478.7661327 -0.407954E-08  0.806E-05   11.46      21.7  T
   3  -3478.7661327 -0.759428E-10  0.178E-05   11.46      98.5  T
     SCC iter.                  ...        2 min, 56.847 sec
     gradient                   ...        3 min, 48.129 sec
 * total energy  : -3427.4772114 Eh     change    :  -0.3451305E-05 Eh
   gradient norm :     0.0028923 Eh/a0  converged?    E=T G=F D=F
   time step     :     0.2013138 fs     power     :   0.2084098E-09
   step length   :     0.0011700 a0     speed     :   0.1405801E-03

........................................................................
.............................. CYCLE   17 ..............................
........................................................................

 iter      E             dE          RMSdq      gap      omega  full diag
   1  -3478.7650131 -0.347877E+04  0.162E-04   11.46       0.0  T
   2  -3478.7650131 -0.509635E-08  0.952E-05   11.46      18.4  T
   3  -3478.7650131 -0.105501E-09  0.196E-05   11.46      89.4  T
     SCC iter.                  ...        2 min, 54.906 sec
     gradient                   ...        3 min, 48.772 sec
 * total energy  : -3427.4772149 Eh     change    :  -0.3511751E-05 Eh
   gradient norm :     0.0025854 Eh/a0  converged?    E=T G=F D=F
   time step     :     0.2214451 fs     power     :   0.1880878E-09
   step length   :     0.0014060 a0     speed     :   0.1535851E-03

........................................................................
.............................. CYCLE   18 ..............................
........................................................................

 iter      E             dE          RMSdq      gap      omega  full diag
   1  -3478.7639232 -0.347876E+04  0.185E-04   11.46       0.0  T
   2  -3478.7639232 -0.568707E-08  0.109E-04   11.46      16.0  T
   3  -3478.7639232 -0.103228E-09  0.202E-05   11.46      86.9  T
     SCC iter.                  ...        2 min, 56.970 sec
     gradient                   ...        3 min, 49.287 sec
 * total energy  : -3427.4772183 Eh     change    :  -0.3437106E-05 Eh
   gradient norm :     0.0024173 Eh/a0  converged?    E=T G=F D=F
   time step     :     0.2435896 fs     power     :   0.1630399E-09
   step length   :     0.0016571 a0     speed     :   0.1645562E-03

........................................................................
.............................. CYCLE   19 ..............................
........................................................................

 iter      E             dE          RMSdq      gap      omega  full diag
   1  -3478.7630250 -0.347876E+04  0.206E-04   11.46       0.0  T
   2  -3478.7630251 -0.531236E-08  0.122E-04   11.46      14.4  T
   3  -3478.7630251 -0.107775E-09  0.189E-05   11.46      92.6  T
     SCC iter.                  ...        2 min, 59.341 sec
     gradient                   ...        3 min, 49.668 sec
 * total energy  : -3427.4772217 Eh     change    :  -0.3322944E-05 Eh
   gradient norm :     0.0024194 Eh/a0  converged?    E=T G=F D=F
   time step     :     0.2679486 fs     power     :   0.1416628E-09
   step length   :     0.0019137 a0     speed     :   0.1727556E-03

........................................................................
.............................. CYCLE   20 ..............................
........................................................................

 iter      E             dE          RMSdq      gap      omega  full diag
   1  -3478.7625208 -0.347876E+04  0.223E-04   11.46       0.0  T
   2  -3478.7625208 -0.416821E-08  0.132E-04   11.46      13.3  T
   3  -3478.7625208 -0.786713E-10  0.162E-05   11.46     108.2  T
     SCC iter.                  ...        2 min, 57.634 sec
     gradient                   ...        3 min, 47.875 sec
 * total energy  : -3427.4772250 Eh     change    :  -0.3378070E-05 Eh
   gradient norm :     0.0025157 Eh/a0  converged?    E=T G=F D=F
   time step     :     0.2947435 fs     power     :   0.1320461E-09
   step length   :     0.0021734 a0     speed     :   0.1783650E-03
 * RMSD in coord.:     0.0005531 a0     energy gain  -0.2869179E-03 Eh

........................................................................
.............................. CYCLE   21 ..............................
........................................................................

 iter      E             dE          RMSdq      gap      omega  full diag
   1  -3478.7625568 -0.347876E+04  0.182E-04   11.46       0.0  T
   2  -3478.7625568 -0.159662E-08  0.107E-04   11.46      16.3  T
   3  -3478.7625568 -0.964064E-10  0.105E-05   11.46     166.1  T
     SCC iter.                  ...        2 min, 59.444 sec
     gradient                   ...        3 min, 47.865 sec
 * total energy  : -3427.4772279 Eh     change    :  -0.2843143E-05 Eh
   gradient norm :     0.0025543 Eh/a0  converged?    E=T G=F D=F
   time step     :     0.2500000 fs     power     :   0.1386540E-09
   step length   :     0.0018583 a0     speed     :   0.1798007E-03

........................................................................
.............................. CYCLE   22 ..............................
........................................................................

 iter      E             dE          RMSdq      gap      omega  full diag
   1  -3478.7630506 -0.347876E+04  0.177E-04   11.46       0.0  T
   2  -3478.7630506 -0.128011E-08  0.104E-04   11.46      16.8  T
   3  -3478.7630506 -0.313776E-10  0.101E-05   11.46     174.0  T
     SCC iter.                  ...        2 min, 57.557 sec
     gradient                   ...        3 min, 48.627 sec
 * total energy  : -3427.4772309 Eh     change    :  -0.3016467E-05 Eh
   gradient norm :     0.0024825 Eh/a0  converged?    E=T G=F D=F
   time step     :     0.2500000 fs     power     :   0.1499872E-09
   step length   :     0.0018781 a0     speed     :   0.1817186E-03

........................................................................
.............................. CYCLE   23 ..............................
........................................................................

 iter      E             dE          RMSdq      gap      omega  full diag
   1  -3478.7639622 -0.347876E+04  0.177E-04   11.46       0.0  T
   2  -3478.7639622 -0.165437E-08  0.103E-04   11.46      17.0  T
   3  -3478.7639622  0.582077E-10  0.110E-05   11.46     159.4  T
     SCC iter.                  ...        2 min, 57.303 sec
     gradient                   ...        3 min, 49.738 sec
 * total energy  : -3427.4772341 Eh     change    :  -0.3171092E-05 Eh
   gradient norm :     0.0022863 Eh/a0  converged?    E=T G=F D=F
   time step     :     0.2500000 fs     power     :   0.1579079E-09
   step length   :     0.0019108 a0     speed     :   0.1848788E-03

........................................................................
.............................. CYCLE   24 ..............................
........................................................................

 iter      E             dE          RMSdq      gap      omega  full diag
   1  -3478.7652250 -0.347877E+04  0.179E-04   11.46       0.0  T
   2  -3478.7652250 -0.247837E-08  0.104E-04   11.46      16.9  T
   3  -3478.7652250 -0.964064E-10  0.128E-05   11.46     136.4  T
     SCC iter.                  ...        3 min,  1.421 sec
     gradient                   ...        3 min, 48.309 sec
 * total energy  : -3427.4772372 Eh     change    :  -0.3172840E-05 Eh
   gradient norm :     0.0019873 Eh/a0  converged?    E=T G=F D=F
   time step     :     0.2500000 fs     power     :   0.1562524E-09
   step length   :     0.0019556 a0     speed     :   0.1892154E-03

........................................................................
.............................. CYCLE   25 ..............................
........................................................................

 iter      E             dE          RMSdq      gap      omega  full diag
   1  -3478.7667477 -0.347877E+04  0.182E-04   11.46       0.0  T
   2  -3478.7667477 -0.349382E-08  0.105E-04   11.46      16.7  T
   3  -3478.7667477 -0.654836E-10  0.150E-05   11.46     116.6  T
     SCC iter.                  ...        2 min, 57.953 sec
     gradient                   ...        3 min, 48.950 sec
 * total energy  : -3427.4772402 Eh     change    :  -0.2975575E-05 Eh
   gradient norm :     0.0016439 Eh/a0  converged?    E=T G=F D=F
   time step     :     0.2500000 fs     power     :   0.1425833E-09
   step length   :     0.0020068 a0     speed     :   0.1941641E-03

........................................................................
.............................. CYCLE   26 ..............................
........................................................................

 iter      E             dE          RMSdq      gap      omega  full diag
   1  -3478.7685806 -0.347877E+04  0.202E-04   11.46       0.0  T
   2  -3478.7685806 -0.507498E-08  0.116E-04   11.46      15.1  T
   3  -3478.7685806 -0.149612E-09  0.185E-05   11.46      94.9  T
     SCC iter.                  ...        2 min, 56.451 sec
     gradient                   ...        3 min, 49.200 sec
 * total energy  : -3427.4772430 Eh     change    :  -0.2809311E-05 Eh
   gradient norm :     0.0013447 Eh/a0  converged?    E=T G=F D=F
   time step     :     0.2750000 fs     power     :   0.1162295E-09
   step length   :     0.0022698 a0     speed     :   0.1996515E-03

........................................................................
.............................. CYCLE   27 ..............................
........................................................................

 iter      E             dE          RMSdq      gap      omega  full diag
   1  -3478.7705262 -0.347877E+04  0.215E-04   11.46       0.0  T
   2  -3478.7705262 -0.589671E-08  0.123E-04   11.46      14.2  T
   3  -3478.7705262 -0.208274E-09  0.197E-05   11.46      88.8  T
     SCC iter.                  ...        2 min, 57.948 sec
     gradient                   ...        3 min, 48.775 sec
 * total energy  : -3427.4772454 Eh     change    :  -0.2408354E-05 Eh
   gradient norm :     0.0012996 Eh/a0  converged?    E=T G=F D=F
   time step     :     0.3025000 fs     power     :   0.8501146E-10
   step length   :     0.0025455 a0     speed     :   0.2035451E-03

........................................................................
.............................. CYCLE   28 ..............................
........................................................................

 iter      E             dE          RMSdq      gap      omega  full diag
   1  -3478.7722316 -0.347877E+04  0.214E-04   11.46       0.0  T
   2  -3478.7722316 -0.458522E-08  0.123E-04   11.46      14.3  T
   3  -3478.7722316 -0.125965E-09  0.169E-05   11.46     103.6  T
     SCC iter.                  ...        2 min, 56.271 sec
     gradient                   ...        3 min, 49.583 sec
 * total energy  : -3427.4772475 Eh     change    :  -0.2027596E-05 Eh
   gradient norm :     0.0015107 Eh/a0  converged?    E=T G=F D=F
   time step     :     0.3327500 fs     power     :   0.6474480E-10
   step length   :     0.0027852 a0     speed     :   0.2024690E-03

........................................................................
.............................. CYCLE   29 ..............................
........................................................................

 iter      E             dE          RMSdq      gap      omega  full diag
   1  -3478.7733681 -0.347877E+04  0.202E-04   11.46       0.0  T
   2  -3478.7733681 -0.224509E-08  0.116E-04   11.46      15.0  T
   3  -3478.7733681 -0.468390E-10  0.115E-05   11.46     152.7  T
     SCC iter.                  ...        2 min, 57.716 sec
     gradient                   ...        3 min, 51.509 sec
 * total energy  : -3427.4772495 Eh     change    :  -0.2049915E-05 Eh
   gradient norm :     0.0017120 Eh/a0  converged?    E=T G=F D=F
   time step     :     0.3660250 fs     power     :   0.6380955E-10
   step length   :     0.0029884 a0     speed     :   0.1974876E-03

........................................................................
.............................. CYCLE   30 ..............................
........................................................................

 iter      E             dE          RMSdq      gap      omega  full diag
   1  -3478.7737189 -0.347877E+04  0.191E-04   11.46       0.0  T
   2  -3478.7737189 -0.102455E-08  0.111E-04   11.46      15.7  T
   3  -3478.7737189 -0.177351E-09  0.842E-06   11.46     208.1  T
     SCC iter.                  ...        3 min,  0.113 sec
     gradient                   ...        3 min, 50.060 sec
 * total energy  : -3427.4772520 Eh     change    :  -0.2507152E-05 Eh
   gradient norm :     0.0017159 Eh/a0  converged?    E=T G=F D=F
   time step     :     0.4026275 fs     power     :   0.7526087E-10
   step length   :     0.0032154 a0     speed     :   0.1931737E-03

........................................................................
.............................. CYCLE   31 ..............................
........................................................................

 iter      E             dE          RMSdq      gap      omega  full diag
   1  -3478.7731895 -0.347877E+04  0.192E-04   11.46       0.0  T
   2  -3478.7731895 -0.235013E-08  0.113E-04   11.46      15.5  T
   3  -3478.7731895 -0.197815E-09  0.111E-05   11.46     157.9  T
     SCC iter.                  ...        3 min,  5.374 sec
     gradient                   ...        3 min, 49.303 sec
 * total energy  : -3427.4772551 Eh     change    :  -0.3087575E-05 Eh
   gradient norm :     0.0014889 Eh/a0  converged?    E=T G=F D=F
   time step     :     0.4428903 fs     power     :   0.8343097E-10
   step length   :     0.0035208 a0     speed     :   0.1922916E-03

........................................................................
.............................. CYCLE   32 ..............................
........................................................................

 iter      E             dE          RMSdq      gap      omega  full diag
   1  -3478.7718922 -0.347877E+04  0.204E-04   11.46       0.0  T
   2  -3478.7718922 -0.587261E-08  0.120E-04   11.46      14.5  T
   3  -3478.7718922 -0.160526E-09  0.184E-05   11.46      95.1  T
     SCC iter.                  ...        2 min, 57.575 sec
     gradient                   ...        3 min, 50.610 sec
 * total energy  : -3427.4772584 Eh     change    :  -0.3299094E-05 Eh
   gradient norm :     0.0012225 Eh/a0  converged?    E=T G=F D=F
   time step     :     0.4871793 fs     power     :   0.7617802E-10
   step length   :     0.0039225 a0     speed     :   0.1947563E-03

........................................................................
.............................. CYCLE   33 ..............................
........................................................................

 iter      E             dE          RMSdq      gap      omega  full diag
   1  -3478.7703511 -0.347877E+04  0.206E-04   11.46       0.0  T
   2  -3478.7703511 -0.751152E-08  0.122E-04   11.46      14.4  T
   3  -3478.7703511 -0.173713E-09  0.214E-05   11.46      81.9  T
     SCC iter.                  ...        2 min, 56.913 sec
     gradient                   ...        3 min, 50.592 sec
 * total energy  : -3427.4772615 Eh     change    :  -0.3075457E-05 Eh
   gradient norm :     0.0012974 Eh/a0  converged?    E=T G=F D=F
   time step     :     0.5358972 fs     power     :   0.6134952E-10
   step length   :     0.0043796 a0     speed     :   0.1976840E-03

........................................................................
.............................. CYCLE   34 ..............................
........................................................................

 iter      E             dE          RMSdq      gap      omega  full diag
   1  -3478.7694677 -0.347877E+04  0.189E-04   11.46       0.0  T
   2  -3478.7694677 -0.342061E-08  0.113E-04   11.46      15.6  T
   3  -3478.7694677 -0.126875E-09  0.121E-05   11.46     144.5  T
     SCC iter.                  ...        3 min,  2.871 sec
     gradient                   ...        3 min, 48.927 sec
 * total energy  : -3427.4772647 Eh     change    :  -0.3197154E-05 Eh
   gradient norm :     0.0015163 Eh/a0  converged?    E=T G=F D=F
   time step     :     0.5894869 fs     power     :   0.6251329E-10
   step length   :     0.0048149 a0     speed     :   0.1975727E-03

........................................................................
.............................. CYCLE   35 ..............................
........................................................................

 iter      E             dE          RMSdq      gap      omega  full diag
   1  -3478.7699059 -0.347877E+04  0.200E-04   11.46       0.0  T
   2  -3478.7699059 -0.103273E-08  0.117E-04   11.46      14.9  T
   3  -3478.7699059 -0.101863E-09  0.717E-06   11.46     244.4  T
     SCC iter.                  ...        2 min, 58.305 sec
     gradient                   ...        3 min, 49.878 sec
 * total energy  : -3427.4772688 Eh     change    :  -0.4093605E-05 Eh
   gradient norm :     0.0014286 Eh/a0  converged?    E=T G=F D=F
   time step     :     0.6484356 fs     power     :   0.7754655E-10
   step length   :     0.0053189 a0     speed     :   0.1984118E-03

........................................................................
.............................. CYCLE   36 ..............................
........................................................................

 iter      E             dE          RMSdq      gap      omega  full diag
   1  -3478.7717974 -0.347877E+04  0.254E-04   11.46       0.0  T
   2  -3478.7717974 -0.698628E-08  0.147E-04   11.46      11.9  T
   3  -3478.7717974 -0.143700E-09  0.212E-05   11.46      82.5  T
     SCC iter.                  ...        2 min, 59.867 sec
     gradient                   ...        3 min, 49.393 sec
 * total energy  : -3427.4772737 Eh     change    :  -0.4928601E-05 Eh
   gradient norm :     0.0011008 Eh/a0  converged?    E=T G=F D=F
   time step     :     0.7132792 fs     power     :   0.7878214E-10
   step length   :     0.0060175 a0     speed     :   0.2040679E-03

........................................................................
.............................. CYCLE   37 ..............................
........................................................................

 iter      E             dE          RMSdq      gap      omega  full diag
   1  -3478.7742308 -0.347877E+04  0.281E-04   11.46       0.0  T
   2  -3478.7742308 -0.120158E-07  0.163E-04   11.46      10.8  T
   3  -3478.7742308 -0.325599E-09  0.294E-05   11.46      59.7  T
     SCC iter.                  ...        3 min,  1.363 sec
     gradient                   ...        3 min, 49.197 sec
 * total energy  : -3427.4772784 Eh     change    :  -0.4716157E-05 Eh
   gradient norm :     0.0012141 Eh/a0  converged?    E=T G=F D=F
   time step     :     0.7846071 fs     power     :   0.6478577E-10
   step length   :     0.0068768 a0     speed     :   0.2120081E-03

........................................................................
.............................. CYCLE   38 ..............................
........................................................................

 iter      E             dE          RMSdq      gap      omega  full diag
   1  -3478.7753131 -0.347878E+04  0.245E-04   11.46       0.0  T
   2  -3478.7753131 -0.529826E-08  0.144E-04   11.46      12.2  T
   3  -3478.7753131 -0.267846E-09  0.201E-05   11.46      87.0  T
     SCC iter.                  ...        2 min, 56.234 sec
     gradient                   ...        4 min,  0.296 sec
 * total energy  : -3427.4772836 Eh     change    :  -0.5185085E-05 Eh
   gradient norm :     0.0013254 Eh/a0  converged?    E=F G=F D=F
   time step     :     0.8630678 fs     power     :   0.7157745E-10
   step length   :     0.0077097 a0     speed     :   0.2160755E-03

........................................................................
.............................. CYCLE   39 ..............................
........................................................................

 iter      E             dE          RMSdq      gap      omega  full diag
   1  -3478.7742573 -0.347877E+04  0.270E-04   11.46       0.0  T
   2  -3478.7742573 -0.843784E-08  0.158E-04   11.46      11.1  T
   3  -3478.7742573 -0.355158E-09  0.261E-05   11.46      67.1  T
     SCC iter.                  ...        2 min, 59.119 sec
     gradient                   ...        3 min, 50.200 sec
 * total energy  : -3427.4772900 Eh     change    :  -0.6357845E-05 Eh
   gradient norm :     0.0010374 Eh/a0  converged?    E=F G=F D=F
   time step     :     0.9493746 fs     power     :   0.7710693E-10
   step length   :     0.0087447 a0     speed     :   0.2228034E-03

........................................................................
.............................. CYCLE   40 ..............................
........................................................................

 iter      E             dE          RMSdq      gap      omega  full diag
   1  -3478.7726399 -0.347877E+04  0.305E-04   11.46       0.0  T
   2  -3478.7726399 -0.101431E-07  0.177E-04   11.46       9.9  T
   3  -3478.7726399 -0.372893E-09  0.255E-05   11.46      68.7  T
     SCC iter.                  ...        2 min, 55.151 sec
     gradient                   ...        3 min, 49.240 sec
 * total energy  : -3427.4772964 Eh     change    :  -0.6447902E-05 Eh
   gradient norm :     0.0012373 Eh/a0  converged?    E=F G=F D=F
   time step     :     1.0443120 fs     power     :   0.6809205E-10
   step length   :     0.0100501 a0     speed     :   0.2327858E-03

........................................................................
.............................. CYCLE   41 ..............................
........................................................................

 iter      E             dE          RMSdq      gap      omega  full diag
   1  -3478.7735022 -0.347877E+04  0.318E-04   11.46       0.0  T
   2  -3478.7735022 -0.428508E-08  0.186E-04   11.46       9.4  T
   3  -3478.7735022 -0.356522E-09  0.131E-05   11.46     133.5  T
     SCC iter.                  ...        2 min, 58.285 sec
     gradient                   ...        3 min, 48.625 sec
 * total energy  : -3427.4773042 Eh     change    :  -0.7766254E-05 Eh
   gradient norm :     0.0011046 Eh/a0  converged?    E=F G=F D=F
   time step     :     1.1487432 fs     power     :   0.8164868E-10
   step length   :     0.0113960 a0     speed     :   0.2399630E-03

........................................................................
.............................. CYCLE   42 ..............................
........................................................................

 iter      E             dE          RMSdq      gap      omega  full diag
   1  -3478.7759710 -0.347878E+04  0.386E-04   11.46       0.0  T
   2  -3478.7759710 -0.183272E-07  0.225E-04   11.46       7.8  T
   3  -3478.7759710 -0.626187E-09  0.324E-05   11.46      54.0  T
     SCC iter.                  ...        2 min, 58.861 sec
     gradient                   ...        3 min, 48.905 sec
 * total energy  : -3427.4773127 Eh     change    :  -0.8548362E-05 Eh
   gradient norm :     0.0011590 Eh/a0  converged?    E=F G=F D=F
   time step     :     1.2500000 fs     power     :   0.7434642E-10
   step length   :     0.0130353 a0     speed     :   0.2522479E-03
 * RMSD in coord.:     0.0016691 a0     energy gain  -0.8768453E-04 Eh

........................................................................
.............................. CYCLE   43 ..............................
........................................................................

 iter      E             dE          RMSdq      gap      omega  full diag
   1  -3478.7760327 -0.347878E+04  0.600E-05   11.47       0.0  T
   2  -3478.7760327 -0.181444E-09  0.353E-05   11.47      49.6  T
   3  -3478.7760327  0.218279E-10  0.214E-06   11.47     820.3  T
     SCC iter.                  ...        3 min,  1.960 sec
     gradient                   ...        3 min, 48.353 sec
 * total energy  : -3427.4773143 Eh     change    :  -0.1628482E-05 Eh
   gradient norm :     0.0011792 Eh/a0  converged?    E=T G=F D=F
   time step     :     0.2500000 fs     power     :   0.8451776E-10
   step length   :     0.0025156 a0     speed     :   0.2433986E-03

........................................................................
.............................. CYCLE   44 ..............................
........................................................................

 iter      E             dE          RMSdq      gap      omega  full diag
   1  -3478.7757021 -0.347878E+04  0.592E-05   11.47       0.0  T
   2  -3478.7757021 -0.269665E-09  0.345E-05   11.47      50.7  T
   3  -3478.7757021 -0.359250E-10  0.429E-06   11.47     408.5  T
     SCC iter.                  ...        3 min,  0.032 sec
     gradient                   ...        3 min, 48.875 sec
 * total energy  : -3427.4773161 Eh     change    :  -0.1766770E-05 Eh
   gradient norm :     0.0010965 Eh/a0  converged?    E=T G=F D=F
   time step     :     0.2500000 fs     power     :   0.9287766E-10
   step length   :     0.0024512 a0     speed     :   0.2371622E-03

........................................................................
.............................. CYCLE   45 ..............................
........................................................................

 iter      E             dE          RMSdq      gap      omega  full diag
   1  -3478.7750677 -0.347878E+04  0.688E-05   11.47       0.0  T
   2  -3478.7750677 -0.807631E-09  0.399E-05   11.47      43.9  T
   3  -3478.7750677 -0.413820E-10  0.770E-06   11.47     227.5  T
     SCC iter.                  ...        2 min, 56.279 sec
     gradient                   ...        3 min, 49.256 sec
 * total energy  : -3427.4773180 Eh     change    :  -0.1853681E-05 Eh
   gradient norm :     0.0009634 Eh/a0  converged?    E=T G=T D=F
   time step     :     0.2500000 fs     power     :   0.9527106E-10
   step length   :     0.0024189 a0     speed     :   0.2340398E-03

   *** GEOMETRY OPTIMIZATION CONVERGED AFTER 45 CYCLES ***

------------------------------------------------------------------------
 total energy gain   :        -0.0003799 Eh       -0.2384 kcal/mol
 total RMSD          :         0.0020185 a0        0.0011 Å
 total power (kW/mol):        -0.0221622 (step)   -0.0001 (real)
------------------------------------------------------------------------

 FIRE (total)                  0 d,  5 h, 20 min, 10.920 sec
 setup                          ...        0 min,  0.116 sec (  0.001%)
 velocities                     ...        0 min,  0.003 sec (  0.000%)
 propagation                    ...        0 min,  0.005 sec (  0.000%)
 singlepoint calculation        ...      320 min, 10.050 sec ( 99.995%)
 log and printout               ...        0 min,  0.684 sec (  0.004%)
 preconditioner                 ...        0 min,  0.000 sec (  0.000%)
 model hessian                  ...        0 min,  0.000 sec (  0.000%)
 hessian update                 ...        0 min,  0.000 sec (  0.000%)

================
 final structure:
================
3258
 xtb: 6.6.1 (8d0f1dd)
C           99.60990524463013      108.42525193085072       91.94283276937873
C          100.67343531871960      109.22743047006099       92.68147600689190
C          101.21759905216247      110.37500060283855       91.83370289856443
C          102.29076960825950      111.16940999944960       92.57279716130972
C          102.85026281041466      112.31639258244397       91.73553039181611
C          103.92479184130003      113.10293874341778       92.48356607451431
C          104.53863631023972      114.19918063881113       91.61735197930469
C          105.55600212639517      115.04798561679610       92.37760712992355
C          106.15884952299328      116.13010281099351       91.48432008096508
C          107.05300263989861      117.10751680294520       92.24519070447545
C          107.58929021563624      118.19949701400155       91.31997001484949
C          108.25155645248637      119.36392745001028       92.05672299884337
C          109.57738948452028      118.99740157646504       92.72101762023556
C          110.30585058484887      120.21419511616708       93.29784660597568
C          109.63642777065589      120.76154484350833       94.55629274251436
C          110.28251560231998      122.03810067024217       95.09755042594104
C          111.73220707206754      121.85522096205784       95.54546165166498
C          112.21987642584122      123.02808989465989       96.39554494451716
C          113.66193383144952      122.83545411204598       96.86334425209814
C          114.06307078865287      123.81105677051730       97.96862362548731
C          115.47672033245041      123.53721103861082       98.48198351208863
C          115.80409763267062      124.32938865399254       99.74623675706091
C          117.20619603679586      124.02607778561067      100.27366137740860
C          117.45227097560512      124.67277806433889      101.63542114124334
C          118.89133060007313      124.53450067793823      102.13557688314090
C          119.33286739367095      123.08793124042700      102.35575959113939
C          120.67661405159187      123.01819361188866      103.08334399835269
C          121.32360643925659      121.63213079342722      103.04118512502984
C          120.55799008281409      120.53996484969950      103.78922876517650
C          120.66010996381264      120.63070257776752      105.31012808116519
C          119.89445442004002      119.48712001089835      105.97149112417333
C          119.95152620338025      119.52476807553745      107.49627475880119
C          119.13795662951159      118.38153706845587      108.10622588831112
C          118.74556379173454      118.61478413554923      109.56403910555345
C          119.90984208211219      118.56143490491633      110.55019513591003
C          119.42228584375121      118.86214021922915      111.96664324979879
C          120.51703534161230      118.72432346519140      113.02115819155446
C          120.09356896331165      119.21304033596061      114.40839383992235
C          118.98151264287834      118.37752613710960      115.04236274197478
C          118.62629428733368      118.81980349369152      116.46911249977057
C          119.22294020335731      117.94612557537454      117.57315908227446
C          120.74173390068881      118.01392844042282      117.70427120829225
C          121.21945045519766      117.16112642559438      118.87916304564162
C          122.74026386717111      117.13028494547459      119.03477383321882
C          123.31831664757664      118.46943557319459      119.48986876545156
C          124.75610656638089      118.40308432115458      120.01299274386177
C          125.83438717845091      118.20612138243332      118.94110243430104
C          126.12122890242625      116.74480788992047      118.60172754184842
C          127.21731891133527      116.61551691632008      117.54637658646446
C          127.49796274238125      115.16738964021215      117.14203755740446
C          126.35812169914095      114.53736857232839      116.34512883207908
C          126.71632165796102      113.15024047784131      115.81668206415398
C          125.59277987417201      112.57249814202599      114.95929979389064
C          125.95416395804348      111.20946097114657      114.37367265987045
C          124.85612978774795      110.60323522923106      113.49396633356683
C          124.37949120484629      111.49949328168007      112.34796354782391
C          125.48839434888193      111.92203644749782      111.38560267915825
C          124.99318582605557      112.96797523295909      110.38893758890916
C          126.10715332344259      113.56171553159103      109.52649942223279
C          126.71233028269738      112.60066831177481      108.50149398646344
C          125.73451112379202      112.08033727642946      107.44611410393202
C          125.09564944068532      113.19038724656451      106.61375015325933
C          124.22897612493752      112.65571193866992      105.47271266151301
C          125.03599031489217      112.11381348029660      104.29533798556194
C          124.12871788583412      111.57622917048674      103.19174064400065
C          124.91768463568687      111.01939038364573      102.00876923091225
C          123.99318852998583      110.43940340959006      100.94164157363352
C          124.76020201246693      109.82350563478239       99.77378399623437
C          123.84523734963055      109.28124626984297       98.67381262914832
C          123.03120814314467      108.06680632699779       99.11474874049446
C          122.13013168140351      107.53542811010281       98.00303907739001
C          121.25424844713250      106.38420867951758       98.49163984109934
C          120.31507731165701      105.85988502471740       97.40841587583165
C          119.40138660883325      104.75536452363716       97.93500789198227
C          118.52242519000723      104.15740408010890       96.83849432604887
C          117.58496810036009      103.08186698845931       97.38713542027598
C          116.93016539642214      102.22575723441742       96.30172429762365
C          115.94673623242853      103.00142170153170       95.42841257770903
C          115.41313313326279      102.18785106968332       94.24683140844286
C          114.60160332394064      100.94689998927976       94.62468754574545
C          113.26955541393079      101.27712761539441       95.29239377762418
C          112.52595354959807      100.02218202605624       95.74516880474013
C          111.22696732655024      100.36750718807455       96.46954167800986
C          110.51946672850171       99.13483531399181       97.02593026158205
C          109.20232017677320       99.46645746852762       97.72833140235441
C          109.37672208482424      100.35568238805536       98.95834171604068
C          108.06910902028508      100.51376429843883       99.73039234701126
C          108.16945858364663      101.56365534386174      100.83503852448264
C          106.87227181030235      101.66043859766663      101.63370853976306
C          106.80996884928761      102.87011552749755      102.56371768920106
C          107.80205460579515      102.81907481962631      103.72420303354706
C          107.54843365105943      103.97596252788553      104.68662883895583
C          108.43582266797480      103.95710323326890      105.92764806822048
C          108.12850766455129      105.15328889606496      106.82743319927248
C          108.92470326726517      105.17773613125361      108.13110551697859
C          108.52863528553382      104.06439058844498      109.09768294521996
C          109.16002816491823      104.24155269618524      110.47639729892697
C          108.93142544511454      103.02384525651034      111.36762224907463
C          109.70194838620411      103.12749116301273      112.68105159228436
C          109.40147480180663      101.98752252187006      113.65644551731744
C          109.63273185592311      100.58580963791907      113.09159006370467
C          111.07150930480401      100.34089540082033      112.64572672220781
C          111.31420092145819       98.90675657495093      112.17471607600626
C          110.59826291291526       98.53363381901720      110.87586114645748
C          111.15088701022738       99.24734898703677      109.64455950344815
C          110.47460063361062       98.78878026414303      108.35053483603294
C          109.11129966565774       99.43292463893647      108.10841716428267
C          108.44807777384138       98.88293926894951      106.84710397718925
C          107.14046500687792       99.59365944384125      106.50847824320276
C          106.46059554949984       98.98392489809106      105.28490993789055
C          105.21429742862306       99.75879009207407      104.86143320978135
C          104.46940968779001       99.06013885208233      103.72438880272895
C          103.40503585232588       99.95891243157354      103.09716250195846
C          102.43700110911865       99.20948306945891      102.17869417724928
C          103.09538329355318       98.39930172706417      101.05896616786819
C          103.96549390974248       99.20024181012273      100.08870942409283
C          103.16625527906864      100.15981181457563       99.20985985916687
C          104.04148030301162      100.97774213811600       98.25935570441305
C          104.74628774949669      100.14773473798385       97.18864672356668
C          105.51704694050936      101.03278990096726       96.21567214585735
H          105.44147719014326       99.44919593422500       97.65717508147065
H          104.00511815776616       99.56325758634389       96.63870317022500
H          103.41167275574630      101.72014978578729       97.76231688238239
H          104.78942452598346      101.52238107974397       98.83937760096921
H          102.43554678098396       99.59170324634250       98.62878301605552
H          102.61479681090296      100.85574742760308       99.84549823705689
H          104.71882429041608       99.75979091241689      100.64347535447668
H          104.49166682545741       98.48858514594986       99.44941336649541
H          103.70844210490631       97.61535745924546      101.50806258673397
H          102.30463283867685       97.90331317631735      100.48974317410092
H          101.84835621381171       98.51567263370939      102.78561634892536
H          101.74004292730459       99.93024345591593      101.74565370043682
H          102.82056368790913      100.42520166340213      103.89559668242408
H          103.89430212140552      100.76229624090693      102.54353713803525
H          105.18852644979179       98.76035372902579      102.95959469523761
H          103.99955201777495       98.15086367834525      104.10786084263525
H          104.54546088545244       99.86872118577148      105.71817364373713
H          105.50524354082606      100.76167345292100      104.54157298561687
H          107.16831472920677       98.96118211400110      104.45125731991133
H          106.18658746912598       97.94935729003075      105.50662916379390
H          106.46277640057927       99.53225247958621      107.36095025048093
H          107.34005706414139      100.65213820943700      106.32202521951857
H          109.13573995393018       98.98714357514787      106.00524229195149
H          108.25138256247416       97.81675869014904      106.98296744989602
H          108.45740110936491       99.25449009192771      108.96297318853669
H          109.24112913347379      100.51387490976947      108.00841129482254
H          111.12089839274152       99.03630834383723      107.50532849140495
H          110.36232321300255       97.70197896246412      108.36907423191353
H          111.03263124424977      100.32818069542546      109.74257857576742
H          112.22227610691294       99.03718002559340      109.58094162397302
H          110.71266535522622       97.45855771741751      110.72198768128841
H          109.53200079764758       98.73655682291044      110.97549288807244
H          112.38900248777557       98.75897448437867      112.03609136737695
H          110.98988645832810       98.22203893979109      112.96272487666306
H          111.33846010840520      101.03253823778428      111.84685141276599
H          111.73371283607247      100.54096953484191      113.49024496339197
H          109.37726104369811       99.85869525085045      113.86622351120039
H          108.95116282697055      100.42188348324576      112.25661124290205
H          110.02095318575955      102.11893943519914      114.54776547224412
H          108.35751527008826      102.06224680077298      113.97304129613785
H          110.77316594941188      103.15934662871014      112.47033152037660
H          109.44060245251563      104.07241107631711      113.16485445439271
H          107.86483856809481      102.91977529185147      111.57732018525796
H          109.25126495224870      102.13283016095458      110.82478818395136
H          110.23594614031497      104.39908544646978      110.36388889389427
H          108.74828793134341      105.13245838228016      110.95593648663274
H          107.44165856723065      104.04625145979441      109.20055307809010
H          108.83824327686320      103.09893040220174      108.69134004779544
H          109.99130183227308      105.10247695570237      107.90734027592936
H          108.75638635253874      106.13989822330734      108.61999149965749
H          108.33597610257455      106.07064125736213      106.26995365159641
H          107.06201219152842      105.15255090318645      107.06772699969123
H          108.26557068756495      103.02784809507978      106.47520377390593
H          109.48654792895780      103.98240036835364      105.63089120378653
H          107.70003526407086      104.91778783219038      104.15558458775351
H          106.50335009055303      103.94248569540163      105.00267590865211
H          107.69047741834362      101.87011734133357      104.25342461512865
H          108.82501810497182      102.87218637600792      103.34860656766313
H          106.97990805782123      103.77988825087198      101.98221815243365
H          105.79894375696971      102.93657899491095      102.97646697042177
H          106.03657069837153      101.72887935058378      100.93124466051472
H          106.73840339132074      100.74636249742949      102.21608532766101
H          108.99401599262161      101.30858165309320      101.50229984966056
H          108.38873367948716      102.53575227600950      100.38525560394918
H          107.27860837618381      100.80342479034638       99.03404317946138
H          107.78579396442871       99.55286830807424      100.16695325389367
H          110.13787370253031       99.92412682388672       99.61306363641295
H          109.72498769217168      101.34332579350655       98.65075893318550
H          108.53111444269753       99.96033573003881       97.02199826911276
H          108.72698659843229       98.53146441634422       98.03621644351649
H          110.31762776334304       98.44005280212207       96.20689362297655
H          111.18107017794448       98.62572322920974       97.73135401843950
H          111.45876270015600      101.04703524466886       97.29144354316040
H          110.55649772325873      100.89001659004091       95.78342014494042
H          112.30877514895424       99.39143943516932       94.88005832663981
H          113.17038542762852       99.44777322317633       96.41601221720948
H          113.44726918906191      101.91280835188400       96.16100632717976
H          112.64278046466895      101.83914390174306       94.59616160459082
H          114.40647951872235      100.37095201978195       93.71639461519199
H          115.19100283997790      100.31186813445649       95.28811156087400
H          114.78907920974217      102.84025126593718       93.63018769874994
H          116.26212954741425      101.87330568098299       93.63433466010140
H          115.11808103234426      103.35293583544571       96.04414058972485
H          116.45056174860495      103.87974009676707       95.02157977826175
H          117.71093228090162      101.79582413852744       95.66931133303102
H          116.40616947574208      101.40167019502788       96.78959414214161
H          118.16016631974435      102.42155663051007       98.04189674759216
H          116.80993848165727      103.55236697945665       97.99784419787301
H          117.94186017891128      104.95484967735696       96.37149678243928
H          119.16259417933567      103.71862274846548       96.06951877425729
H          120.01323106105991      103.96400107397896       98.37535461679363
H          118.76775017177445      105.15764434436625       98.73022385082213
H          119.70498560065992      106.68301465431539       97.02980359563654
H          120.90486486441395      105.47507425532719       96.57312218006798
H          121.89172453188350      105.56892675508722       98.84231649281070
H          120.66200737287198      106.72367765247888       99.34557885584915
H          121.49102969899576      108.34618637035551       97.64641188932048
H          122.74071883340844      107.19906719473815       97.16169169205926
H          123.71054669093665      107.27589172760653       99.44145605881018
H          122.40440234921100      108.33554784281894       99.96570626864673
H          123.16511218879623      110.07293339313016       98.35075718229943
H          124.45846044595596      109.00043310991899       97.81361056075757
H          125.41479000360874      110.58498166655458       99.34238164118712
H          125.39578189469091      109.01569072918527      100.14454223370426
H          123.36733369559566      109.67727469437347      101.40835054538123
H          123.33630556386200      111.22707969640254      100.56654634022463
H          125.52977285224779      111.81241693733460      101.57288563610953
H          125.59468026048981      110.23783534696204      102.36250205210794
H          123.49626088071948      110.78540375477036      103.60379528365442
H          123.46972036885356      112.37476824905625      102.84287032172851
H          125.66513777266840      112.91076528581721      103.89176996954117
H          125.69492253373892      111.31238053199748      104.63421603382726
H          123.57997026854741      111.86557592925520      105.85861319900467
H          123.58539976081738      113.46095273362951      105.10936471959035
H          124.46717386828597      113.80071918779909      107.26412647438482
H          125.87739718386746      113.83398184315801      106.20332587374922
H          126.28401240972953      111.40549691813084      106.78683733488310
H          124.94835838413348      111.49350081717812      107.92524656828772
H          127.52803732937706      113.12043530967557      107.99179869783084
H          127.14862915672558      111.74686970268912      109.02405467454290
H          125.71985424654699      114.43883747128638      109.00446846907747
H          126.90892221096352      113.90889543243676      110.18395398915762
H          124.21947669192667      112.53692818715145      109.75259475307216
H          124.52943673856592      113.78310786096178      110.95122156125146
H          126.31750412467642      112.35263175462957      111.94851420154453
H          125.86292498626933      111.04329706228746      110.85785991580447
H          123.60901405884812      110.96228336149703      111.78763536042446
H          123.91009229097286      112.39343984408987      112.76315592969415
H          125.23089047449783      109.66360060322930      113.07935782776777
H          123.99208754334840      110.36419756442652      114.12083391340904
H          126.87525103731740      111.30191111377661      113.79511476898129
H          126.16169465382694      110.51512476527789      115.19245722442577
H          124.68781808004024      112.48266171471961      115.56403390421519
H          125.38242203946839      113.27456494109119      114.15105927131786
H          127.62765778926963      113.21675714676374      115.21687529422621
H          126.92224896140833      112.48218628261748      116.65567046186558
H          125.46738027214873      114.45650020489153      116.97033680644861
H          126.11436782570817      115.18903304112017      115.50211125645569
H          128.40342369454254      115.14547542235333      116.53012871466328
H          127.69109722799057      114.57052740390137      118.03605940631876
H          126.93159727618169      117.18327564400428      116.65790403629435
H          128.13644672831109      117.05910722238279      117.93759704107198
H          126.43610091605267      116.22063944849717      119.50670081036309
H          125.21384479351204      116.26513928350167      118.24166178092514
H          125.54170139320165      118.74052496726753      118.03461624502106
H          126.76470253020187      118.65777329263717      119.29565676454725
H          124.95742537276908      119.34696412329306      120.52617832469643
H          124.83458800689215      117.60745509858587      120.75781878523419
H          123.27461360101094      119.18936048279701      118.67007549302456
H          122.68829625003755      118.85182223988458      120.29846893021680
H          122.99880240154587      116.36830875334945      119.77428294232672
H          123.18019338902270      116.83552116981085      118.08086321890968
H          120.77056456905794      117.53426451439987      119.80371915377347
H          120.86351303488051      116.13750021660653      118.73249428093631
H          121.20919898340684      117.64851578456101      116.78819950189964
H          121.04569436821673      119.05089988980629      117.85203986928795
H          118.78045125400253      118.24893788217803      118.52679348619327
H          118.93368757863088      116.90786200600880      117.39518966288806
H          118.94359519089973      119.85403475614258      116.61653052937632
H          117.54017033729352      118.79627223620179      116.58679442721002
H          118.09005448576225      118.45198297562450      114.41845789279500
H          119.28109209663762      117.32815269902113      115.05712041288956
H          120.96894369995782      119.19924753245419      115.06094206348854
H          119.75566327089680      120.24989009111130      114.32885343421636
H          120.82599420668845      117.67851885497164      113.08619457591254
H          121.38571833458548      119.30471727354319      112.70143484485725
H          119.03288579314649      119.88243972031724      111.98995283428171
H          118.59892645860643      118.18436409366251      112.20330137889921
H          120.36607928242908      117.56880389990832      110.51824490892245
H          120.67410979156553      119.28731305217805      110.26701924747145
H          118.25441708909756      119.58743143879262      109.64593143796309
H          118.01170772488405      117.85869691794251      109.85375848236197
H          118.21842526805010      118.26148787595751      107.52614577994450
H          119.69966628413654      117.44808224513164      108.01969312488241
H          120.99050346298920      119.46287835593657      107.82446100199940
H          119.55175090421599      120.47993412470565      107.84250575513889
H          118.84843466028671      119.53570022163724      105.65680359368848
H          120.29777203269049      118.53387221357723      105.62085291889430
H          121.71018139827744      120.59068145910248      105.60956932105059
H          120.25447920040044      121.58340877909185      105.65646936366956
H          119.50579750349308      120.57146175054781      103.50233084202398
[...]
  3011   6 C     3012   6 C                                       1.5261193
  3012   6 C     3013   6 C                                       1.5258286
  3013   6 C     3014   6 C                                       1.5252522
  3014   6 C     3015   6 C                                       1.5242912
  3015   6 C     3016   6 C                                       1.5233195
  3015   6 C     3017   1 H                                       1.0927438
  3015   6 C     3018   1 H                                       1.0905414
  3014   6 C     3019   1 H                                       1.0920055
  3014   6 C     3020   1 H                                       1.0929660
  3013   6 C     3021   1 H                                       1.0931760
  3013   6 C     3022   1 H                                       1.0925984
  3012   6 C     3023   1 H                                       1.0925207
  3012   6 C     3024   1 H                                       1.0936247
  3011   6 C     3025   1 H                                       1.0934220
  3011   6 C     3026   1 H                                       1.0926618
  3010   6 C     3027   1 H                                       1.0927480
  3010   6 C     3028   1 H                                       1.0926716
  3009   6 C     3029   1 H                                       1.0936701
  3009   6 C     3030   1 H                                       1.0920753
  3008   6 C     3031   1 H                                       1.0921494
  3008   6 C     3032   1 H                                       1.0915305
  3007   6 C     3033   1 H                                       1.0918951
  3007   6 C     3034   1 H                                       1.0934686
  3006   6 C     3035   1 H                                       1.0938269
  3006   6 C     3036   1 H                                       1.0921350
  3005   6 C     3037   1 H                                       1.0916804
  3005   6 C     3038   1 H                                       1.0908266
  3004   6 C     3039   1 H                                       1.0926827
  3004   6 C     3040   1 H                                       1.0927290
  3003   6 C     3041   1 H                                       1.0921979
  3003   6 C     3042   1 H                                       1.0925027
  3002   6 C     3043   1 H                                       1.0914607
  3002   6 C     3044   1 H                                       1.0912969
  3001   6 C     3045   1 H                                       1.0904818
  3001   6 C     3046   1 H                                       1.0924555
  3000   6 C     3047   1 H                                       1.0921551
  3000   6 C     3048   1 H                                       1.0929945
  2999   6 C     3049   1 H                                       1.0913345
  2999   6 C     3050   1 H                                       1.0917931
  2998   6 C     3051   1 H                                       1.0924907
  2998   6 C     3052   1 H                                       1.0925832
  2997   6 C     3053   1 H                                       1.0918408
  2997   6 C     3054   1 H                                       1.0929173
  2996   6 C     3055   1 H                                       1.0931725
  2996   6 C     3056   1 H                                       1.0922471
  2995   6 C     3057   1 H                                       1.0927742
  2995   6 C     3058   1 H                                       1.0923818
  2994   6 C     3059   1 H                                       1.0928050
  2994   6 C     3060   1 H                                       1.0919942
  2993   6 C     3061   1 H                                       1.0908102
  2993   6 C     3062   1 H                                       1.0933421
  2992   6 C     3063   1 H                                       1.0938271
  2992   6 C     3064   1 H                                       1.0907626
  2991   6 C     3065   1 H                                       1.0937469
  2991   6 C     3066   1 H                                       1.0921486
  2990   6 C     3067   1 H                                       1.0905625
  2990   6 C     3068   1 H                                       1.0926563
  2989   6 C     3069   1 H                                       1.0925240
  2989   6 C     3070   1 H                                       1.0920121
  2988   6 C     3071   1 H                                       1.0918359
  2988   6 C     3072   1 H                                       1.0913404
  2987   6 C     3073   1 H                                       1.0927660
  2987   6 C     3074   1 H                                       1.0915054
  2986   6 C     3075   1 H                                       1.0931489
  2986   6 C     3076   1 H                                       1.0923202
  2985   6 C     3077   1 H                                       1.0911368
  2985   6 C     3078   1 H                                       1.0908908
  2984   6 C     3079   1 H                                       1.0898275
  2984   6 C     3080   1 H                                       1.0933455
  2983   6 C     3081   1 H                                       1.0936871
  2983   6 C     3082   1 H                                       1.0909076
  2982   6 C     3083   1 H                                       1.0911553
  2982   6 C     3084   1 H                                       1.0928744
  2981   6 C     3085   1 H                                       1.0927506
  2981   6 C     3086   1 H                                       1.0913937
  2980   6 C     3087   1 H                                       1.0922368
  2980   6 C     3088   1 H                                       1.0928057
  2979   6 C     3089   1 H                                       1.0928946
  2979   6 C     3090   1 H                                       1.0931938
  2978   6 C     3091   1 H                                       1.0887333
  2978   6 C     3092   1 H                                       1.0924025
  2977   6 C     3093   1 H                                       1.0934290
  2977   6 C     3094   1 H                                       1.0916906
  2976   6 C     3095   1 H                                       1.0928111
  2976   6 C     3096   1 H                                       1.0930500
  2975   6 C     3097   1 H                                       1.0890474
  2975   6 C     3098   1 H                                       1.0931723
  2974   6 C     3099   1 H                                       1.0921730
  2974   6 C     3100   1 H                                       1.0903702
  2973   6 C     3101   1 H                                       1.0928140
  2973   6 C     3102   1 H                                       1.0928857
  2972   6 C     3103   1 H                                       1.0935207
  2972   6 C     3104   1 H                                       1.0897641
  2971   6 C     3105   1 H                                       1.0931156
  2971   6 C     3106   1 H                                       1.0933865
  2970   6 C     3107   1 H                                       1.0916504
  2970   6 C     3108   1 H                                       1.0930385
  2969   6 C     3109   1 H                                       1.0909466
  2969   6 C     3110   1 H                                       1.0923734
  2968   6 C     3111   1 H                                       1.0929625
  2968   6 C     3112   1 H                                       1.0932033
  2967   6 C     3113   1 H                                       1.0926065
  2967   6 C     3114   1 H                                       1.0925729
  2966   6 C     3115   1 H                                       1.0923279
  2966   6 C     3116   1 H                                       1.0933109
  2965   6 C     3117   1 H                                       1.0931749
  2965   6 C     3118   1 H                                       1.0918497
  2964   6 C     3119   1 H                                       1.0911534
  2964   6 C     3120   1 H                                       1.0905242
  2963   6 C     3121   1 H                                       1.0930227
  2963   6 C     3122   1 H                                       1.0932914
  2962   6 C     3123   1 H                                       1.0926374
  2962   6 C     3124   1 H                                       1.0924136
  2961   6 C     3125   1 H                                       1.0904515
  2961   6 C     3126   1 H                                       1.0924836
  2960   6 C     3127   1 H                                       1.0924810
  2960   6 C     3128   1 H                                       1.0917603
  2959   6 C     3129   1 H                                       1.0927472
  2959   6 C     3130   1 H                                       1.0928622
  2958   6 C     3131   1 H                                       1.0916186
  2958   6 C     3132   1 H                                       1.0917461
  2957   6 C     3133   1 H                                       1.0907973
  2957   6 C     3134   1 H                                       1.0929891
  2956   6 C     3135   1 H                                       1.0909800
  2956   6 C     3136   1 H                                       1.0916287
  2955   6 C     3137   1 H                                       1.0924456
  2955   6 C     3138   1 H                                       1.0932259
  2954   6 C     3139   1 H                                       1.0932064
  2954   6 C     3140   1 H                                       1.0930417
  2953   6 C     3141   1 H                                       1.0914473
  2953   6 C     3142   1 H                                       1.0911804
  2952   6 C     3143   1 H                                       1.0924801
  2952   6 C     3144   1 H                                       1.0933535
  2951   6 C     3145   1 H                                       1.0929817
  2951   6 C     3146   1 H                                       1.0925102
  2950   6 C     3147   1 H                                       1.0910378
  2950   6 C     3148   1 H                                       1.0926154
  2949   6 C     3149   1 H                                       1.0924055
  2949   6 C     3150   1 H                                       1.0926963
  2948   6 C     3151   1 H                                       1.0917236
  2948   6 C     3152   1 H                                       1.0926079
  2947   6 C     3153   1 H                                       1.0923863
  2947   6 C     3154   1 H                                       1.0915868
  2946   6 C     3155   1 H                                       1.0926593
  2946   6 C     3156   1 H                                       1.0928416
  2945   6 C     3157   1 H                                       1.0934136
  2945   6 C     3158   1 H                                       1.0925988
  2944   6 C     3159   1 H                                       1.0897569
  2944   6 C     3160   1 H                                       1.0930129
  2943   6 C     3161   1 H                                       1.0935345
  2943   6 C     3162   1 H                                       1.0927416
  2942   6 C     3163   1 H                                       1.0925296
  2942   6 C     3164   1 H                                       1.0931833
  2941   6 C     3165   1 H                                       1.0926002
  2941   6 C     3166   1 H                                       1.0909241
  2940   6 C     3167   1 H                                       1.0929668
  2940   6 C     3168   1 H                                       1.0931186
  2939   6 C     3169   1 H                                       1.0924743
  2939   6 C     3170   1 H                                       1.0920767
  2938   6 C     3171   1 H                                       1.0925410
  2938   6 C     3172   1 H                                       1.0930991
  2937   6 C     3173   1 H                                       1.0924768
  2937   6 C     3174   1 H                                       1.0906280
  2936   6 C     3175   1 H                                       1.0927329
  2936   6 C     3176   1 H                                       1.0927917
  2935   6 C     3177   1 H                                       1.0929574
  2935   6 C     3178   1 H                                       1.0923431
  2934   6 C     3179   1 H                                       1.0907064
  2934   6 C     3180   1 H                                       1.0925767
  2933   6 C     3181   1 H                                       1.0929676
  2933   6 C     3182   1 H                                       1.0927683
  2932   6 C     3183   1 H                                       1.0932271
  2932   6 C     3184   1 H                                       1.0927696
  2931   6 C     3185   1 H                                       1.0931736
  2931   6 C     3186   1 H                                       1.0924597
  2930   6 C     3187   1 H                                       1.0912108
  2930   6 C     3188   1 H                                       1.0921771
  2929   6 C     3189   1 H                                       1.0936737
  2929   6 C     3190   1 H                                       1.0925951
  2928   6 C     3191   1 H                                       1.0924383
  2928   6 C     3192   1 H                                       1.0935302
  2927   6 C     3193   1 H                                       1.0927517
  2927   6 C     3194   1 H                                       1.0913790
  2926   6 C     3195   1 H                                       1.0916257
  2926   6 C     3196   1 H                                       1.0928374
  2925   6 C     3197   1 H                                       1.0931464
  2925   6 C     3198   1 H                                       1.0912209
  2924   6 C     3199   1 H                                       1.0926540
  2924   6 C     3200   1 H                                       1.0932895
  2923   6 C     3201   1 H                                       1.0927562
  2923   6 C     3202   1 H                                       1.0913251
  2922   6 C     3203   1 H                                       1.0927366
  2922   6 C     3204   1 H                                       1.0925359
  2921   6 C     3205   1 H                                       1.0922780
  2921   6 C     3206   1 H                                       1.0913035
  2920   6 C     3207   1 H                                       1.0927304
  2920   6 C     3208   1 H                                       1.0918459
  2919   6 C     3209   1 H                                       1.0929147
  2919   6 C     3210   1 H                                       1.0912086
  2918   6 C     3211   1 H                                       1.0926136
  2918   6 C     3212   1 H                                       1.0923207
  2917   6 C     3213   1 H                                       1.0930335
  2917   6 C     3214   1 H                                       1.0929372
  2916   6 C     3215   1 H                                       1.0918104
  2916   6 C     3216   1 H                                       1.0927310
  2915   6 C     3217   1 H                                       1.0926866
  2915   6 C     3218   1 H                                       1.0920529
  2914   6 C     3219   1 H                                       1.0924117
  2914   6 C     3220   1 H                                       1.0925200
  2913   6 C     3221   1 H                                       1.0924830
  2913   6 C     3222   1 H                                       1.0924022
  2912   6 C     3223   1 H                                       1.0932790
  2912   6 C     3224   1 H                                       1.0926825
  2911   6 C     3225   1 H                                       1.0921436
  2911   6 C     3226   1 H                                       1.0908632
  2910   6 C     3227   1 H                                       1.0931785
  2910   6 C     3228   1 H                                       1.0930737
  2909   6 C     3229   1 H                                       1.0932344
  2909   6 C     3230   1 H                                       1.0923141
  2908   6 C     3231   1 H                                       1.0907939
  2908   6 C     3232   1 H                                       1.0908119
  2907   6 C     3233   1 H                                       1.0932689
  2907   6 C     3234   1 H                                       1.0923694
  2906   6 C     3235   1 H                                       1.0910818
  2906   6 C     3236   1 H                                       1.0927953
  2905   6 C     3237   1 H                                       1.0931684
  2905   6 C     3238   1 H                                       1.0922230
  2904   6 C     3239   1 H                                       1.0932255
  2904   6 C     3240   1 H                                       1.0929925
  2903   6 C     3241   1 H                                       1.0922200
  2903   6 C     3242   1 H                                       1.0906512
  2902   6 C     3243   1 H                                       1.0932406
  2902   6 C     3244   1 H                                       1.0929936
  2901   6 C     3245   1 H                                       1.0927760
  2901   6 C     3246   1 H                                       1.0930731
  2900   6 C     3247   1 H                                       1.0916206
  2900   6 C     3248   1 H                                       1.0921420
  2899   6 C     3249   1 H                                       1.0934760
  2899   6 C     3250   1 H                                       1.0918989
  2898   6 C     3251   1 H                                       1.0928826
  2898   6 C     3252   1 H                                       1.0939027
  2897   6 C     3253   1 H                                       1.0880862
  2897   6 C     3254   1 H                                       1.0872211
  2897   6 C     3255   1 H                                       1.0880932
  3016   6 C     3256   1 H                                       1.0882415
  3016   6 C     3257   1 H                                       1.0883669
  3016   6 C     3258   1 H                                       1.0882580

 * 2 distinct bonds (by element types)

   Z      Z             #   av. dist./Å        max./Å        min./Å
   1 H    6 C        2178     1.0922569     1.0941777     1.0868682
   6 C    6 C        1071     1.5276170     1.5358029     1.5222283


optimized geometry written to: xtbopt.xyz


           -------------------------------------------------
          | TOTAL ENERGY            -3427.477317967218 Eh   |
          | GRADIENT NORM               0.000963936287 Eh/α |
          | HOMO-LUMO GAP              11.465053867759 eV   |
           -------------------------------------------------

------------------------------------------------------------------------
 * finished run on 2024/10/04 at 08:45:00.660     
------------------------------------------------------------------------
 total:
 * wall-time:     0 d,  5 h, 41 min, 10.448 sec
 *  cpu-time:     1 d,  5 h, 22 min, 57.852 sec
 * ratio c/w:     5.167 speedup
 SCF:
 * wall-time:     0 d,  0 h, 13 min, 11.602 sec
 *  cpu-time:     0 d,  1 h, 22 min,  7.600 sec
 * ratio c/w:     6.225 speedup
 ANC optimizer:
 * wall-time:     0 d,  5 h, 27 min, 17.216 sec
 *  cpu-time:     1 d,  3 h, 59 min, 53.352 sec
 * ratio c/w:     5.133 speedup

