3795
 energy: -5103.658446222077 gnorm: 0.000967688368 xtb: 6.6.1 (8d0f1dd)
C           99.78200174172765      109.26314681152942      106.58899362348065
C          100.94666809490982      108.46570892669604      107.12359898346755
C           99.14709127285211      110.10912715613959      107.70078303007148
C          100.13334719171691      111.12580329296182      108.26613579844734
H           98.28502437839366      110.63312066074927      107.28581855473691
H           98.79723176215930      109.45410242996354      108.50004470925960
C           99.47636430023121      112.08142854812876      109.26022011382142
H          100.95362643591250      110.60668697923910      108.76844997905557
H          100.56475552526554      111.71793193450088      107.45482911228915
C          100.46190921538211      113.15818911621813      109.67796405758328
H           98.63326963691004      112.57996824194109      108.77637868526182
H           99.11575424517987      111.54646760720260      110.13647573313148
N          100.58232800685919      113.32717092818628      110.99847767923480
O          100.58279596828147      107.40970434423653      107.80285952252223
O          102.11298476693490      108.77376866478242      106.94084477721478
H          101.37667062802339      106.86921670091954      108.12701279524347
H           99.04194417583375      108.56444147615616      106.19957027389778
H          100.13828088297366      109.91269603525738      105.78942730986695
C          101.40265762398664      114.36682780289819      111.58393901267802
H          100.07716801193251      112.70012564616482      111.62284828889901
C          100.64801760675321      115.08917780300831      112.69798622826008
H          102.33188289620968      113.92944275295658      111.96621977789992
H          101.65918646504400      115.06100487876139      110.77878056224023
C          101.31189454926280      116.39513675224019      113.14075508066912
H           99.64432870678650      115.32146249912286      112.33591555501644
H          100.54046002660372      114.41773661547536      113.54918476395582
C          102.78398675569382      116.27734692732813      113.54100077089609
H          101.23972508010981      117.11912747113271      112.32681475855445
H          100.74400973187946      116.78952434875441      113.98628186173033
C          103.04257595493833      115.23002719025470      114.61999814398995
H          103.39017608628636      116.04222057740721      112.66483045195716
H          103.11532192747114      117.25139328042606      113.90746099541518
C          104.50545379459686      115.23410257506004      115.06124995256357
H          102.40274877104403      115.41186186375796      115.48569329680798
H          102.81288661038603      114.23790517569121      114.22936122467469
N          104.78165391075063      114.02627157020163      115.80809728959190
H          105.14264128197901      115.28781046871963      114.17709521724836
H          104.70580930483351      116.11765331397767      115.68159033950448
C          105.94422389462261      113.37683921553069      115.95812957341285
H          103.99823068364815      113.67853490771499      116.35095954426880
O          101.09062688747404      113.82490487077918      108.85738071769104
C          107.17169023814569      113.97590585706571      115.29663986344175
C          107.31835858264078      113.52747011535956      113.83854724668156
H          107.12329111869185      115.06216675738490      115.36177146515485
H          108.03826892974416      113.62339002359893      115.85961900900627
C          108.61418053668604      114.03709957804355      113.20599549489997
H          107.31065177264900      112.43530855997332      113.81343793139429
H          106.47512569608043      113.88411653846579      113.24522039726870
C          108.62961346147155      115.54930953221094      112.95953315384752
H          109.45383548152981      113.78781365173994      113.85811756694874
H          108.76476800998476      113.52564921353145      112.25257727573030
C          107.72505302665915      115.94339581414297      111.80594845006539
H          108.29191449296300      116.07885134122259      113.84953388063086
H          109.64281241407282      115.87077079914538      112.72565111962663
N          108.38303925292053      116.18301987533575      110.66880053884736
C          107.74537884635829      116.62293537683952      109.44380791746143
H          109.39860966592971      116.15874316958502      110.66900324881402
O          106.00961424451823      112.34563061552352      116.62053970037077
C          108.81596413998969      116.90643854195187      108.39945119888667
H          107.05036503088512      115.84611274505066      109.10410061301253
H          107.15183134178815      117.52328173355626      109.64547337090619
C          108.25973596327728      117.41551913388507      107.07095034996082
H          109.48754294011228      117.66079438655348      108.80963230806516
H          109.39801313909732      115.99868605235575      108.24419041647663
C          107.39216815207388      116.40985405226698      106.30732511854819
H          107.65961045382863      118.30841592143015      107.26022812458963
H          109.09755991344521      117.71606599246381      106.44052043985617
C          108.03680222609619      115.03978921398267      106.08668717628152
H          106.45435055205317      116.26211256854964      106.84539252100159
H          107.14249685300919      116.84384939447504      105.33709073884636
C          109.35870932623392      115.10859368039813      105.33025255979744
N          109.91556778067341      113.78108034341879      105.16411871519557
H          109.21729518637630      115.53911302207898      104.33449312278886
H          110.07267440585338      115.73492768945844      105.87638831501133
C          110.62832214122290      113.41677718981171      104.09842408432500
H          109.68717748696999      113.08654208767999      105.86723252174410
O          106.50013666417725      116.00211932678954      111.90399872906342
C          111.08280540681443      111.97272237027512      104.09086246777326
C          112.50154947106108      111.82590713430572      104.65615184156192
H          110.39131575563292      111.36790000201920      104.67523903216950
H          111.07298265901299      111.62992670336564      103.05453441668396
C          112.55327035095991      111.92810094021930      106.17869686747393
H          112.88429391110022      110.84630167374677      104.36289549630276
H          113.14554036492940      112.59115294892976      104.21578909893152
C          113.96449962531314      111.60633619408023      106.68148654329779
H          112.25990911448774      112.92783683458396      106.49934337596440
H          111.84215817719384      111.22179637452686      106.60737215645189
C          114.00273465549432      111.48201385661325      108.19048005697350
H          114.28294483663589      110.66333355223900      106.23839034021441
H          114.64826421433781      112.39683203117330      106.37328549930534
N          113.83855684115555      110.23656942627458      108.63794657445266
C          113.80950796384732      109.88374879871378      110.03764977528716
H          113.65715837965448      109.48983587256403      107.96970157743169
H          108.20544742934000      114.55097607056462      107.04724726605056
H          107.34028018532190      114.41631796748072      105.52168597996862
O          110.91957851586737      114.19982942506616      103.19276120110203
O          114.19306336967728      112.44170445755194      108.93514723147575
C          112.38580895526623      109.77787036664624      110.58946163795270
H          114.31365471827797      108.92130281208223      110.15675617198070
H          114.36082760266787      110.65192005132005      110.58650937375610
C          112.40269630429353      109.12598267029485      111.96852753448714
H          111.94239939796775      110.77286048998420      110.63845805830671
H          111.78520019648408      109.17266187253071      109.91148723667598
C          111.09453378730271      109.26186549551146      112.74167317055881
H          112.62708565376265      108.06452674954342      111.85252731019848
H          113.19958467223658      109.57676332400760      112.56322491055292
C          110.77013631365027      110.70678395815729      113.13362538378608
H          110.27150681435349      108.84379605960292      112.16151562623622
H          111.18713710565173      108.66682057319814      113.65165936315927
C          110.01700506025522      110.76941251379483      114.45685949893104
H          111.69647526366370      111.26763943185637      113.26244870311073
H          110.18006606609872      111.19054985815644      112.35368222665915
N          108.77637751793567      110.02955563168999      114.37439473850019
H          110.65596416057623      110.35550597358232      115.23945146404847
H          109.80222150121575      111.81383596781158      114.71285301855305
C          108.02391570817632      109.59673543988356      115.38147819869047
H          108.42059172061289      109.83601020175900      113.44096335409355
C          108.51074071496242      109.82322124992469      116.79454030304125
C          109.38709128305038      108.64879402462502      117.24489887172618
H          109.05940989120568      110.75913799860858      116.86327530304685
H          107.62990829307702      109.89467239162529      117.43481271769464
C          109.71334436647193      108.73283807694591      118.73221701512416
H          108.84777595571281      107.71951392409689      117.04915595852725
H          110.31528059481506      108.63068005742566      116.67150484912595
C          110.54246794016701      107.53314561817817      119.21466659726657
H          110.26401391045282      109.65339638021962      118.92324327286715
H          108.77752272537042      108.77544234265754      119.29547318189236
C          110.39572044878219      107.41888554778444      120.71679759447846
H          110.15184860109004      106.61775318734108      118.76921743889120
H          111.58529403736226      107.65079331737819      118.92540463001234
N          111.28611597820772      108.13044675592559      121.42674726990955
C          111.23894618903354      108.28022799671345      122.86732342542804
H          112.00089812131870      108.63680353817179      120.92571033324155
O          106.97206384277023      108.98855314680736      115.15600180001375
C          111.44032339711644      109.73199080476222      123.29426191367639
H          110.26228766822859      107.92057235393952      123.19655653166161
H          111.99883162379014      107.64462857461012      123.33759955261223
C          111.37106161217676      109.89330438932637      124.81317093426701
H          112.41078392923313      110.08549929895406      122.93760242432009
H          110.67337228780802      110.35479766326607      122.82846610398705
C          111.55449036789706      111.35664238340701      125.21715968002026
H          110.41088167943100      109.51943925380687      125.16989023439787
H          112.14886218217234      109.28556009341668      125.27901196479186
C          111.37720940646570      111.60425261622576      126.71757767887895
H          112.56035876737204      111.67181214631000      124.93508481379168
H          110.84888144743935      111.97516096247635      124.66223205035550
C          109.91774320807559      111.62719994732142      127.18270232592590
H          111.89843526176485      110.82751277377135      127.27960883567070
H          111.82504869358112      112.56491656269371      126.97351213979570
N          109.20752422696901      112.77419487830039      126.66163322107974
H          109.41197292509619      110.70888660503562      126.86634364410705
H          109.87622649810380      111.68412593170788      128.27390891994622
O          109.50465775499599      106.75862473842815      121.23554977225213
C          108.55803692234272      113.68164459562149      127.39451812391813
H          109.17951198470564      112.86558509917978      125.64506301164970
C          107.96711458477967      114.82652625868197      126.57727049183696
C          106.43988523534607      114.75928902785773      126.49794581013292
H          108.25217196881088      115.76283970840942      127.06096747360600
H          108.38537462202997      114.80926337682300      125.57185333543607
C          105.86272945386236      115.95461255347702      125.74391992129189
H          106.14207907790986      113.83856961906176      125.99530891104371
H          106.02997294424678      114.75025624365351      127.50976598400015
C          104.34018774979323      115.85994388495736      125.56029920573013
H          106.10234091047451      116.86470761298163      126.29609102775403
H          106.33207474239555      116.03086741070268      124.76143688423110
C          103.98055752727602      115.12066155208414      124.28565106370617
H          103.88902345078192      115.36584418778244      126.41836392326715
H          103.93184078361018      116.86772752240418      125.46410654782457
N          103.56738615217147      113.85583667858569      124.44400783972107
O          108.44406240785035      113.62091967999051      128.61724042008080
C          103.06712710492408      113.07842635432444      123.32512791833616
H          103.36316114114355      113.51299573669300      125.38174454437278
C          102.12992699759079      111.96808960503391      123.77705546522846
H          102.53425584132921      113.76588261716357      122.65625541290483
H          103.90472931157016      112.65816505447036      122.75464080952669
C          101.32799136428758      111.40242129432463      122.60553317602451
H          102.69867109550611      111.16369484571939      124.24697413082612
H          101.44347915265568      112.37248626360315      124.52311491008606
C          100.34718304626993      110.34103875123338      123.09479492565391
H          100.79048888585648      112.21299637166052      122.11024910659154
H          102.01489319114235      110.96425841840475      121.88077529843881
C           99.50156431612018      109.68038989637478      122.00601761054260
H          100.92199822402802      109.56227579032092      123.59751272282644
H           99.68093094916446      110.78276181016945      123.83891184095187
C           98.67509365464373      110.64574068499066      121.15695274306429
H          100.13925683591121      109.09929680418342      121.34170619634658
H           98.80866932907348      108.99799304323089      122.49495831780533
N           97.95833809005175      111.58267923708043      121.99272104231764
H           99.31195462660556      111.23694219170672      120.49393187134207
H           97.97359060597284      110.07163186864264      120.54084089307648
C           97.98617891510287      112.89931300373718      121.76847432732431
H           97.56301138398079      111.20568511832569      122.84493350796274
O          104.07370137048669      115.64625801202914      123.17705542348816
C           97.59149729845613      113.76932823892568      122.94250872132575
C           98.89195253942552      113.96336959948060      123.73289191954449
H           97.22051006825858      114.72959693034041      122.58393917968372
H           96.83303227309973      113.28911546133442      123.55859950114156
C           98.80299372984850      114.94106363865640      124.89685688734151
H           99.20774824858914      112.99222853559891      124.11683784284006
H           99.66548028469931      114.31554961871744      123.04519889710460
C          100.17472653238940      115.06051510629207      125.55707161364168
H           98.48186633854094      115.92607004662241      124.55347304519023
H           98.07067659376770      114.59457696024913      125.62813955634928
C          100.19691717246819      116.05412041550886      126.70457241617116
H          100.51295132481165      114.08799675082452      125.91628080555647
H          100.90339774391781      115.41080293552648      124.81896534918182
N          101.12612828627543      115.78129581932664      127.62984413909085
C          101.37586939147252      116.64805369007439      128.76345919028023
H          101.73349100342527      114.98257274440057      127.50291130603804
O           98.40712592728933      113.38021273689444      120.71611499224755
C          101.99212780615770      115.88194653504226      129.92754934621374
H          102.04146551516139      117.46551086625564      128.45944225670428
H          100.41566706601016      117.08878075559106      129.04580480435959
C          103.44372571686833      115.49189093399877      129.65325884296087
H          101.95362411224714      116.52022235453175      130.81106524517989
H          101.39603710495648      114.99110333510737      130.12913650682478
C          104.10722280330195      114.86422854324681      130.87652900146580
H          103.49136544262102      114.78531527260384      128.82306302664782
H          103.99995651452910      116.38380623257184      129.35867368896245
C          105.60382936984631      114.65991281827988      130.65968046665390
H          103.95191461487315      115.50481899634481      131.74666085869913
H          103.63841114582621      113.90055120191801      131.08566498061921
C          106.25154090132720      113.95447717308869      131.84075298131671
H          105.77128913850318      114.05666815210868      129.76724195276705
H          106.09637059889926      115.62097755634582      130.50524966920335
N          107.63751865115621      113.65251520307125      131.55778236080474
H          106.18267490911472      114.57173972559116      132.74471361399361
H          105.74187464670061      113.00658449048584      132.04303061993852
C          108.27782828672207      112.63916811037710      132.12333283051677
H          108.07822798979618      114.16978522904857      130.80659828392695
O           99.44636235463884      117.02109708138273      126.77116809257065
C          109.67329995616323      112.38374929085482      131.61184589684549
C          110.68045809034096      112.21754078303427      132.74870793549181
H          109.62513105986228      111.45448826404416      131.03916503527100
H          109.96445071018901      113.19401213189703      130.94532880197411
C          110.76405233150709      113.46680873782159      133.62048864496356
H          110.38285193688787      111.36362152617431      133.36212648193575
H          111.66544535086172      111.99853524761133      132.33378268907637
C          111.70338113547263      113.26520881685859      134.80692710497530
H          111.12558960272810      114.30207218870845      133.01642676735392
H          109.76602949625841      113.71506866156120      133.98872705597321
C          113.17049834390828      113.29694261519525      134.40818552423590
H          111.56083708394361      114.07625428526838      135.52616100512384
H          111.48203780688469      112.32514995162994      135.31358987434692
N          113.95134441503299      112.51569261808747      135.15971918567155
O          107.74820912007634      111.95488175633361      133.01777895523753
C          115.39869923017984      112.48534923527868      135.07454080321673
H          113.52657126616472      111.89546816858945      135.83539840138047
C          115.93102136814947      111.18105793552303      135.65221305660668
H          115.69686746729676      112.59174176750609      134.02729548377769
H          115.80562332511056      113.33862881310499      135.63121888548415
C          115.51911554518207      109.98774650460048      134.79509642162284
H          117.01864055956239      111.23780383945476      135.71462458323293
H          115.53991243180725      111.05450830498135      136.66391297591173
C          115.84962747274767      108.65447595734625      135.45990768330694
H          114.44318050842443      110.03639478051845      134.62392324242415
H          116.01819057173569      110.05539583216517      133.82629224974133
C          115.45337962691760      107.46480569854488      134.58484846246120
H          116.91715592310875      108.60307107535976      135.67985573156318
H          115.31736948963520      108.59118369075013      136.41092073441354
C          113.95547296422163      107.21284081580527      134.65422493998827
H          115.74358221783524      107.65831146418935      133.55016676325991
H          115.97985069183956      106.57191210300802      134.92775349484273
N          113.48764635776668      106.33460854685516      133.60094392160545
H          113.69875472179707      106.76943150190542      135.62046662791121
H          113.39742169039066      108.15210546305478      134.58204477281186
C          112.17881060164689      106.14034570566378      133.41490645288664
H          114.15925588373972      105.92206007887113      132.96420436227316
O          113.60294932072216      114.01783836445428      133.51375483120395
C          111.81782483929877      105.25653078643732      132.23758800897073
C          110.93189699654805      104.08811280507170      132.67016671434425
H          111.24840493736963      105.88304962331857      131.54775266270286
H          112.72158054922350      104.90086277507302      131.74350280515552
C          110.25465981176757      103.44450874208948      131.46524093757577
H          111.53828050572343      103.34743227032941      133.19380188190809
H          110.17664371643522      104.46194679310427      133.36535045114027
C          109.41755387072982      102.22429244924821      131.85389468979821
H          109.60582937949377      104.18114483440436      130.98402331944152
H          111.01684943242132      103.13929585477364      130.74504637205828
C          108.65072776283479      101.75862709843415      130.63707240451149
H          110.07310024650306      101.42812104521612      132.20121237076145
H          108.71028275872912      102.49758506146929      132.63672158539973
N          109.40115487318170      101.17193252973154      129.70411053809181
C          108.86140156694422      100.73317886867295      128.43386839454095
H          110.34134667545420      100.89078931898486      129.94533186036608
O          111.32226403068364      106.64843086844198      134.13495285539040
C          109.87980597707090       99.93797192367028      127.63156848344582
H          107.98339463537386      100.10884260067219      128.62947463770482
H          108.52649111326099      101.61402038072855      127.87341754421161
C          110.99242328404743      100.79166609760345      127.02456414826968
H          110.30699064919352       99.17366858291170      128.28045928127062
H          109.34614306315541       99.42933489735368      126.82698911708476
C          111.91154551113171       99.93801943701315      126.15177543672807
H          110.54332292663280      101.57793410970082      126.41318185241200
H          111.57939241440450      101.26817499482401      127.81202961462675
C          112.88447245316274      100.76755154434454      125.31580763704842
H          112.47532587846798       99.25281018722428      126.78708891708384
H          111.29425239571052       99.33936841331938      125.47721312692366
C          113.70240074039300       99.86868976119753      124.38476549285242
H          112.32200470431300      101.48255387762330      124.71123745011495
H          113.54510059793171      101.33942942869008      125.96825377230446
N          114.26571530562732      100.60216219645881      123.27268355654026
H          114.53441410604499       99.40148263877551      124.91613918504700
H          113.05852127275953       99.06982797501502      123.99344849840628
C          115.51519524184766      100.42894074464428      122.83295557323851
H          113.62911333831987      101.17927291004989      122.72534855094510
O          107.44511768965383      101.96683727488207      130.49741226915984
C          115.84008686130898      101.19955340146528      121.56648490636655
C          117.30710182272225      101.61356116534436      121.51824032224276
H          115.61302746336298      100.55056240888344      120.71570353357279
H          115.18880940013482      102.07131116767806      121.49897266445221
C          117.66187539515224      102.30359572720074      120.20519459441284
H          117.50509973406263      102.28858180265321      122.35419358730830
H          117.93666172923281      100.73196633303225      121.65614018618567
C          119.12645429547278      102.75988283326744      120.18190797402785
H          117.46431666120611      101.61875312869421      119.37855001906499
H          117.01987018558428      103.17668316985213      120.06946767223374
C          120.06689186615026      101.58815209526581      119.98640304248650
H          119.27714590046423      103.49324416949194      119.38878606234867
H          119.35795476079795      103.22808355998022      121.13967442440290
N          120.17929478328293      101.16834322849004      118.72162728349876
O          116.33098897953282       99.70290363150326      123.39673347450349
C          120.99828857208519      100.05048152885696      118.30812753997552
H          119.75069486635618      101.70537527914645      117.98270783288709
C          120.34770203120034       99.26457514672617      117.17502274685656
H          121.97426824394773      100.41907273492707      117.97053233782910
H          121.15417910149138       99.41844737931554      119.18601206791301
C          119.09737894913519       98.51133967549868      117.62530191255715
H          120.10564281605548       99.95381827363317      116.36453878387763
H          121.07915411530038       98.54626439124152      116.80126567347375
C          118.56149497830403       97.55763794291558      116.55663499843622
H          119.34890383463174       97.92738088398218      118.51366114225031
H          118.31199707980979       99.21675411030287      117.90430544440758
C          117.95388956251401       98.27965132036438      115.35608924221982
H          119.37544949117157       96.90567848002890      116.22950285350402
H          117.79324471940016       96.92255316145811      117.00552329757741
C          117.40268889688686       97.31404647668334      114.29560614051837
H          117.13281692693432       98.90790063545403      115.70475530910998
H          118.70274961196179       98.92107770989114      114.88753318393670
N          118.39446562901026       96.52887188091765      113.57990855505376
H          116.70532265873433       96.61455542311995      114.76522098318145
H          116.84946342106647       97.88829949295321      113.54645610275379
H          119.07835636464610       97.14672608680628      113.15662695472683
H          118.88711610930112       95.92029445282388      114.22308556644508
O          120.67027925835924      101.05857910762859      120.91699375500649
C          128.26655505403957      115.25212830861854      123.62997468042643
C          128.72478567453084      114.13869746366564      122.71291063686309
C          127.42651290039426      116.32768876108184      122.95007575164196
C          126.86706128676099      117.31633781321882      123.96948190008567
H          128.03572958166060      116.86063737107726      122.21953116543661
H          126.59904814988668      115.85470949421622      122.41942544624493
C          125.93197431820838      118.32626524552252      123.30484388733377
H          126.31128786513179      116.77076156346156      124.73276265683813
H          127.68285523667484      117.84332992949929      124.46706315811646
C          125.24963675018691      119.24259507822812      124.30692870314161
H          126.50567012168784      118.95833657717712      122.62172548265801
H          125.16991846622031      117.80841962254576      122.72176056776011
N          123.99435800729130      119.56168337019038      123.97906525747118
O          128.20748820260494      114.17679244001691      121.51419150652376
O          129.48881440594926      113.26630285097130      123.08924910181418
H          128.34394132527149      113.31137232804524      120.99272288991720
H          129.14305907668654      115.68967281364034      124.10904699657426
H          127.68192061344503      114.76941485389129      124.41978746951193
C          123.15416917609609      120.45569393816652      124.75318792020605
H          123.58986481194270      119.15491563011925      123.13833286265385
C          121.68369030648039      120.07742707345550      124.60396833447916
H          123.47821625222639      120.39335554079749      125.79615894467514
H          123.30637175587373      121.49287572596656      124.42664178710673
C          120.76966253127812      120.98692097630685      125.42334344941600
H          121.41764241765810      120.14596663307223      123.54882695653929
H          121.54733965453410      119.04036742555618      124.91736296130379
C          119.28263953976081      120.71411805378247      125.17748598447223
H          120.98725878234077      120.83880942682944      126.48352892906281
H          120.98692544884973      122.03067081421533      125.19164106734402
C          118.77832814341811      121.29504421802311      123.85763449532635
H          119.11296285688198      119.63535659196977      125.18892561859637
H          118.71083190378030      121.16192512914201      125.99228410603715
C          117.34366906345427      120.87331393424476      123.54753462423804
H          118.82981844383775      122.38262173252170      123.90070836725620
H          119.41686978813821      120.96825265996638      123.03597531191257
N          116.96439981648528      121.28037851963701      122.21087504041938
H          117.24844090152658      119.78209788436160      123.62420784699879
H          116.63705748190706      121.32339702018187      124.24949712719962