3795
 energy: -5103.018152515022 gnorm: 0.000957188737 xtb: 6.6.1 (8d0f1dd)
C          100.00001407851293      109.10307769489495      106.54860302570275
C          101.14854562431776      108.25318851850672      107.03993203140719
C           99.41445654840771      109.94698386620085      107.68860861414562
C          100.43778980287159      110.92975000479159      108.24825420698633
H           98.55385364736010      110.49745418615944      107.30227866222944
H           99.06216822068211      109.28575619019709      108.48285287143860
C           99.81959973556057      111.89586268043067      109.25598546973640
H          101.24540674025511      110.38100237789129      108.73633247921882
H          100.87188483630059      111.51605312997778      107.43539738787879
C          100.83088260098597      112.95535110449491      109.66052909110309
H           98.97806155040668      112.41445587184801      108.78877132087104
H           99.45643963330913      111.36849655263816      110.13615787135363
N          100.90696887827228      113.17482346726855      110.98223256318498
O          100.76164689238622      107.20569242566062      107.72603117362142
O          102.31496373318423      108.51264508691524      106.82267197396264
H          101.55134964967392      106.66287212688698      108.02995184291667
H           99.22903558620455      108.43970218881357      106.15441262080718
H          100.36272518489987      109.75712017463380      105.75476241585370
C          101.71669134516991      114.23414052778413      111.54170546836049
H          100.33655093023434      112.61363779297226      111.60932074708262
C          100.91551098335472      115.04827884833470      112.55630165705665
H          102.61336472561852      113.81051486881880      112.00837631564291
H          102.03246794691123      114.86579957443817      110.70696395898348
C          101.58190005694730      116.36898746170809      112.94796257068106
H           99.93997719949390      115.27383816869455      112.11926231405387
H          100.73876077575335      114.44278116130029      113.44597265372236
C          103.02388875414735      116.24831074006117      113.44462541358138
H          101.57537311818442      117.03603345527370      112.08361531034507
H          100.97327234631304      116.83443856066864      113.72775949819231
C          103.19251238915547      115.25192388449300      114.58775364381853
H          103.67919463102855      115.95826142731339      112.62290521617442
H          103.35211895825698      117.23373567007108      113.78298018567475
C          104.63116571009887      115.23870855234176      115.10338341510514
H          102.51026090117712      115.49106313568876      115.40630343724754
H          102.95753108077591      114.24779135756643      114.23284581219364
N          104.86023773603769      114.01934525609893      115.84778141291041
H          105.30825265835716      115.29828534076478      114.25045269206549
H          104.80817961664516      116.11323470439342      115.74382938404351
C          106.00725904547804      113.34834554589730      116.02831537232140
H          104.05962334270778      113.68920813191214      116.37768049374112
O          101.51462910232456      113.55948507173922      108.84839341440757
C          107.25980720089788      113.92670673463770      115.39442740645367
C          107.41451117354164      113.50971435799963      113.92874381116873
H          107.24217392680009      115.01248594268240      115.48589806012551
H          108.10942155452057      113.53852120253850      115.96028128952757
C          108.70173027759893      114.05996744388673      113.31294754595667
H          107.42534029636880      112.41913188136157      113.88107110224092
H          106.56934964798091      113.86665722024097      113.34025451518488
C          108.66992250238631      115.57564587889651      113.09003334842798
H          109.54760509097395      113.82463597197977      113.96483091875486
H          108.87418537398686      113.56867576548963      112.35207671352366
C          107.71533083011799      115.94584898650970      111.96921922734531
H          108.34251064470112      116.08079273109591      113.99803656211562
H          109.66661475259299      115.92953966873714      112.83295897204164
N          108.33410660420599      116.22841099590836      110.81520697789915
C          107.62725441069105      116.61336450398589      109.61170623420263
H          109.34629526978834      116.22852772820154      110.77719656383172
O          106.04234239257191      112.32144956410237      116.69165254403464
C          108.63905690330935      116.97965928396981      108.53538833415053
H          106.98812342677989      115.78246021883582      109.29106802546677
H          106.97183052918064      117.46354207613906      109.83085242520539
C          108.00742886242953      117.38940519706905      107.20632879309520
H          109.23343107852246      117.81477542213177      108.90565283871904
H          109.31577020191654      116.13719708764324      108.38818421112857
C          107.19760600387794      116.29253107491776      106.50861943049334
H          107.34845337191167      118.24310708027556      107.37957483219535
H          108.80344255196555      117.72395349317014      106.53721345781032
C          107.94355714645248      114.97160145202770      106.31309684418397
H          106.29234848494819      116.09186860415643      107.08270825399011
H          106.88468590270094      116.67012242914664      105.53216479817952
C          109.23290684646979      115.11977404378750      105.51560617461080
N          109.84170993964281      113.82401253719065      105.29225774969893
H          109.03484876775413      115.56770259837465      104.53593143766719
H          109.93760365200471      115.77294316683175      106.04384827422307
C          110.66731577320672      113.59549017802590      104.27160973639313
H          109.62613636304872      113.07083388757505      105.94126469199284
O          106.50032713789791      115.95006129537019      112.10001133928118
C          111.14315640059536      112.16392181991188      104.13153320864457
C          112.55990937624949      111.98008111391111      104.68656301109691
H          110.45952571538643      111.49606640068372      104.65227282056581
H          111.14193197243956      111.92218571372352      103.06642965605931
C          112.59413218594359      111.94525671183398      106.21228466318070
H          112.95844212516829      111.03505626181474      104.30949790634857
H          113.19911750084447      112.78923297829243      104.32237053384199
C          114.00137049190545      111.60184671651749      106.70857427674946
H          112.28204265775558      112.90863331178383      106.61481083988319
H          111.88893459039835      111.19500360568551      106.56769563659228
C          114.03988304949472      111.45000191539313      108.21549248927484
H          114.31759607285338      110.66775585964420      106.24407877658474
H          114.69163948323416      112.39527790254429      106.41988855706917
N          113.85852478676578      110.19949214596446      108.64093038331356
C          113.81788282673237      109.82551066245951      110.03499384526299
H          113.67654365897759      109.46151645404444      107.96244374947700
H          108.17728777244648      114.53137813674445      107.28265375659078
H          107.28578223243832      114.27895778570340      105.78378117917053
O          111.01944957288516      114.48224690951420      103.49507692739930
O          114.23999413103094      112.39550237957756      108.97329312121757
C          112.39157857791463      109.76544796928559      110.58539784511967
H          114.28645696092273      108.84273667098121      110.13512368554839
H          114.39939174609123      110.56240213114259      110.59617291114611
C          112.37767664487050      109.06546369285203      111.94059856943827
H          111.99731067237673      110.77864553374850      110.66777914998165
H          111.76520132592917      109.21488536274113      109.88585319005345
C          111.07571467526044      109.23713398811297      112.71614516448602
H          112.55458802597120      107.99972705740467      111.78839496165946
H          113.19588159937902      109.45977322340082      112.54756556522079
C          110.80198038277774      110.68623162803884      113.12880725226850
H          110.23909737412760      108.85991914791049      112.12899226774813
H          111.14995582419790      108.62712821338602      113.61707092628201
C          110.02716901612766      110.74968722733317      114.43944027928451
H          111.74641812335223      111.20982405934168      113.28485240624926
H          110.24622896070360      111.20589981200852      112.34667768783140
N          108.77684983402449      110.03022379018491      114.32977919181333
H          110.65019612157592      110.32150230301008      115.22758968937805
H          109.82918906178446      111.79584252289885      114.69983958701837
C          108.00250926777959      109.61067727330480      115.32698326256103
H          108.44278521830108      109.81857747518026      113.38925156001380
C          108.45944704338835      109.85301865153745      116.74709397106798
C          109.31957992480174      108.67475242399095      117.21793416460162
H          109.01698472247196      110.78379538382210      116.81687870058097
H          107.56817617499270      109.93839052600111      117.36983646320604
C          109.70884890548747      108.80269672733048      118.68685280712430
H          108.74807553404236      107.75415065265142      117.08184265423222
H          110.22604666181729      108.60585725036103      116.61402445031548
C          110.56443496596668      107.61535527068200      119.15655929683372
H          110.26915092754433      109.72620587060231      118.82878361980980
H          108.80074129851363      108.86133681659788      119.29159579372430
C          110.45936065656595      107.49208073934177      120.66015301317779
H          110.17751484416698      106.69356100213913      118.72118155060794
H          111.59788105308895      107.74785166318610      118.84323522965035
N          111.37448940628508      108.19634200873122      121.35158803776154
C          111.37293758039924      108.31347610399456      122.79507308945472
H          112.09202452335869      108.68334074541713      120.83572760422636
O          106.95839718193248      109.00131513771098      115.08398407646754
C          111.54876511424644      109.75775028530899      123.25693749949549
H          110.41734909322457      107.92010349781150      123.14330311904799
H          112.16476295212300      107.68943742957445      123.22834452667976
C          111.50724964068417      109.87986239960806      124.78086845971993
H          112.50391662112756      110.14331175847160      122.88813873357830
H          110.76039917578224      110.37552506635235      122.82221840290826
C          111.68015275891869      111.33618937035175      125.21448896222958
H          110.56060734940634      109.48280996456724      125.14586903793624
H          112.30278434982031      109.26982249469953      125.21522481009823
C          111.51340314755673      111.55663905205776      126.72078788346602
H          112.68062162205233      111.66766141466040      124.92697142093763
H          110.96399796444882      111.95668501977650      124.67624949414731
C          110.05488047718467      111.57148966631051      127.19509964332678
H          112.04346826443815      110.77212498599272      127.26523925920384
H          111.96402219584451      112.51393070902354      126.98768908121077
N          109.32548423879481      112.69529528019527      126.65440361077229
H          109.56180968362489      110.64135236915543      126.89921677548054
H          110.02598486801541      111.65372272730563      128.28447800132219
O          109.58319649986829      106.83341765795755      121.19887129647590
C          108.86274594423976      113.72631455645131      127.36802982948322
H          109.23995133124546      112.73534417687965      125.63584333343597
C          108.26165510827161      114.83919605731316      126.51705061315262
C          106.73496999080621      114.76091646416640      126.44018597850847
H          108.53772273349486      115.79412969280078      126.96747572785137
H          108.67633081869550      114.78931457357211      125.51099711069402
C          106.15145656696387      115.96925037961471      125.71315633122585
H          106.44253492493091      113.85132206613770      125.91633692729690
H          106.32575611520572      114.72823339001042      127.45196053520542
C          104.62781061235145      115.87898239030599      125.55239266056645
H          106.40586502779095      116.87125142204941      126.27389853394799
H          106.60444608252774      116.05698692137824      124.72522360918003
C          104.24617823182624      115.15474684047477      124.27434576455141
H          104.18926317775323      115.37798224354428      126.41318567535814
H          104.22121394644530      116.88899513890546      125.46986383801121
N          103.74299578510580      113.92251696391179      124.43685280180364
O          108.90659324423675      113.78713739330564      128.59214015291533
C          103.22242729943694      113.17351882104235      123.30801795581711
H          103.52291705897109      113.58490156790317      125.37145269859556
C          102.35328320744918      112.00537444450276      123.74711604413974
H          102.63280804980900      113.86242133316104      122.69047331419914
H          104.05213355547046      112.81183904349406      122.68912129756637
C          101.61224714421516      111.39984507343127      122.55607538090125
H          102.96675030550333      111.23369927302804      124.21549354505358
H          101.63086639630109      112.35540460469898      124.48636268383805
C          100.72934102784059      110.24067616328951      123.00624390152853
H          101.00658074269103      112.16530607693510      122.06882342636465
H          102.34441396813499      111.04191381404650      121.83084577537890
C           99.99787457043021      109.52511270836794      121.87330220185562
H          101.36498851406003      109.51243914011955      123.50974616916541
H           99.99908496749758      110.59925607412498      123.73338242053747
C           98.99554412337035      110.38853471641873      121.09884578706946
H          100.72841486062077      109.13638229518999      121.16527855574415
H           99.46449088654296      108.67623455348824      122.29580210315630
N           98.21086075852604      111.23264710799207      121.96777191203759
H           99.51648072784414      111.06015833593320      120.41105347081879
H           98.34064249347517      109.73176005240417      120.51354981527871
C           98.16283174187654      112.55837423244120      121.79140353093371
H           97.79816385481929      110.80673645753208      122.79219860997226
O          104.38979415908162      115.66196865413032      123.16803495211833
C           97.65520071385464      113.34811442592415      122.97968773044828
C           98.88402644053835      113.51837425249323      123.88172471405481
H           97.29442346786976      114.32056722506225      122.64402806494941
H           96.86095528390521      112.81792420003164      123.50241089981239
C           98.76088070233901      114.55954322675041      124.98735785475802
H           99.11576921566336      112.55118546922417      124.33150547790898
H           99.72993969925908      113.80202793561297      123.24960243463653
C          100.10490248555827      114.66742596739272      125.70238306414566
H           98.49602695399496      115.53331187634734      124.57271452133804
H           97.97982856466382      114.28130761581342      125.69604260954374
C          100.18816814581908      115.81577357915775      126.69361556277148
H          100.33932651237677      113.73399342821268      126.21789621952649
H          100.89469374706053      114.83770011178086      124.96411903368140
N          101.32652783369959      115.78066064915490      127.41822730748969
C          101.69878709860986      116.83973327047822      128.32568098159774
H          101.97730966539837      115.02135310779958      127.27579867319142
O           98.59887573086267      113.10757348008997      120.78352748947964
C          102.31331664668471      116.30896250253757      129.61854165121147
H          102.41279430118844      117.51433096153688      127.83357675495472
H          100.78514577240473      117.40274514365869      128.53329937169514
C          103.68758116209659      115.68289573410739      129.38540445279190
H          102.41177836220785      117.14403254883536      130.31555734285027
H          101.64054976466112      115.57599877772292      130.06695466381538
C          104.41594324355697      115.37596136252083      130.69189196811035
H          103.58136516458516      114.75964826177406      128.81366117656881
H          104.29462031679483      116.37310679483885      128.79486160551255
C          105.81018242472692      114.81533571027653      130.42832814433874
H          104.49572791365674      116.28801224104110      131.29002290079228
H          103.83456553849966      114.65776996707649      131.27451827048236
C          106.56611828135627      114.50745890384746      131.71514931458532
H          105.73125389548827      113.90008505517615      129.84152733214739
H          106.39518485989622      115.53397619341973      129.85039902815771
N          107.87724891724439      113.97996098740904      131.42024026494113
H          106.66423262454255      115.42079186028027      132.31388440055079
H          106.03339472095418      113.76395800487462      132.31323694286235
C          108.36152159964031      112.86421562487860      131.95714696883689
H          108.38741500244790      114.42656967623489      130.66617195297661
O           99.34817829362387      116.68555127960826      126.80454962595110
C          109.72655582959270      112.45037317127890      131.46947774877805
C          110.69619891992114      112.26391040544269      132.63880285383607
H          109.60156715296311      111.49166528456988      130.96060185274473
H          110.09882481664495      113.18568214888465      130.75955654886917
C          110.81250992296012      113.51926915488272      133.49951282117419
H          110.34238809417884      111.43558568943870      133.25530073744966
H          111.68226992889389      111.99627023534389      132.25613842838544
C          111.72360076574788      113.29375091705590      134.70535313121943
H          111.21356779527463      114.33877708176325      132.89919614649085
H          109.81905152998452      113.80873200780964      133.85097494938663
C          113.19843511759385      113.28424804241639      134.33906952969645
H          111.59238134606431      114.11505605919331      135.41628869922758
H          111.46731445524448      112.36608069868001      135.21632178450727
N          113.92666213580874      112.39068566710421      135.01456243526854
O          107.74231626015417      112.22420421313784      132.81853910091152
C          115.37594338024641      112.36152002309669      134.97455405799334
H          113.47287189187490      111.71739777504710      135.62305712236645
C          115.89119447367416      111.07225315376101      135.59701125804793
H          115.71560756970105      112.44778022779812      133.93713593530427
H          115.76481894205992      113.22942216737832      135.52357812985426
C          115.51987339835352      109.86687189973421      134.73968347926987
H          116.97508226875453      111.13809814561360      135.70767846403044
H          115.45353898933384      110.95783251480718      136.59068397696632
C          115.82908107475625      108.54273624169012      135.43008260748911
H          114.45101453923078      109.90886664358776      134.53335943446083
H          116.05130775669615      109.92660751977583      133.78729026352710
C          115.42552399478355      107.34586824345008      134.56867013625546
H          116.89363365760161      108.48050529587545      135.66387272678381
H          115.28454693584484      108.50406490014994      136.37478936803629
C          113.92228314716418      107.11843846079775      134.61467931423780
H          115.73843872293941      107.51784549452880      133.53604230528208
H          115.93482410444018      106.45293478700017      134.93662642580418
N          113.44972327169697      106.26858325964808      133.54034769934188
H          113.64865760877311      106.66132443647652      135.56897740316725
H          113.38293747360932      108.06819796485931      134.55192612681097
C          112.13484837105105      106.15667487014370      133.31142027862646
H          114.11618189342855      105.84846835570004      132.90396161264755
O          113.68306265555917      114.07044557909404      133.53087163347297
C          111.75599438275337      105.29093136400746      132.12704857299809
C          110.86519774076527      104.12874991812188      132.56684613691689
H          111.17742157657536      105.92547994948261      131.45351867392364
H          112.64947936671322      104.93213046254046      131.61669271104643
C          110.18810427163253      103.48343428363346      131.36294200162990
H          111.46594901182958      103.38762352742808      133.09887309375108
H          110.11020031280034      104.51103831722578      133.25674456765373
C          109.33918063521865      102.27292617313721      131.75353072782733
H          109.54620358842207      104.22080920399921      130.87547452382626
H          110.94816850758245      103.16558321034870      130.64583659395851
C          108.60153409770915      101.78252739177508      130.52931360881962
H          109.98216104260275      101.48057375074232      132.13238419122641
H          108.61218124055053      102.56172632242068      132.51239936519269
N          109.38137610872258      101.20404717571006      129.61312490963513
C          108.86499473243059      100.72777746844635      128.34829099824100
H          110.31015773712396      100.91052895158829      129.88608585950894
O          111.29158024745138      106.71135043080385      134.00007033919019
C          109.91054401961084       99.93887492170599      127.57477712941289
H          107.99930379916287      100.08619866731911      128.54231888310602
H          108.51830071313283      101.58847959337677      127.76382991001246
C          111.02179648065541      100.79991048360026      126.97543826790343
H          110.33884322914876       99.19079882735265      128.24132331186703
H          109.39941008944804       99.41004521708653      126.76763571240966
C          111.95529017916812       99.95279867884899      126.11117875881601
H          110.57099980175957      101.58052042506000      126.35689168108081
H          111.60170792939108      101.28151936345814      127.76388087723660
C          112.92005713747078      100.79118960574503      125.27528539211136
H          112.52606383234856       99.27992176273887      126.75397246565100
H          111.35055794076443       99.33922014064990      125.43677855279537
C          113.76438289066471       99.90348924211453      124.35610428880274
H          112.34925887593812      101.49032365705091      124.65907045170079
H          113.56326864537166      101.37968488214199      125.92945387635591
N          114.32682847408063      100.64245856878627      123.24985293325672
H          114.59997519521795       99.45512117546119      124.89809378784000
H          113.13825500133231       99.09213367090173      123.96001639646386
C          115.61520683549574      100.57160132599607      122.89394380990797
H          113.68296629179238      101.17825717971316      122.67004741599123
O          107.39831216133163      101.96798788061868      130.36934300502475
C          115.93717761632192      101.34096662200049      121.62585322978093
C          117.41999182277780      101.67820323767620      121.52808215807944
H          115.64385255226738      100.72419571872960      120.77232100953883
H          115.33198466201986      102.24824334979988      121.59672720462632
C          117.74834016693177      102.39926255901300      120.22530076503644
H          117.69321169822655      102.30716698528030      122.37866492510707
H          118.00642159683427      100.76074593809180      121.60377328030489
C          119.22731021608830      102.79441563148303      120.15362810996338
H          117.48485571566344      101.75203455730818      119.38825987951056
H          117.14042674875733      103.30352661035863      120.14461468203334
C          120.11594389491741      101.58466602934051      119.95696991102167
H          119.38681867491016      103.50614389530084      119.34168222036837
H          119.50763831126649      103.27439390943137      121.09282609462714
N          120.02618401453637      101.01544817533318      118.74935987049933
O          116.45394622735618       99.93614197077237      123.52100703133132
C          120.74604050877601       99.81654488963295      118.37722098386406
H          119.49403755778940      101.46924675048177      118.02338777079522
C          120.08588993862010       99.13196821890287      117.18736679716737
H          121.78382631464484      100.06887700657037      118.12098847722453
H          120.77074600566664       99.15733681238505      119.24961715822327
C          118.70788586011138       98.56374607734092      117.52567401828571
H          120.01387063711405       99.85123240546622      116.36841876407578
H          120.73647359176481       98.31780701993334      116.86219035415162
C          118.13804124473455       97.68165329450376      116.41442995071208
H          118.80072585246542       97.95808764262780      118.42840492029310
H          118.00637961962734       99.37221588679303      117.74010101773246
C          117.83629922986911       98.44318473178957      115.12526177827523
H          118.84816288821075       96.87621641674177      116.21032940523057
H          117.21284155879482       97.22556674228774      116.77402710861179
C          117.21091298042445       97.54825409944414      114.04273214632218
H          117.13965359967590       99.25406775864475      115.34488525083925
H          118.75401883525117       98.88140806963682      114.72527016341431
N          118.07037775873462       96.51250519607049      113.50480661058759
H          116.32120703175819       97.05724274813350      114.44452659452028
H          116.90056202221999       98.17536067300553      113.20097039571485
H          118.92445400393015       96.91767431222002      113.13642633336838
H          118.32620714846254       95.84985613561095      114.22779376730892
O          120.85240955572991      101.14810782840543      120.83451125978620
C          128.34165506460835      115.33439410539657      123.46387306408644
C          128.76888859683655      114.25113645327193      122.49548308004218
C          127.38605876176196      116.35695601161815      122.85989518114239
C          126.89128618328624      117.35713797305617      123.89907361364259
H          127.88921695283302      116.89275700927720      122.05446131816930
H          126.52948121607879      115.83439179839458      122.42967424570992
C          125.83017896668160      118.27527716793102      123.29675269961224
H          126.46072781791723      116.81934038747309      124.74427336055638
H          127.72627630950115      117.94969935665868      124.27376549223598
C          125.17182718151642      119.18718266437689      124.31972212487001
H          126.28922383426310      118.91375023109424      122.53674503680406
H          125.05615885532333      117.68366601980085      122.80458056402593
N          123.94411636599695      119.57970418703076      123.95777043016609
O          128.10959815495946      114.27131400238785      121.35931331190717
O          129.62058701535383      113.43081521422472      122.76365807605166
H          128.23644013258911      113.43300436921521      120.81260254463679
H          129.23207783400090      115.82189139561041      123.86083519386705
H          127.86082843659489      114.82179356209728      124.30333860946958
C          123.12131091261004      120.49293695486644      124.72565401149440
H          123.53953646024947      119.18227685209474      123.11464697386991
C          121.65188253968920      120.08552061763278      124.65498679127292
H          123.49033873246722      120.48160239439459      125.75488821939705
H          123.23354646475769      121.51415266608731      124.34045106105181
C          120.75388819061352      121.04661189913936      125.43097126894247
H          121.35060449394098      120.07146521630798      123.60718566129650
H          121.53593912258098      119.07210472840276      125.04694269461957
C          119.26269506257266      120.78206795387393      125.20380583458451
H          120.97343468584293      120.95048153418772      126.49665231226908
H          120.97961099513620      122.07220082709738      125.13900220680152
C          118.76053227913890      121.33797260500241      123.87288075662273
H          119.07994427861368      119.70495240278009      125.23999442638352
H          118.69871005809877      121.25364811707021      126.01121840874561
C          117.32817125353863      120.90842110248114      123.56428788300956
H          118.81075710478436      122.42553091197303      123.89942110651815
H          119.40311658529509      120.99697418600144      123.06034657735756
N          116.95185065787453      121.30850521700026      122.22540370411146
H          117.23586968440821      119.81684804577239      123.64781889884412
H          116.61826669185014      121.35872811527042      124.26332981301599