      -----------------------------------------------------------      
     |                   =====================                   |     
     |                           x T B                           |     
     |                   =====================                   |     
     |                         S. Grimme                         |     
     |          Mulliken Center for Theoretical Chemistry        |     
     |                    University of Bonn                     |     
      -----------------------------------------------------------      

   * xtb version 6.6.1 (8d0f1dd) compiled by 'stahn@M-Bot' on 2023-08-01

   xtb is free software: you can redistribute it and/or modify it under
   the terms of the GNU Lesser General Public License as published by
   the Free Software Foundation, either version 3 of the License, or
   (at your option) any later version.
   
   xtb is distributed in the hope that it will be useful,
   but WITHOUT ANY WARRANTY; without even the implied warranty of
   MERCHANTABILITY or FITNESS FOR A PARTICULAR PURPOSE.  See the
   GNU Lesser General Public License for more details.
   
   Cite this work as:
   * C. Bannwarth, E. Caldeweyher, S. Ehlert, A. Hansen, P. Pracht,
     J. Seibert, S. Spicher, S. Grimme, WIREs Comput. Mol. Sci., 2020, 11,
     e01493. DOI: 10.1002/wcms.1493
   
   for GFN2-xTB:
   * C. Bannwarth, S. Ehlert and S. Grimme., J. Chem. Theory Comput., 2019,
     15, 1652-1671. DOI: 10.1021/acs.jctc.8b01176
   for GFN1-xTB:
   * S. Grimme, C. Bannwarth, P. Shushkov, J. Chem. Theory Comput., 2017,
     13, 1989-2009. DOI: 10.1021/acs.jctc.7b00118
   for GFN0-xTB:
   * P. Pracht, E. Caldeweyher, S. Ehlert, S. Grimme, ChemRxiv, 2019, preprint.
     DOI: 10.26434/chemrxiv.8326202.v1
   for GFN-FF:
   * S. Spicher and S. Grimme, Angew. Chem. Int. Ed., 2020, 59, 15665-15673.
     DOI: 10.1002/anie.202004239
   
   for ALPB and GBSA implicit solvation:
   * S. Ehlert, M. Stahn, S. Spicher, S. Grimme, J. Chem. Theory Comput.,
     2021, 17, 4250-4261. DOI: 10.1021/acs.jctc.1c00471
   
   for DFT-D4:
   * E. Caldeweyher, C. Bannwarth and S. Grimme, J. Chem. Phys., 2017,
     147, 034112. DOI: 10.1063/1.4993215
   * E. Caldeweyher, S. Ehlert, A. Hansen, H. Neugebauer, S. Spicher,
     C. Bannwarth and S. Grimme, J. Chem. Phys., 2019, 150, 154122.
     DOI: 10.1063/1.5090222
   * E. Caldeweyher, J.-M. Mewes, S. Ehlert and S. Grimme, Phys. Chem. Chem. Phys.
     2020, 22, 8499-8512. DOI: 10.1039/D0CP00502A
   
   for sTDA-xTB:
   * S. Grimme and C. Bannwarth, J. Chem. Phys., 2016, 145, 054103.
     DOI: 10.1063/1.4959605
   
   in the mass-spec context:
   * V. Asgeirsson, C. Bauer and S. Grimme, Chem. Sci., 2017, 8, 4879.
     DOI: 10.1039/c7sc00601b
   * J. Koopman and S. Grimme, ACS Omega 2019, 4, 12, 15120-15133.
     DOI: 10.1021/acsomega.9b02011
   
   for metadynamics refer to:
   * S. Grimme, J. Chem. Theory Comput., 2019, 155, 2847-2862
     DOI: 10.1021/acs.jctc.9b00143
   
   for SPH calculations refer to:
   * S. Spicher and S. Grimme, J. Chem. Theory Comput., 2021, 17, 1701-1714
     DOI: 10.1021/acs.jctc.0c01306
   
   with help from (in alphabetical order)
   P. Atkinson, C. Bannwarth, F. Bohle, G. Brandenburg, E. Caldeweyher
   M. Checinski, S. Dohm, S. Ehlert, S. Ehrlich, I. Gerasimov, C. Hölzer
   A. Katbashev, J. Koopman, C. Lavigne, S. Lehtola, F. März, M. Müller,
   F. Musil, H. Neugebauer, J. Pisarek, C. Plett, P. Pracht, F. Pultar,
   J. Seibert, P. Shushkov, S. Spicher, M. Stahn, M. Steiner, T. Strunk,
   J. Stückrath, T. Rose, and J. Unsleber
   
 * started run on 2024/10/04 at 12:43:08.312     

           -------------------------------------------------
          |                Calculation Setup                |
           -------------------------------------------------

          program call               : /home/abt-grimme/AK-bin/xtb input.xyz --input input.inp --opt
          hostname                   : boar090.thch.uni-bonn.de
          coordinate file            : input.xyz
          omp threads                :                     8

   ID    Z sym.   atoms
    1    6 C      1-90, 273-362, 545-634, 817-906, 1089-1178, 1361-1450,
                  1633-1722, 1905-1994, 2177-2266, 2449-2538, 2721-2810,
                  2993-3082, 3265-3354
    2    1 H      91-272, 363-544, 635-816, 907-1088, 1179-1360, 1451-1632,
                  1723-1904, 1995-2176, 2267-2448, 2539-2720, 2811-2992,
                  3083-3264, 3355-3536

molecular fragmentation (1/2 indicates fragments):
111111111111111111111111111111111111111111111111111111111111111111111111
111111111111111111111111111111111111111111111111111111111111111111111111
111111111111111111111111111111111111111111111111111111111111111111111111
111111111111111111111111111111111111111111111111111111112222222222222222
222222222222222222222222222222222222222222222222222222222222222222222222
222222222222222222222222222222222222222222222222222222222222222222222222
222222222222222222222222222222222222222222222222222222222222222222222222
222222222222222222222222222222222222222222222222222222222222222222222222
222222222222222222222222222222222222222222222222222222222222222222222222
222222222222222222222222222222222222222222222222222222222222222222222222
222222222222222222222222222222222222222222222222222222222222222222222222
222222222222222222222222222222222222222222222222222222222222222222222222
222222222222222222222222222222222222222222222222222222222222222222222222
222222222222222222222222222222222222222222222222222222222222222222222222
222222222222222222222222222222222222222222222222222222222222222222222222
222222222222222222222222222222222222222222222222222222222222222222222222
222222222222222222222222222222222222222222222222222222222222222222222222
222222222222222222222222222222222222222222222222222222222222222222222222
222222222222222222222222222222222222222222222222222222222222222222222222
222222222222222222222222222222222222222222222222222222222222222222222222
222222222222222222222222222222222222222222222222222222222222222222222222
222222222222222222222222222222222222222222222222222222222222222222222222
222222222222222222222222222222222222222222222222222222222222222222222222
222222222222222222222222222222222222222222222222222222222222222222222222
222222222222222222222222222222222222222222222222222222222222222222222222
222222222222222222222222222222222222222222222222222222222222222222222222
222222222222222222222222222222222222222222222222222222222222222222222222
222222222222222222222222222222222222222222222222222222222222222222222222
222222222222222222222222222222222222222222222222222222222222222222222222
222222222222222222222222222222222222222222222222222222222222222222222222
222222222222222222222222222222222222222222222222222222222222222222222222
222222222222222222222222222222222222222222222222222222222222222222222222
222222222222222222222222222222222222222222222222222222222222222222222222
222222222222222222222222222222222222222222222222222222222222222222222222
222222222222222222222222222222222222222222222222222222222222222222222222
222222222222222222222222222222222222222222222222222222222222222222222222
222222222222222222222222222222222222222222222222222222222222222222222222
222222222222222222222222222222222222222222222222222222222222222222222222
222222222222222222222222222222222222222222222222222222222222222222222222
222222222222222222222222222222222222222222222222222222222222222222222222
222222222222222222222222222222222222222222222222222222222222222222222222
222222222222222222222222222222222222222222222222222222222222222222222222
222222222222222222222222222222222222222222222222222222222222222222222222
222222222222222222222222222222222222222222222222222222222222222222222222
222222222222222222222222222222222222222222222222222222222222222222222222
222222222222222222222222222222222222222222222222222222222222222222222222
222222222222222222222222222222222222222222222222222222222222222222222222
222222222222222222222222222222222222222222222222222222222222222222222222
222222222222222222222222222222222222222222222222222222222222222222222222
22222222
# atoms in fragment 1/2:   272  3264
 fragment masses (1/2) :     1264.41    15172.94
CMA distance (Bohr)    :  19.579
constraining FC (au)   :  0.0500

           -------------------------------------------------
          |                 G F N 2 - x T B                 |
           -------------------------------------------------

        Reference                      10.1021/acs.jctc.8b01176
      * Hamiltonian:
        H0-scaling (s, p, d)           1.850000    2.230000    2.230000
        zeta-weighting                 0.500000
      * Dispersion:
        s8                             2.700000
        a1                             0.520000
        a2                             5.000000
        s9                             5.000000
      * Repulsion:
        kExp                           1.500000    1.000000
        rExp                           1.000000
      * Coulomb:
        alpha                          2.000000
        third order                    shell-resolved
        anisotropic                    true
        a3                             3.000000
        a5                             4.000000
        cn-shift                       1.200000
        cn-exp                         4.000000
        max-rad                        5.000000


          ...................................................
          :                      SETUP                      :
          :.................................................:
          :  # basis functions                7046          :
          :  # atomic orbitals                7046          :
          :  # shells                         4706          :
          :  # electrons                      7046          :
          :  max. iterations                   250          :
          :  Hamiltonian                  GFN2-xTB          :
          :  restarted?                      false          :
          :  GBSA solvation                  false          :
          :  PC potential                    false          :
          :  electronic temp.          300.0000000     K    :
          :  accuracy                    1.0000000          :
          :  -> integral cutoff          0.2500000E+02      :
          :  -> integral neglect         0.1000000E-07      :
          :  -> SCF convergence          0.1000000E-05 Eh   :
          :  -> wf. convergence          0.1000000E-03 e    :
          :  Broyden damping             0.4000000          :
          ...................................................

 iter      E             dE          RMSdq      gap      omega  full diag
   1  -3766.6604927 -0.376666E+04  0.227E+00   11.52       0.0  T
   2  -3771.7398053 -0.507931E+01  0.127E+00   11.50       1.0  T
   3  -3771.9515239 -0.211719E+00  0.561E-01   11.47       1.0  T
   4  -3771.9732928 -0.217689E-01  0.143E-01   11.49       1.0  T
   5  -3771.9930674 -0.197745E-01  0.513E-02   11.49       1.0  T
   6  -3771.9930880 -0.206575E-04  0.711E-03   11.50       1.0  T
   7  -3771.9931214 -0.333075E-04  0.154E-03   11.50       1.1  T
   8  -3771.9931232 -0.187050E-05  0.547E-04   11.49       3.1  T
   9  -3771.9931233 -0.973196E-07  0.184E-04   11.49       9.1  T
  10  -3771.9931233 -0.154009E-07  0.701E-05   11.49      24.0  T

   *** convergence criteria satisfied after 10 iterations ***

         #    Occupation            Energy/Eh            Energy/eV
      -------------------------------------------------------------
         1        2.0000           -0.6267697             -17.0553
       ...           ...                  ...                  ...
      3517        2.0000           -0.3947999             -10.7431
      3518        2.0000           -0.3947217             -10.7409
      3519        2.0000           -0.3943647             -10.7312
      3520        2.0000           -0.3942852             -10.7290
      3521        2.0000           -0.3937901             -10.7156
      3522        2.0000           -0.3934993             -10.7077
      3523        2.0000           -0.3931416             -10.6979 (HOMO)
      3524                          0.0292885               0.7970 (LUMO)
      3525                          0.0295812               0.8049
      3526                          0.0300181               0.8168
      3527                          0.0300980               0.8190
      3528                          0.0304362               0.8282
       ...                                ...                  ...
      7046                          0.3826052              10.4112
      -------------------------------------------------------------
                  HL-Gap            0.4224301 Eh           11.4949 eV
             Fermi-level           -0.1819265 Eh           -4.9505 eV

 SCC (total)                   0 d,  0 h, 16 min, 59.161 sec
 SCC setup                      ...        0 min,  0.492 sec (  0.048%)
 Dispersion                     ...        0 min,  4.197 sec (  0.412%)
 classical contributions        ...        0 min,  0.180 sec (  0.018%)
 integral evaluation            ...        0 min,  6.939 sec (  0.681%)
 iterations                     ...       11 min, 43.016 sec ( 68.980%)
 molecular gradient             ...        4 min, 54.387 sec ( 28.885%)
 printout                       ...        0 min,  9.951 sec (  0.976%)

         :::::::::::::::::::::::::::::::::::::::::::::::::::::
         ::                     SUMMARY                     ::
         :::::::::::::::::::::::::::::::::::::::::::::::::::::
         :: total energy           -3716.226724287049 Eh    ::
         :: gradient norm              0.018990112851 Eh/a0 ::
         :: HOMO-LUMO gap             11.494908067878 eV    ::
         ::.................................................::
         :: SCC energy             -3771.993123334053 Eh    ::
         :: -> isotropic ES            0.588859398329 Eh    ::
         :: -> anisotropic ES          1.292233023126 Eh    ::
         :: -> anisotropic XC          2.079133536099 Eh    ::
         :: -> dispersion             -4.525478714361 Eh    ::
         :: repulsion energy          55.110926247737 Eh    ::
         :: add. restraining           0.000000000000 Eh    ::
         :: total charge              -0.000000000009 e     ::
         :::::::::::::::::::::::::::::::::::::::::::::::::::::

      ----------------------------------------------------------- 
     |              Fast Inertial Relaxation Engine              |
      ----------------------------------------------------------- 

          ...................................................
          :                      SETUP                      :
          :.................................................:
          :   energy convergence        0.5000000E-05 Eh    :
          :   grad. convergence         0.1000000E-02 Eh/a0 :
          :   optimization log               true           :
          :   writing optlog all                1     steps :
          :   Hessian reset                    20     steps :
          :   time step scaling                 5     steps :
          :   maximium step len.        1.0000000     a0    :
          :   initial time step         0.2500000     fs    :
          :   maximum time step         1.2500000     fs    :
          :   power reset thr           0.0000000     au    :
          :   alpha parameter           0.1000000           :
          :   BFGS update                   false           :
          :   preconditioning               false           :
          ...................................................

........................................................................
.............................. CYCLE    1 ..............................
........................................................................

 iter      E             dE          RMSdq      gap      omega  full diag
   1  -3771.9965446 -0.377200E+04  0.254E-04   11.50       0.0  T
   2  -3771.9965447 -0.274449E-07  0.150E-04   11.50      11.2  T
   3  -3771.9965447 -0.450655E-09  0.485E-05   11.50      34.7  T
     SCC iter.                  ...        3 min, 34.523 sec
     gradient                   ...        4 min, 52.314 sec
 * total energy  : -3716.2267650 Eh     change    :  -0.4070652E-04 Eh
   gradient norm :     0.0176027 Eh/a0  converged?    E=F G=F D=F
   time step     :     0.2500000 fs     power     :   0.2078589E-08
   step length   :     0.0022256 a0     speed     :   0.2153388E-03

........................................................................
.............................. CYCLE    2 ..............................
........................................................................

 iter      E             dE          RMSdq      gap      omega  full diag
   1  -3772.0015216 -0.377200E+04  0.372E-04   11.50       0.0  T
   2  -3772.0015217 -0.556579E-07  0.220E-04   11.50       7.6  T
   3  -3772.0015217 -0.873115E-09  0.680E-05   11.50      24.7  T
     SCC iter.                  ...        3 min, 34.369 sec
     gradient                   ...        4 min, 50.918 sec
 * total energy  : -3716.2268190 Eh     change    :  -0.5404565E-04 Eh
   gradient norm :     0.0156135 Eh/a0  converged?    E=F G=F D=F
   time step     :     0.2500000 fs     power     :   0.2693151E-08
   step length   :     0.0032568 a0     speed     :   0.3151122E-03

........................................................................
.............................. CYCLE    3 ..............................
........................................................................

 iter      E             dE          RMSdq      gap      omega  full diag
   1  -3772.0078316 -0.377201E+04  0.476E-04   11.50       0.0  T
   2  -3772.0078317 -0.891791E-07  0.282E-04   11.50       6.0  T
   3  -3772.0078317 -0.136470E-08  0.858E-05   11.50      19.6  T
     SCC iter.                  ...        3 min, 26.968 sec
     gradient                   ...        4 min, 53.555 sec
 * total energy  : -3716.2268788 Eh     change    :  -0.5974450E-04 Eh
   gradient norm :     0.0131528 Eh/a0  converged?    E=F G=F D=F
   time step     :     0.2500000 fs     power     :   0.2887608E-08
   step length   :     0.0041698 a0     speed     :   0.4034537E-03

........................................................................
.............................. CYCLE    4 ..............................
........................................................................

 iter      E             dE          RMSdq      gap      omega  full diag
   1  -3772.0151814 -0.377202E+04  0.563E-04   11.50       0.0  T
   2  -3772.0151815 -0.121293E-06  0.334E-04   11.50       5.0  T
   3  -3772.0151815 -0.191176E-08  0.993E-05   11.50      16.9  T
     SCC iter.                  ...        3 min, 27.332 sec
     gradient                   ...        4 min, 52.459 sec
 * total energy  : -3716.2269361 Eh     change    :  -0.5732832E-04 Eh
   gradient norm :     0.0104267 Eh/a0  converged?    E=F G=F D=F
   time step     :     0.2500000 fs     power     :   0.2655994E-08
   step length   :     0.0049333 a0     speed     :   0.4773230E-03

........................................................................
.............................. CYCLE    5 ..............................
........................................................................

 iter      E             dE          RMSdq      gap      omega  full diag
   1  -3772.0231988 -0.377202E+04  0.630E-04   11.50       0.0  T
   2  -3772.0231990 -0.145368E-06  0.374E-04   11.50       4.5  T
   3  -3772.0231990 -0.226555E-08  0.108E-04   11.50      15.6  T
     SCC iter.                  ...        3 min, 25.496 sec
     gradient                   ...        4 min, 52.904 sec
 * total energy  : -3716.2269839 Eh     change    :  -0.4775701E-04 Eh
   gradient norm :     0.0077850 Eh/a0  converged?    E=F G=F D=F
   time step     :     0.2500000 fs     power     :   0.2070114E-08
   step length   :     0.0055202 a0     speed     :   0.5341084E-03

........................................................................
.............................. CYCLE    6 ..............................
........................................................................

 iter      E             dE          RMSdq      gap      omega  full diag
   1  -3772.0322596 -0.377203E+04  0.744E-04   11.50       0.0  T
   2  -3772.0322598 -0.190237E-06  0.443E-04   11.50       3.8  T
   3  -3772.0322598 -0.284763E-08  0.121E-04   11.50      13.9  T
     SCC iter.                  ...        3 min, 32.546 sec
     gradient                   ...        4 min, 51.227 sec
 * total energy  : -3716.2270200 Eh     change    :  -0.3612505E-04 Eh
   gradient norm :     0.0057629 Eh/a0  converged?    E=F G=F D=F
   time step     :     0.2750000 fs     power     :   0.1186861E-08
   step length   :     0.0065352 a0     speed     :   0.5748312E-03

........................................................................
.............................. CYCLE    7 ..............................
........................................................................

 iter      E             dE          RMSdq      gap      omega  full diag
   1  -3772.0414840 -0.377204E+04  0.835E-04   11.50       0.0  T
   2  -3772.0414842 -0.204391E-06  0.498E-04   11.50       3.4  T
   3  -3772.0414842 -0.295358E-08  0.121E-04   11.50      13.9  T
     SCC iter.                  ...        3 min, 33.571 sec
     gradient                   ...        4 min, 50.758 sec
 * total energy  : -3716.2270386 Eh     change    :  -0.1856213E-04 Eh
   gradient norm :     0.0057739 Eh/a0  converged?    E=F G=F D=F
   time step     :     0.3025000 fs     power     :   0.2539621E-09
   step length   :     0.0073219 a0     speed     :   0.5854836E-03

........................................................................
.............................. CYCLE    8 ..............................
........................................................................

 iter      E             dE          RMSdq      gap      omega  full diag
   1  -3772.0493792 -0.377205E+04  0.870E-04   11.50       0.0  T
   2  -3772.0493794 -0.162732E-06  0.519E-04   11.50       3.2  T
   3  -3772.0493794 -0.223190E-08  0.100E-04   11.50      16.8  T
     SCC iter.                  ...        3 min, 28.981 sec
     gradient                   ...        4 min, 51.530 sec
 * total energy  : -3716.2270412 Eh     change    :  -0.2674982E-05 Eh
   gradient norm :     0.0073548 Eh/a0  converged?    E=T G=F D=F
   time step     :     0.3327500 fs     power     :  -0.3364261E-09
   step length   :     0.0075808 a0     speed     :   0.5510757E-03

........................................................................
.............................. CYCLE    9 ..............................
........................................................................
 * reset velocities

 iter      E             dE          RMSdq      gap      omega  full diag
   1  -3772.0491073 -0.377205E+04  0.297E-05   11.50       0.0  T
   2  -3772.0491073 -0.109731E-08  0.143E-05   11.50     117.4  T
   3  -3772.0491073 -0.645741E-10  0.786E-06   11.50     214.0  T
     SCC iter.                  ...        3 min, 32.195 sec
     gradient                   ...        4 min, 52.330 sec
 * total energy  : -3716.2270426 Eh     change    :  -0.1401836E-05 Eh
   gradient norm :     0.0072370 Eh/a0  converged?    E=T G=F D=T
   time step     :     0.1663750 fs     power     :   0.1101723E-09
   step length   :     0.0001909 a0     speed     :   0.2775129E-04

........................................................................
.............................. CYCLE   10 ..............................
........................................................................

 iter      E             dE          RMSdq      gap      omega  full diag
   1  -3772.0485677 -0.377205E+04  0.450E-05   11.50       0.0  T
   2  -3772.0485677 -0.653472E-09  0.267E-05   11.50      62.9  T
   3  -3772.0485677  0.536602E-10  0.735E-06   11.50     228.7  T
     SCC iter.                  ...        3 min, 30.507 sec
     gradient                   ...        4 min, 50.441 sec
 * total energy  : -3716.2270453 Eh     change    :  -0.2695484E-05 Eh
   gradient norm :     0.0069988 Eh/a0  converged?    E=T G=F D=T
   time step     :     0.1663750 fs     power     :   0.2113546E-09
   step length   :     0.0003787 a0     speed     :   0.5505788E-04

........................................................................
.............................. CYCLE   11 ..............................
........................................................................

 iter      E             dE          RMSdq      gap      omega  full diag
   1  -3772.0477718 -0.377205E+04  0.653E-05   11.50       0.0  T
   2  -3772.0477718 -0.140608E-08  0.387E-05   11.50      43.5  T
   3  -3772.0477718  0.105047E-09  0.107E-05   11.50     156.9  T
     SCC iter.                  ...        3 min, 28.482 sec
     gradient                   ...        4 min, 51.746 sec
 * total energy  : -3716.2270492 Eh     change    :  -0.3821663E-05 Eh
   gradient norm :     0.0066508 Eh/a0  converged?    E=T G=F D=T
   time step     :     0.1663750 fs     power     :   0.2970393E-09
   step length   :     0.0005603 a0     speed     :   0.8146271E-04

........................................................................
.............................. CYCLE   12 ..............................
........................................................................

 iter      E             dE          RMSdq      gap      omega  full diag
   1  -3772.0467364 -0.377205E+04  0.853E-05   11.50       0.0  T
   2  -3772.0467364 -0.221144E-08  0.506E-05   11.50      33.2  T
   3  -3772.0467364  0.318323E-11  0.138E-05   11.50     121.6  T
     SCC iter.                  ...        3 min, 27.753 sec
     gradient                   ...        4 min, 51.020 sec
 * total energy  : -3716.2270539 Eh     change    :  -0.4707435E-05 Eh
   gradient norm :     0.0062042 Eh/a0  converged?    E=T G=F D=T
   time step     :     0.1663750 fs     power     :   0.3620138E-09
   step length   :     0.0007328 a0     speed     :   0.1065441E-03

........................................................................
.............................. CYCLE   13 ..............................
........................................................................

 iter      E             dE          RMSdq      gap      omega  full diag
   1  -3772.0454842 -0.377205E+04  0.104E-04   11.50       0.0  T
   2  -3772.0454842 -0.316095E-08  0.616E-05   11.50      27.3  T
   3  -3772.0454842 -0.463842E-10  0.166E-05   11.50     101.2  T
     SCC iter.                  ...        3 min, 24.326 sec
     gradient                   ...        4 min, 51.747 sec
 * total energy  : -3716.2270591 Eh     change    :  -0.5291188E-05 Eh
   gradient norm :     0.0056749 Eh/a0  converged?    E=F G=F D=T
   time step     :     0.1663750 fs     power     :   0.4027562E-09
   step length   :     0.0008936 a0     speed     :   0.1299117E-03

........................................................................
.............................. CYCLE   14 ..............................
........................................................................

 iter      E             dE          RMSdq      gap      omega  full diag
   1  -3772.0440437 -0.377204E+04  0.120E-04   11.50       0.0  T
   2  -3772.0440437 -0.426053E-08  0.715E-05   11.50      23.5  T
   3  -3772.0440437  0.532054E-10  0.190E-05   11.50      88.6  T
     SCC iter.                  ...        3 min, 28.428 sec
     gradient                   ...        4 min, 52.857 sec
 * total energy  : -3716.2270647 Eh     change    :  -0.5560833E-05 Eh
   gradient norm :     0.0050843 Eh/a0  converged?    E=F G=F D=F
   time step     :     0.1663750 fs     power     :   0.4177675E-09
   step length   :     0.0010401 a0     speed     :   0.1512141E-03

........................................................................
.............................. CYCLE   15 ..............................
........................................................................

 iter      E             dE          RMSdq      gap      omega  full diag
   1  -3772.0422720 -0.377204E+04  0.150E-04   11.50       0.0  T
   2  -3772.0422720 -0.647515E-08  0.890E-05   11.50      18.9  T
   3  -3772.0422720 -0.291038E-10  0.233E-05   11.50      72.0  T
     SCC iter.                  ...        3 min, 28.709 sec
     gradient                   ...        4 min, 52.429 sec
 * total energy  : -3716.2270708 Eh     change    :  -0.6072163E-05 Eh
   gradient norm :     0.0043951 Eh/a0  converged?    E=F G=F D=F
   time step     :     0.1830125 fs     power     :   0.4052985E-09
   step length   :     0.0013017 a0     speed     :   0.1720459E-03

........................................................................
.............................. CYCLE   16 ..............................
........................................................................

 iter      E             dE          RMSdq      gap      omega  full diag
   1  -3772.0401618 -0.377204E+04  0.182E-04   11.50       0.0  T
   2  -3772.0401618 -0.924911E-08  0.108E-04   11.50      15.6  T
   3  -3772.0401618  0.354703E-10  0.275E-05   11.50      61.0  T
     SCC iter.                  ...        3 min, 25.320 sec
     gradient                   ...        4 min, 51.374 sec
 * total energy  : -3716.2270770 Eh     change    :  -0.6187303E-05 Eh
   gradient norm :     0.0036567 Eh/a0  converged?    E=F G=F D=F
   time step     :     0.2013138 fs     power     :   0.3611060E-09
   step length   :     0.0015931 a0     speed     :   0.1914243E-03

........................................................................
.............................. CYCLE   17 ..............................
........................................................................

 iter      E             dE          RMSdq      gap      omega  full diag
   1  -3772.0377507 -0.377204E+04  0.215E-04   11.50       0.0  T
   2  -3772.0377507 -0.120481E-07  0.128E-04   11.50      13.2  T
   3  -3772.0377507 -0.268301E-10  0.311E-05   11.50      54.1  T
     SCC iter.                  ...        3 min, 28.491 sec
     gradient                   ...        4 min, 52.529 sec
 * total energy  : -3716.2270827 Eh     change    :  -0.5748433E-05 Eh
   gradient norm :     0.0029995 Eh/a0  converged?    E=F G=F D=F
   time step     :     0.2214451 fs     power     :   0.2869966E-09
   step length   :     0.0019038 a0     speed     :   0.2079595E-03

........................................................................
.............................. CYCLE   18 ..............................
........................................................................

 iter      E             dE          RMSdq      gap      omega  full diag
   1  -3772.0351650 -0.377204E+04  0.245E-04   11.50       0.0  T
   2  -3772.0351651 -0.138775E-07  0.146E-04   11.50      11.6  T
   3  -3772.0351651 -0.144610E-09  0.326E-05   11.50      51.6  T
     SCC iter.                  ...        3 min, 27.436 sec
     gradient                   ...        4 min, 52.367 sec
 * total energy  : -3716.2270875 Eh     change    :  -0.4733982E-05 Eh
   gradient norm :     0.0026695 Eh/a0  converged?    E=T G=F D=F
   time step     :     0.2435896 fs     power     :   0.1964889E-09
   step length   :     0.0022106 a0     speed     :   0.2195168E-03

........................................................................
.............................. CYCLE   19 ..............................
........................................................................

 iter      E             dE          RMSdq      gap      omega  full diag
   1  -3772.0326661 -0.377203E+04  0.265E-04   11.50       0.0  T
   2  -3772.0326661 -0.133796E-07  0.158E-04   11.50      10.7  T
   3  -3772.0326661 -0.247383E-09  0.305E-05   11.50      55.1  T
     SCC iter.                  ...        3 min, 28.625 sec
     gradient                   ...        4 min, 50.803 sec
 * total energy  : -3716.2270910 Eh     change    :  -0.3527505E-05 Eh
   gradient norm :     0.0028320 Eh/a0  converged?    E=T G=F D=F
   time step     :     0.2679486 fs     power     :   0.1181523E-09
   step length   :     0.0024724 a0     speed     :   0.2231959E-03

........................................................................
.............................. CYCLE   20 ..............................
........................................................................

 iter      E             dE          RMSdq      gap      omega  full diag
   1  -3772.0305975 -0.377203E+04  0.273E-04   11.50       0.0  T
   2  -3772.0305975 -0.101982E-07  0.162E-04   11.50      10.4  T
   3  -3772.0305975 -0.236469E-09  0.246E-05   11.50      68.3  T
     SCC iter.                  ...        3 min, 29.706 sec
     gradient                   ...        4 min, 51.344 sec
 * total energy  : -3716.2270938 Eh     change    :  -0.2805548E-05 Eh
   gradient norm :     0.0032676 Eh/a0  converged?    E=T G=F D=F
   time step     :     0.2947435 fs     power     :   0.8189285E-10
   step length   :     0.0026677 a0     speed     :   0.2189327E-03
 * RMSD in coord.:     0.0006746 a0     energy gain  -0.3694975E-03 Eh

........................................................................
.............................. CYCLE   21 ..............................
........................................................................

 iter      E             dE          RMSdq      gap      omega  full diag
   1  -3772.0295391 -0.377203E+04  0.211E-04   11.49       0.0  T
   2  -3772.0295391 -0.376167E-08  0.125E-04   11.49      13.5  T
   3  -3772.0295391 -0.226919E-09  0.137E-05   11.49     122.7  T
     SCC iter.                  ...        3 min, 34.786 sec
     gradient                   ...        4 min, 53.281 sec
 * total energy  : -3716.2270961 Eh     change    :  -0.2318776E-05 Eh
   gradient norm :     0.0035482 Eh/a0  converged?    E=T G=F D=F
   time step     :     0.2500000 fs     power     :   0.1011820E-09
   step length   :     0.0021626 a0     speed     :   0.2092419E-03

........................................................................
.............................. CYCLE   22 ..............................
........................................................................

 iter      E             dE          RMSdq      gap      omega  full diag
   1  -3772.0291782 -0.377203E+04  0.195E-04   11.49       0.0  T
   2  -3772.0291782 -0.219688E-08  0.115E-04   11.49      14.7  T
   3  -3772.0291782 -0.100954E-09  0.112E-05   11.49     150.6  T
     SCC iter.                  ...        3 min, 27.682 sec
     gradient                   ...        4 min, 51.509 sec
 * total energy  : -3716.2270991 Eh     change    :  -0.2962921E-05 Eh
   gradient norm :     0.0036182 Eh/a0  converged?    E=T G=F D=F
   time step     :     0.2500000 fs     power     :   0.1421719E-09
   step length   :     0.0020924 a0     speed     :   0.2024554E-03

........................................................................
.............................. CYCLE   23 ..............................
........................................................................

 iter      E             dE          RMSdq      gap      omega  full diag
   1  -3772.0294715 -0.377203E+04  0.187E-04   11.49       0.0  T
   2  -3772.0294716 -0.238197E-08  0.109E-04   11.49      15.4  T
   3  -3772.0294716 -0.691216E-10  0.135E-05   11.49     124.8  T
     SCC iter.                  ...        3 min, 30.865 sec
     gradient                   ...        4 min, 53.976 sec
 * total energy  : -3716.2271028 Eh     change    :  -0.3698107E-05 Eh
   gradient norm :     0.0034595 Eh/a0  converged?    E=T G=F D=F
   time step     :     0.2500000 fs     power     :   0.1835274E-09
   step length   :     0.0020701 a0     speed     :   0.2002921E-03

........................................................................
.............................. CYCLE   24 ..............................
........................................................................

 iter      E             dE          RMSdq      gap      omega  full diag
   1  -3772.0303506 -0.377203E+04  0.188E-04   11.49       0.0  T
   2  -3772.0303506 -0.384944E-08  0.109E-04   11.49      15.4  T
   3  -3772.0303506 -0.709406E-10  0.184E-05   11.49      91.3  T
     SCC iter.                  ...        3 min, 33.758 sec
     gradient                   ...        4 min, 51.448 sec
 * total energy  : -3716.2271070 Eh     change    :  -0.4229296E-05 Eh
   gradient norm :     0.0030968 Eh/a0  converged?    E=T G=F D=F
   time step     :     0.2500000 fs     power     :   0.2088454E-09
   step length   :     0.0020919 a0     speed     :   0.2024032E-03

........................................................................
.............................. CYCLE   25 ..............................
........................................................................

 iter      E             dE          RMSdq      gap      omega  full diag
   1  -3772.0317283 -0.377203E+04  0.193E-04   11.49       0.0  T
   2  -3772.0317283 -0.595173E-08  0.111E-04   11.49      15.1  T
   3  -3772.0317283  0.509317E-10  0.233E-05   11.49      72.3  T
     SCC iter.                  ...        3 min, 29.735 sec
     gradient                   ...        4 min, 52.867 sec
 * total energy  : -3716.2271113 Eh     change    :  -0.4351322E-05 Eh
   gradient norm :     0.0025864 Eh/a0  converged?    E=T G=F D=F
   time step     :     0.2500000 fs     power     :   0.2089917E-09
   step length   :     0.0021426 a0     speed     :   0.2073069E-03

........................................................................
.............................. CYCLE   26 ..............................
........................................................................

 iter      E             dE          RMSdq      gap      omega  full diag
   1  -3772.0336995 -0.377203E+04  0.219E-04   11.49       0.0  T
   2  -3772.0336995 -0.979935E-08  0.126E-04   11.49      13.3  T
   3  -3772.0336995  0.109139E-09  0.300E-05   11.49      56.0  T
     SCC iter.                  ...        3 min, 25.529 sec
     gradient                   ...        4 min, 54.577 sec
 * total energy  : -3716.2271157 Eh     change    :  -0.4332643E-05 Eh
   gradient norm :     0.0019766 Eh/a0  converged?    E=T G=F D=F
   time step     :     0.2750000 fs     power     :   0.1784473E-09
   step length   :     0.0024368 a0     speed     :   0.2143426E-03

........................................................................
.............................. CYCLE   27 ..............................
........................................................................

 iter      E             dE          RMSdq      gap      omega  full diag
   1  -3772.0361902 -0.377204E+04  0.244E-04   11.49       0.0  T
   2  -3772.0361902 -0.134414E-07  0.140E-04   11.49      12.0  T
   3  -3772.0361902 -0.418368E-10  0.350E-05   11.49      48.0  T
     SCC iter.                  ...        3 min, 24.596 sec
     gradient                   ...        4 min, 52.971 sec
 * total energy  : -3716.2271193 Eh     change    :  -0.3636289E-05 Eh
   gradient norm :     0.0015581 Eh/a0  converged?    E=T G=F D=F
   time step     :     0.3025000 fs     power     :   0.1210036E-09
   step length   :     0.0027632 a0     speed     :   0.2209533E-03

........................................................................
.............................. CYCLE   28 ..............................
........................................................................

 iter      E             dE          RMSdq      gap      omega  full diag
   1  -3772.0388994 -0.377204E+04  0.253E-04   11.50       0.0  T
   2  -3772.0388994 -0.138866E-07  0.146E-04   11.50      11.6  T
   3  -3772.0388994 -0.823093E-10  0.350E-05   11.50      48.1  T
     SCC iter.                  ...        3 min, 28.736 sec
     gradient                   ...        4 min, 51.953 sec
 * total energy  : -3716.2271218 Eh     change    :  -0.2530717E-05 Eh
   gradient norm :     0.0017406 Eh/a0  converged?    E=T G=F D=F
   time step     :     0.3327500 fs     power     :   0.6290281E-10
   step length   :     0.0030566 a0     speed     :   0.2221924E-03

........................................................................
.............................. CYCLE   29 ..............................
........................................................................

 iter      E             dE          RMSdq      gap      omega  full diag
   1  -3772.0413084 -0.377204E+04  0.237E-04   11.50       0.0  T
   2  -3772.0413084 -0.938326E-08  0.137E-04   11.50      12.3  T
   3  -3772.0413084  0.109139E-10  0.275E-05   11.50      61.1  T
     SCC iter.                  ...        3 min, 23.140 sec
     gradient                   ...        4 min, 52.973 sec
 * total energy  : -3716.2271237 Eh     change    :  -0.1827157E-05 Eh
   gradient norm :     0.0022295 Eh/a0  converged?    E=T G=F D=F
   time step     :     0.3660250 fs     power     :   0.4070785E-10
   step length   :     0.0032396 a0     speed     :   0.2140890E-03

........................................................................
.............................. CYCLE   30 ..............................
........................................................................

 iter      E             dE          RMSdq      gap      omega  full diag
   1  -3772.0430057 -0.377204E+04  0.210E-04   11.50       0.0  T
   2  -3772.0430057 -0.363025E-08  0.121E-04   11.50      13.8  T
   3  -3772.0430057 -0.882210E-10  0.159E-05   11.50     105.6  T
     SCC iter.                  ...        3 min, 25.048 sec
     gradient                   ...        4 min, 52.780 sec
 * total energy  : -3716.2271259 Eh     change    :  -0.2270735E-05 Eh
   gradient norm :     0.0025368 Eh/a0  converged?    E=T G=F D=F
   time step     :     0.4026275 fs     power     :   0.6090787E-10
   step length   :     0.0033945 a0     speed     :   0.2039328E-03

........................................................................
.............................. CYCLE   31 ..............................
........................................................................

 iter      E             dE          RMSdq      gap      omega  full diag
   1  -3772.0437087 -0.377204E+04  0.192E-04   11.50       0.0  T
   2  -3772.0437087 -0.123100E-08  0.113E-04   11.50      14.9  T
   3  -3772.0437087 -0.163709E-10  0.894E-06   11.50     188.1  T
     SCC iter.                  ...        3 min, 26.881 sec
     gradient                   ...        4 min, 53.657 sec
 * total energy  : -3716.2271296 Eh     change    :  -0.3633726E-05 Eh
   gradient norm :     0.0024510 Eh/a0  converged?    E=T G=F D=F
   time step     :     0.4428903 fs     power     :   0.9984663E-10
   step length   :     0.0036446 a0     speed     :   0.1990548E-03

........................................................................
.............................. CYCLE   32 ..............................
........................................................................

 iter      E             dE          RMSdq      gap      omega  full diag
   1  -3772.0432866 -0.377204E+04  0.200E-04   11.50       0.0  T
   2  -3772.0432866 -0.503496E-08  0.121E-04   11.50      13.9  T
   3  -3772.0432866  0.295586E-10  0.185E-05   11.50      91.0  T
     SCC iter.                  ...        3 min, 27.436 sec
     gradient                   ...        4 min, 51.787 sec
 * total energy  : -3716.2271346 Eh     change    :  -0.5009013E-05 Eh
   gradient norm :     0.0019782 Eh/a0  converged?    E=F G=F D=F
   time step     :     0.4871793 fs     power     :   0.1208763E-09
   step length   :     0.0040671 a0     speed     :   0.2019340E-03

........................................................................
.............................. CYCLE   33 ..............................
........................................................................

 iter      E             dE          RMSdq      gap      omega  full diag
   1  -3772.0419051 -0.377204E+04  0.226E-04   11.50       0.0  T
   2  -3772.0419051 -0.138721E-07  0.138E-04   11.50      12.2  T
   3  -3772.0419051  0.727596E-11  0.336E-05   11.50      50.0  T
     SCC iter.                  ...        3 min, 24.980 sec
     gradient                   ...        4 min, 54.776 sec
 * total energy  : -3716.2271398 Eh     change    :  -0.5198639E-05 Eh
   gradient norm :     0.0015183 Eh/a0  converged?    E=F G=F D=F
   time step     :     0.5358972 fs     power     :   0.1011688E-09
   step length   :     0.0046486 a0     speed     :   0.2098247E-03

........................................................................
.............................. CYCLE   34 ..............................
........................................................................

 iter      E             dE          RMSdq      gap      omega  full diag
   1  -3772.0403601 -0.377204E+04  0.230E-04   11.50       0.0  T
   2  -3772.0403602 -0.170053E-07  0.142E-04   11.50      11.9  T
   3  -3772.0403602 -0.741238E-10  0.369E-05   11.50      45.5  T
     SCC iter.                  ...        3 min, 29.734 sec
     gradient                   ...        4 min, 54.368 sec
 * total energy  : -3716.2271441 Eh     change    :  -0.4284789E-05 Eh
   gradient norm :     0.0017471 Eh/a0  converged?    E=T G=F D=F
   time step     :     0.5894869 fs     power     :   0.6801232E-10
   step length   :     0.0052605 a0     speed     :   0.2158577E-03

........................................................................
.............................. CYCLE   35 ..............................
........................................................................

 iter      E             dE          RMSdq      gap      omega  full diag
   1  -3772.0399267 -0.377204E+04  0.215E-04   11.50       0.0  T
   2  -3772.0399268 -0.779937E-08  0.131E-04   11.50      12.8  T
   3  -3772.0399268 -0.873115E-10  0.207E-05   11.50      81.4  T
     SCC iter.                  ...        3 min, 29.867 sec
     gradient                   ...        4 min, 50.450 sec
 * total energy  : -3716.2271485 Eh     change    :  -0.4412547E-05 Eh
   gradient norm :     0.0020702 Eh/a0  converged?    E=T G=F D=F
   time step     :     0.6484356 fs     power     :   0.7407815E-10
   step length   :     0.0057738 a0     speed     :   0.2153809E-03

........................................................................
.............................. CYCLE   36 ..............................
........................................................................

 iter      E             dE          RMSdq      gap      omega  full diag
   1  -3772.0414334 -0.377204E+04  0.259E-04   11.50       0.0  T
   2  -3772.0414334 -0.328828E-08  0.152E-04   11.50      11.0  T
   3  -3772.0414334 -0.522959E-10  0.156E-05   11.50     107.6  T
     SCC iter.                  ...        3 min, 25.437 sec
     gradient                   ...        4 min, 51.168 sec
 * total energy  : -3716.2271547 Eh     change    :  -0.6170581E-05 Eh
   gradient norm :     0.0018154 Eh/a0  converged?    E=F G=F D=F
   time step     :     0.7132792 fs     power     :   0.1017285E-09
   step length   :     0.0064246 a0     speed     :   0.2178720E-03

........................................................................
.............................. CYCLE   37 ..............................
........................................................................

 iter      E             dE          RMSdq      gap      omega  full diag
   1  -3772.0448388 -0.377204E+04  0.342E-04   11.50       0.0  T
   2  -3772.0448389 -0.147184E-07  0.199E-04   11.50       8.5  T
   3  -3772.0448389 -0.345608E-10  0.356E-05   11.50      47.3  T
     SCC iter.                  ...        3 min, 31.066 sec
     gradient                   ...        4 min, 54.728 sec
 * total energy  : -3716.2271616 Eh     change    :  -0.6953358E-05 Eh
   gradient norm :     0.0013871 Eh/a0  converged?    E=F G=F D=F
   time step     :     0.7846071 fs     power     :   0.9199551E-10
   step length   :     0.0073732 a0     speed     :   0.2273104E-03

........................................................................
.............................. CYCLE   38 ..............................
........................................................................

 iter      E             dE          RMSdq      gap      omega  full diag
   1  -3772.0483393 -0.377205E+04  0.338E-04   11.50       0.0  T
   2  -3772.0483393 -0.181058E-07  0.196E-04   11.50       8.6  T
   3  -3772.0483393 -0.288765E-09  0.375E-05   11.50      44.9  T
     SCC iter.                  ...        3 min, 28.445 sec
     gradient                   ...        4 min, 52.170 sec
 * total energy  : -3716.2271678 Eh     change    :  -0.6164782E-05 Eh
   gradient norm :     0.0017234 Eh/a0  converged?    E=F G=F D=F
   time step     :     0.8630678 fs     power     :   0.6898022E-10
   step length   :     0.0084115 a0     speed     :   0.2357461E-03

........................................................................
.............................. CYCLE   39 ..............................
........................................................................

 iter      E             dE          RMSdq      gap      omega  full diag
   1  -3772.0493067 -0.377205E+04  0.270E-04   11.50       0.0  T
   2  -3772.0493067 -0.810769E-08  0.159E-04   11.50      10.6  T
   3  -3772.0493067 -0.347882E-09  0.274E-05   11.50      61.5  T
     SCC iter.                  ...        3 min, 30.189 sec
     gradient                   ...        4 min, 50.982 sec
 * total energy  : -3716.2271752 Eh     change    :  -0.7394881E-05 Eh
   gradient norm :     0.0016706 Eh/a0  converged?    E=F G=F D=F
   time step     :     0.9493746 fs     power     :   0.8914090E-10
   step length   :     0.0093937 a0     speed     :   0.2393405E-03

........................................................................
.............................. CYCLE   40 ..............................
........................................................................

 iter      E             dE          RMSdq      gap      omega  full diag
   1  -3772.0471606 -0.377205E+04  0.335E-04   11.50       0.0  T
   2  -3772.0471607 -0.233354E-07  0.199E-04   11.50       8.5  T
   3  -3772.0471607  0.632099E-10  0.491E-05   11.50      34.2  T
     SCC iter.                  ...        3 min, 27.884 sec
     gradient                   ...        4 min, 54.697 sec
 * total energy  : -3716.2271838 Eh     change    :  -0.8608813E-05 Eh
   gradient norm :     0.0013725 Eh/a0  converged?    E=F G=F D=F
   time step     :     1.0443120 fs     power     :   0.8266466E-10
   step length   :     0.0107612 a0     speed     :   0.2492553E-03

........................................................................
.............................. CYCLE   41 ..............................
........................................................................

 iter      E             dE          RMSdq      gap      omega  full diag
   1  -3772.0453535 -0.377205E+04  0.352E-04   11.50       0.0  T
   2  -3772.0453535 -0.137934E-07  0.209E-04   11.50       8.0  T
   3  -3772.0453535  0.190994E-10  0.312E-05   11.50      54.0  T
     SCC iter.                  ...        3 min, 32.956 sec
     gradient                   ...        4 min, 54.817 sec
 * total energy  : -3716.2271922 Eh     change    :  -0.8465264E-05 Eh
   gradient norm :     0.0016402 Eh/a0  converged?    E=F G=F D=F
   time step     :     1.1487432 fs     power     :   0.7707032E-10
   step length   :     0.0122606 a0     speed     :   0.2581684E-03

........................................................................
.............................. CYCLE   42 ..............................
........................................................................

 iter      E             dE          RMSdq      gap      omega  full diag
   1  -3772.0474669 -0.377205E+04  0.399E-04   11.50       0.0  T
   2  -3772.0474670 -0.204541E-07  0.231E-04   11.50       7.3  T
   3  -3772.0474670 -0.600267E-10  0.459E-05   11.50      36.6  T
     SCC iter.                  ...        3 min, 33.458 sec
     gradient                   ...        4 min, 52.901 sec
 * total energy  : -3716.2272024 Eh     change    :  -0.1017249E-04 Eh
   gradient norm :     0.0012945 Eh/a0  converged?    E=F G=F D=F
   time step     :     1.2500000 fs     power     :   0.8393583E-10
   step length   :     0.0137896 a0     speed     :   0.2668441E-03
 * RMSD in coord.:     0.0017217 a0     energy gain  -0.1086269E-03 Eh

........................................................................
.............................. CYCLE   43 ..............................
........................................................................

 iter      E             dE          RMSdq      gap      omega  full diag
   1  -3772.0479365 -0.377205E+04  0.678E-05   11.50       0.0  T
   2  -3772.0479365 -0.525233E-09  0.399E-05   11.50      42.1  T
   3  -3772.0479365 -0.868567E-10  0.656E-06   11.50     256.2  T
     SCC iter.                  ...        3 min, 33.885 sec
     gradient                   ...        4 min, 51.765 sec
 * total energy  : -3716.2272042 Eh     change    :  -0.1812947E-05 Eh
   gradient norm :     0.0012876 Eh/a0  converged?    E=T G=F D=F
   time step     :     0.2500000 fs     power     :   0.9308870E-10
   step length   :     0.0026567 a0     speed     :   0.2570466E-03

........................................................................
.............................. CYCLE   44 ..............................
........................................................................

 iter      E             dE          RMSdq      gap      omega  full diag
   1  -3772.0483652 -0.377205E+04  0.648E-05   11.50       0.0  T
   2  -3772.0483652 -0.691216E-09  0.380E-05   11.50      44.3  T
   3  -3772.0483652 -0.272848E-11  0.817E-06   11.50     205.8  T
     SCC iter.                  ...        3 min, 29.236 sec
     gradient                   ...        4 min, 53.074 sec
 * total energy  : -3716.2272062 Eh     change    :  -0.1979035E-05 Eh
   gradient norm :     0.0012034 Eh/a0  converged?    E=T G=F D=F
   time step     :     0.2500000 fs     power     :   0.1000047E-09
   step length   :     0.0025826 a0     speed     :   0.2498760E-03

........................................................................
.............................. CYCLE   45 ..............................
........................................................................

 iter      E             dE          RMSdq      gap      omega  full diag
   1  -3772.0486881 -0.377205E+04  0.722E-05   11.50       0.0  T
   2  -3772.0486881 -0.705768E-09  0.424E-05   11.50      39.7  T
   3  -3772.0486881  0.441105E-10  0.814E-06   11.50     206.6  T
     SCC iter.                  ...        3 min, 30.000 sec
     gradient                   ...        4 min, 53.476 sec
 * total energy  : -3716.2272082 Eh     change    :  -0.2007261E-05 Eh
   gradient norm :     0.0010831 Eh/a0  converged?    E=T G=F D=F
   time step     :     0.2500000 fs     power     :   0.1017195E-09
   step length   :     0.0025371 a0     speed     :   0.2454801E-03

........................................................................
.............................. CYCLE   46 ..............................
........................................................................

 iter      E             dE          RMSdq      gap      omega  full diag
   1  -3772.0488665 -0.377205E+04  0.811E-05   11.50       0.0  T
   2  -3772.0488665 -0.708951E-09  0.476E-05   11.50      35.3  T
   3  -3772.0488665  0.145519E-10  0.797E-06   11.50     211.0  T
     SCC iter.                  ...        3 min, 29.296 sec
     gradient                   ...        4 min, 52.690 sec
 * total energy  : -3716.2272102 Eh     change    :  -0.1965804E-05 Eh
   gradient norm :     0.0009882 Eh/a0  converged?    E=T G=T D=F
   time step     :     0.2500000 fs     power     :   0.9852803E-10
   step length   :     0.0025149 a0     speed     :   0.2433306E-03

   *** GEOMETRY OPTIMIZATION CONVERGED AFTER 46 CYCLES ***

------------------------------------------------------------------------
 total energy gain   :        -0.0004859 Eh       -0.3049 kcal/mol
 total RMSD          :         0.0021841 a0        0.0012 Å
 total power (kW/mol):        -0.0277327 (step)   -0.0001 (real)
------------------------------------------------------------------------

 FIRE (total)                  0 d,  6 h, 41 min, 21.094 sec
 setup                          ...        0 min,  0.136 sec (  0.001%)
 velocities                     ...        0 min,  0.003 sec (  0.000%)
 propagation                    ...        0 min,  0.006 sec (  0.000%)
 singlepoint calculation        ...      401 min, 20.133 sec ( 99.996%)
 log and printout               ...        0 min,  0.744 sec (  0.003%)
 preconditioner                 ...        0 min,  0.000 sec (  0.000%)
 model hessian                  ...        0 min,  0.000 sec (  0.000%)
 hessian update                 ...        0 min,  0.000 sec (  0.000%)

================
 final structure:
================
3536
 xtb: 6.6.1 (8d0f1dd)
C           59.06169864115711       61.10177523807164       59.77790373381123
C           60.07866400500554       59.96498191663366       59.70656968077354
C           59.35429820013380       58.62331979005374       59.78653524729574
C           61.11443477468018       60.10248660698766       60.82920226549742
C           62.35959881793331       59.22764429151106       60.63599286281001
C           63.06776077634148       59.00937954283608       61.97158962282980
C           63.33908595257871       59.83483523581246       59.61992381458190
C           64.14527282318545       58.76301655947860       58.87087066536309
C           65.47743349196969       59.32910562135048       58.38480172595732
C           63.33272583953055       58.21219275390484       57.69002180991250
C           63.65947401247703       56.75914331070940       57.31386589042047
C           63.24286523227291       56.49594719864341       55.86760661023119
C           62.93414338420599       55.80770236151054       58.27208928361439
C           63.41632853048665       54.35069999482965       58.26903950582322
C           62.35051658665860       53.49971603661216       58.96379099275954
C           64.78326086473545       54.20960729597288       58.96210536140542
C           65.74883091160018       53.23167533499849       58.28390470512731
C           65.19667571818179       51.80865256203554       58.27221536806449
C           67.11623035182770       53.21645684260104       58.98270653109162
C           68.00661721063302       54.45583478625370       58.80706876929219
C           68.28823795028052       54.72169935481928       57.33109019222829
C           69.30724974978544       54.20567852240320       59.58716476804397
C           70.34392484702374       55.33823525462823       59.60193799214593
C           71.65459064231578       54.78827724075911       60.16641378788614
C           69.86075952251861       56.54036364504282       60.42121080962170
C           70.67100486519762       57.82245748237124       60.18479583076954
C           70.33457376123789       58.85012913760596       61.26532504486369
C           70.42257265836069       58.41233533826622       58.78222721829496
C           71.65762189507224       58.43258471432913       57.87256535563596
C           72.71139381241895       59.39805037170562       58.41522437319633
C           71.28201823873988       58.86439719596456       56.44692682127827
C           70.52621780390676       57.82137451726850       55.61507227835873
C           71.47490284087081       56.73415311811778       55.11251408734612
C           69.82215099544440       58.48557732853154       54.42202683448775
C           68.52987294573393       59.23088937309685       54.77889732442748
C           67.41550108190971       58.24075158659696       55.12336853491784
C           68.05913521796883       60.12602109032071       53.62225447015336
C           68.96701396986749       61.30191811148818       53.23782898352601
C           69.31767903837195       62.17067378177938       54.44515855988804
C           68.28160140801445       62.18634458855736       52.18370986173728
C           68.00705640420331       61.53851427802915       50.82163571745052
C           69.30687704193488       61.08239443649154       50.15933854863778
C           67.29168046630002       62.53043855799620       49.88982414311899
C           65.80180818445687       62.75886807874087       50.17440225938007
C           64.98239560396001       61.52879946656552       49.78376203477092
C           65.27081944703551       63.96789365284063       49.38588095127997
C           65.74510979747683       65.34489859867126       49.86246861064150
C           65.21959018540686       65.65209795109695       51.26504493757103
C           65.27238588342264       66.46923709991162       48.92590243039805
C           65.68186134450532       66.38107002858332       47.44884513483613
C           67.19854121392601       66.24397277042348       47.31039168148354
C           65.19614397213499       67.62660376708934       46.67888139858545
C           63.91775185367462       67.44619472809744       45.84459387695797
C           63.70459643262541       68.70786491100591       45.00748385771888
C           62.70756783154552       67.14995094703926       46.73797919414006
C           61.33394461566274       67.11220356689505       46.04919019779382
C           60.26639480064838       66.84574234969972       47.10977357955480
C           61.30391030409175       66.04696590979799       44.94800362198324
C           59.95102073455241       65.80987440688943       44.25868879862423
C           60.11892703681361       64.67669541071528       43.24930404876437
C           59.44903624368776       67.08759063672002       43.57714174403496
C           58.09538409884413       66.99853370507687       42.85183510724079
C           57.80908443983602       68.36039135930473       42.21876080423873
C           56.98389877493082       66.57179059821323       43.82090046828938
C           55.54024762094971       66.66465707586738       43.30047143765131
C           54.58950480792767       66.24418960029335       44.42089513326823
C           55.34436456945579       65.79633156170154       42.05222143052599
C           53.92732193348319       65.75809977812952       41.45490402638631
C           53.95260024363116       64.84124785153114       40.23103151036315
C           53.43892505040085       67.16398117378002       41.08708973170055
C           52.01206168395573       67.24314063692435       40.52526628925227
C           51.79000552887349       68.62939665906057       39.91822841118121
C           50.94097798186041       66.94699048130666       41.59571088410789
C           50.00844745663611       65.77662726078684       41.26002125639410
C           49.24975646942935       66.02352582040083       39.95515665374354
C           48.96619494626670       65.53545084860346       42.36456969643011
C           49.48942004946015       65.28046973151426       43.78402705274208
C           50.43857266160007       64.08692220402824       43.81856607901136
C           48.30759028189268       65.04214108038089       44.74869176739588
C           48.02868977297508       66.16329678789315       45.76271921819034
C           47.66823594196384       67.47217603662064       45.06344960222221
C           49.20171799395594       66.34392100870042       46.73616753590107
C           48.85623445149619       67.10462107918013       48.02255204930867
C           50.14285538246147       67.47158089916010       48.76590247550646
C           47.81665561233536       66.39988642470408       48.91741448080278
C           47.93076125775330       64.88651294151155       49.15461092537787
C           46.65578603783337       64.40026940822304       49.84869987062701
C           49.17055163051349       64.44571320689465       49.94253017040370
C           49.23895282976671       64.94230341871456       51.38479583498088
C           50.61794914665552       64.70053923887160       51.98551826550085
H           58.53195650497072       61.07864502683391       60.72829931127194
H           59.55444155549737       62.06545022504254       59.68059680715374
H           58.33404200461394       61.00986743314621       58.97489812289948
H           51.36655483846656       65.29932812459415       51.47093214278730
H           50.63100300410797       64.96838636256678       53.04028595243653
H           50.89908505153958       63.65341851214554       51.89498580455250
H           49.18886304978190       63.35251631232533       49.95700016678330
H           50.06414338854998       64.77109141330477       49.41042222567771
H           47.80541176732491       66.91161590562768       49.88225372774780
H           46.83318382499202       66.56903582526623       48.47063034008414
H           48.39220252113081       68.05571480438245       47.73464894903148
H           50.75331350822477       66.60003917379072       48.97966098430305
H           50.73778177065355       68.14925380426655       48.15726707346496
H           49.91659318933473       67.97085772479177       49.70493300554696
H           49.60107448499204       65.36309871572702       46.99929008652266
H           50.00174328552471       66.89013936943662       46.23101517984770
H           47.39794723076159       64.87628584883535       44.16714393555380
H           48.48927923038218       64.12484921906906       45.31340232960523
H           47.97883571982941       64.38904968630806       48.18026315849150
H           45.79196165143495       64.53443884512293       49.20097216986592
H           46.73495941942536       63.34409369642791       50.09705369827599
H           46.47739823550987       64.95778838120482       50.76527403686784
H           47.15456801734855       65.84204602134416       46.33895369020291
H           48.51342252013156       67.85869407510786       44.49901778761496
H           46.83769203373507       67.31700409116122       44.37813456997440
H           47.36863123690645       68.22742941071105       45.78610619707570
H           50.04319807831617       66.15980597543223       44.11971382148577
H           51.31202037270266       64.25653012182674       43.19546244089735
H           50.77806339074822       63.91323601282335       44.83604599797959
H           49.93205916785664       63.19255094561174       43.46191055605724
H           48.30088668581285       66.40121418347981       42.39561949943889
H           48.36493448364641       64.67143739931900       42.06739677584246
H           50.61242581440689       64.87181773654657       41.13745850388248
H           49.92382858819119       66.13034597121315       39.10954040138149
H           48.58041386460209       65.19133552193244       39.74627888228915
H           48.65127589930211       66.92923620503062       40.03122222104755
H           51.43784868557783       66.73284863202159       42.54227619210364
H           50.32834147035386       67.83822984856764       41.74999310401843
H           51.92710493485009       66.51389909772547       39.71740676535246
H           51.91206343570217       69.40148918371509       40.67600323365200
H           52.50476452140320       68.82041977651096       39.12004247935982
H           50.78802776711437       68.70934732395035       39.50354991480494
H           53.48516159879894       67.80331002885988       41.97059921147046
H           54.12721792575408       67.57711372652807       40.34446508083211
H           53.24331258034962       65.32397045678192       42.19035822883479
H           52.94987490690217       64.65411884584822       39.85587885394117
H           54.53838305620295       65.28864371361803       39.43081363792667
H           54.40143841157913       63.88352257819199       40.48467995403165
H           56.02194910494911       66.14484187461242       41.27053568180160
H           55.63539026161460       64.77203698661087       42.30247332816815
H           55.33405516021619       67.70861892971197       43.05395240369353
H           53.55196525258417       66.39573797052289       44.13639490402812
H           54.73023823222683       65.19368451909277       44.66684469834344
H           54.77537043498604       66.83363087784288       45.31594389231277
H           57.16473786767557       65.53909143148248       44.12729911366026
H           57.05741025742816       67.19548584251677       44.71608910427564
H           58.17237276647349       66.26192677759342       42.04719937137706
H           56.92845270703940       68.32870031322825       41.58363686142307
H           57.65086862816941       69.11031693741157       42.99050873637607
H           58.65236606330685       68.67614792970105       41.60760678276672
H           59.36744268592616       67.87578194884783       44.32738274768401
H           60.20376337370445       67.40255471912469       42.85068392106736
H           59.22693816622514       65.49143424651973       45.01183931847891
H           60.49851755470239       63.78171475524110       43.73725893244542
H           59.17185192676055       64.42902659437469       42.77837023937570
H           60.82310979094631       64.96726981595195       42.47244881590907
H           62.03029699713721       66.31588499444247       44.17827937919599
H           61.62954387026897       65.10103214654133       45.38822380426311
H           61.13875457535067       68.09424125585689       45.61130389707289
H           60.36949765847995       65.83668953792917       47.50258741047278
H           60.36636557690350       67.54942103343048       47.93431479766446
H           59.26890495830970       66.95447703932241       46.69385505488055
H           62.86456455340965       66.18411313593184       47.22317044751262
H           62.66939270360988       67.91443070666865       47.51890100117586
H           64.07511019562642       66.60060414156926       45.16674093867265
H           62.88384569526393       68.58526352299816       44.30609750820500
H           63.48283002903361       69.55592758120051       45.65214573929261
H           64.60151538886362       68.93915282184288       44.43654248675743
H           65.04463201459305       68.45292101581629       47.37703357556477
H           65.98649325072770       67.93438959052646       45.99078469351964
H           65.21665299133794       65.50096305379357       46.99484292899469
H           67.69965264121242       67.07910846139119       47.79558142010673
H           67.55262684670376       65.32045781063302       47.76103451832432
H           67.48670521015072       66.23497822550446       46.26103136534849
H           64.18418622395350       66.52150830224485       48.98539124064418
H           65.66452924736164       67.40948214462483       49.32358849719028
H           66.83746549910543       65.36077006502674       49.90178500790395
H           65.51791107619619       66.65186870994010       51.57282218295715
H           64.13271390670957       65.59887183563470       51.28585337191977
H           65.61257408417872       64.95027493367415       51.99408625150416
H           65.56134598399845       63.82821834360846       48.34381595682732
H           64.17854626599508       63.95768699769179       49.42557554521342
H           65.65949693299601       62.93566121267324       51.24342148542680
H           65.30340301752149       60.64671458819041       50.33222922780769
H           63.92895373557806       61.69317207377128       49.99624142109157
H           65.08539570012618       61.32953727231975       48.71914352927830
H           67.82277070594651       63.48275357694400       49.94338700886805
H           67.38011986838326       62.16614213517021       48.86409033168569
H           67.36832124717039       60.66248284675184       50.96035718333464
H           69.77645162452787       60.28323781914457       50.72721135404049
H           69.10952841785861       60.71197044074309       49.15538499715215
H           70.00746252330615       61.91176915579459       50.08333603186982
H           67.33738041027580       62.53873932575505       52.60492378520966
H           68.91075894770574       63.06485172602605       52.01506156102965
H           69.90112911711843       60.91973292783636       52.81823350925365
H           68.41230457525877       62.49841676065013       54.94987396613558
H           69.93953337799630       61.62856292723682       55.15246844550784
H           69.86843813488667       63.05389476937064       54.12694637385633
H           67.92336776247839       59.49285901721517       52.74338463279672
H           67.08050769716245       60.53447900158692       53.88727795274809
H           68.69934809030508       59.85378744875285       55.66099482285035
H           66.48508871375958       58.76662299723879       55.32544246256801
H           67.24571499897320       57.55058252799150       54.30040842708341
H           67.66861303899547       57.65693398544163       56.00405664558058
H           70.52806200653302       59.17616221583787       53.95775399944895
H           69.57933349109052       57.72021996717090       53.68066130515540
H           69.76993166801648       57.34509954461033       56.24256858315272
H           72.00892942713089       56.26930367580406       55.93767379874947
H           70.92141709333760       55.95788006548231       54.58828332802432
H           72.20683854896592       57.15540056133396       54.42624553299004
H           70.67748341532112       59.77041042749335       56.52559786281233
H           72.19437567663439       59.12997397833563       55.90683500807587
H           72.09306329865967       57.42856555875132       57.84235923253004
H           73.60774232592226       59.37020679889517       57.79901154644421
H           72.32500402828144       60.41554162838491       58.41270973146806
H           72.99482150347352       59.14477462483821       59.43332579231367
H           69.62860015693124       57.84689006732716       58.29346755683813
H           70.06344619138324       59.43759057531863       58.88195634493924
H           71.73085765904857       57.57508421055002       60.28443920871500
H           70.57464355229523       58.46324558502205       62.25361272684466
H           70.90102624811873       59.76579290190603       61.11299725081287
H           69.27445499815832       59.09430714629777       61.24220611656827
H           68.81472792128992       56.74867789291725       60.18751440722243
H           69.91085512746469       56.27670099944055       61.48096059693945
H           70.53469460171451       55.66268115290374       58.57652545885060
H           72.01525422637194       53.96248061204810       59.55653518306654
H           72.42697634878918       55.55262772637554       60.18525234855856
H           71.50875049442156       54.42444402614979       61.18172402108602
H           69.05049290462931       53.96687623387382       60.62299660505174
H           69.78392424355232       53.31963747332674       59.15856121919297
H           67.49633187100211       55.32617842757008       59.23070287168883
H           68.70954812016181       53.83542158127776       56.86080521904086
H           67.37926280491251       54.99795490866440       56.80453847953018
H           68.99687742961144       55.53539648586924       57.21172507784865
H           66.95334560589977       53.04981892579842       60.05125043941218
H           67.67730482330983       52.35708754048463       58.60428010046640
H           65.88238187041873       53.54080678689552       57.24460531352343
H           64.26293259561967       51.76075003483361       57.72167656545817
H           65.90236685636086       51.13459354687503       57.79134003024520
H           65.02253720734950       51.45591070138349       59.28611957918621
H           65.26471717876667       55.18743026082696       59.00095768955347
H           64.62276595972804       53.88660390640736       59.99102621713057
H           63.50914377207587       54.01258654092339       57.23237311894869
H           61.43800676758556       53.47337152334865       58.37108035448386
H           62.68988701643500       52.47982855245704       59.11475525264419
H           62.10919442793082       53.92270908142037       59.93737232531350
H           63.02211746433162       56.18531360882228       59.29362096595069
H           61.87226615112589       55.82176572322410       58.01113062224182
H           64.74020211772896       56.60469632968326       57.39376594270815
H           63.42336792072088       55.46081404154884       55.58845649886300
H           62.18360345485419       56.70395769850648       55.73387114591642
H           63.80496019369225       57.13366664758752       55.18813310387396
H           62.26740072412661       58.26847907981929       57.92238332884161
H           63.50712595045432       58.85753885997674       56.82726238796713
H           64.36283185006546       57.94704237296084       59.56788229680229
H           66.03095858414268       58.58132310160280       57.82282649322587
H           65.31306243111574       60.19058138557550       57.74044598612804
H           66.09071737470343       59.64354307819461       59.22682671930421
H           62.80031345486599       60.44034514537882       58.88833606257968
H           64.02182149009427       60.50276613381595       60.14998051300322
H           62.03825924423271       58.25013012278340       60.26600951642892
H           62.42541908394793       58.47517771757828       62.66808399539113
H           63.97615248048359       58.42838635222007       61.82851941671553
H           63.33512641666790       59.96487928211651       62.41857698221693
H           61.42893865652774       61.14615006464952       60.90869973613052
H           60.63202008090376       59.83716305893702       61.77303806443199
H           60.59061063169696       60.02569455339752       58.73996098156527
H           58.63762572803858       58.53074837033712       58.97382354014373
H           60.05104523686329       57.79276778804651       59.71387761174044
H           58.81888704652077       58.53860264015031       60.73018214528922
H           49.02009402108637       66.00907736341530       51.42839443937429
H           48.48970265395636       64.41994943829164       51.98255149583141
C           50.86823157085138       44.86932886861778       72.49860389758118
C           50.85027545893518       45.66324422163110       71.19319111569604
C           49.72549202173133       45.13645811501063       70.30098756028958
C           52.19977825913335       45.58072017580387       70.45828330273901
C           53.16535335109329       46.76085809426527       70.65001160571614
C           53.61678204610573       46.90781970183493       72.10263527437745
C           52.61466044172955       48.10625084266253       70.15857856523488
C           52.15628768555194       48.15747186684053       68.69765780064961
C           53.28455752951138       47.76357407628873       67.74340341842324
C           51.67349058154638       49.56768879840416       68.32515350495967
C           50.50759403283723       50.13672776370599       69.14264722475156
[...]
  3284   6 C     3286   6 C                                       1.5328280
  3286   6 C     3287   6 C                                       1.5355090
  3287   6 C     3288   6 C                                       1.5274574
  3287   6 C     3289   6 C                                       1.5347996
  3290   6 C     3291   6 C                                       1.5276198
  3290   6 C     3292   6 C                                       1.5346292
  3292   6 C     3293   6 C                                       1.5346315
  3293   6 C     3294   6 C                                       1.5286506
  3293   6 C     3295   6 C                                       1.5396083
  3295   6 C     3296   6 C                                       1.5332305
  3296   6 C     3297   6 C                                       1.5281617
  3296   6 C     3298   6 C                                       1.5365098
  3298   6 C     3299   6 C                                       1.5324805
  3299   6 C     3300   6 C                                       1.5293547
  3299   6 C     3301   6 C                                       1.5374421
  3301   6 C     3302   6 C                                       1.5350866
  3302   6 C     3303   6 C                                       1.5289060
  3302   6 C     3304   6 C                                       1.5369159
  3305   6 C     3306   6 C                                       1.5295287
  3305   6 C     3307   6 C                                       1.5356264
  3307   6 C     3308   6 C                                       1.5357117
  3308   6 C     3309   6 C                                       1.5283430
  3308   6 C     3310   6 C                                       1.5323189
  3310   6 C     3311   6 C                                       1.5360833
  3311   6 C     3312   6 C                                       1.5276401
  3311   6 C     3313   6 C                                       1.5350524
  3313   6 C     3314   6 C                                       1.5395343
  3314   6 C     3315   6 C                                       1.5302359
  3314   6 C     3316   6 C                                       1.5356391
  3316   6 C     3317   6 C                                       1.5361508
  3317   6 C     3318   6 C                                       1.5273294
  3317   6 C     3319   6 C                                       1.5355967
  3319   6 C     3320   6 C                                       1.5312774
  3320   6 C     3321   6 C                                       1.5284960
  3320   6 C     3322   6 C                                       1.5360968
  3322   6 C     3323   6 C                                       1.5366510
  3323   6 C     3324   6 C                                       1.5257714
  3323   6 C     3325   6 C                                       1.5353316
  3325   6 C     3326   6 C                                       1.5363391
  3326   6 C     3327   6 C                                       1.5289483
  3326   6 C     3328   6 C                                       1.5332523
  3329   6 C     3330   6 C                                       1.5299566
  3329   6 C     3331   6 C                                       1.5352471
  3331   6 C     3332   6 C                                       1.5316022
  3332   6 C     3333   6 C                                       1.5287244
  3332   6 C     3334   6 C                                       1.5354636
  3334   6 C     3335   6 C                                       1.5346859
  3335   6 C     3336   6 C                                       1.5259539
  3335   6 C     3337   6 C                                       1.5362317
  3337   6 C     3338   6 C                                       1.5338860
  3338   6 C     3339   6 C                                       1.5286810
  3340   6 C     3341   6 C                                       1.5340115
  3341   6 C     3342   6 C                                       1.5302869
  3341   6 C     3343   6 C                                       1.5382902
  3343   6 C     3344   6 C                                       1.5397488
  3344   6 C     3345   6 C                                       1.5300179
  3344   6 C     3346   6 C                                       1.5350837
  3346   6 C     3347   6 C                                       1.5321925
  3347   6 C     3348   6 C                                       1.5292330
  3347   6 C     3349   6 C                                       1.5380615
  3349   6 C     3350   6 C                                       1.5339291
  3350   6 C     3351   6 C                                       1.5279071
  3350   6 C     3352   6 C                                       1.5358969
  3352   6 C     3353   6 C                                       1.5274600
  3353   6 C     3354   6 C                                       1.5243864
  3265   6 C     3355   1 H                                       1.0868097
  3265   6 C     3356   1 H                                       1.0877226
  3265   6 C     3357   1 H                                       1.0886006
  3354   6 C     3358   1 H                                       1.0880027
  3354   6 C     3359   1 H                                       1.0882103
  3354   6 C     3360   1 H                                       1.0877899
  3352   6 C     3361   1 H                                       1.0925959
  3352   6 C     3362   1 H                                       1.0935546
  3349   6 C     3363   1 H                                       1.0921100
  3349   6 C     3364   1 H                                       1.0931347
  3347   6 C     3365   1 H                                       1.0933350
  3348   6 C     3366   1 H                                       1.0865783
  3348   6 C     3367   1 H                                       1.0881000
  3348   6 C     3368   1 H                                       1.0881272
  3346   6 C     3369   1 H                                       1.0905693
  3346   6 C     3370   1 H                                       1.0936376
  3343   6 C     3371   1 H                                       1.0938359
  3343   6 C     3372   1 H                                       1.0924484
  3350   6 C     3373   1 H                                       1.0944856
  3351   6 C     3374   1 H                                       1.0863358
  3351   6 C     3375   1 H                                       1.0880021
  3351   6 C     3376   1 H                                       1.0876627
  3344   6 C     3377   1 H                                       1.0963155
  3345   6 C     3378   1 H                                       1.0885525
  3345   6 C     3379   1 H                                       1.0866242
  3345   6 C     3380   1 H                                       1.0876844
  3341   6 C     3381   1 H                                       1.0928960
  3342   6 C     3382   1 H                                       1.0889399
  3342   6 C     3383   1 H                                       1.0870219
  3342   6 C     3384   1 H                                       1.0875077
  3340   6 C     3385   1 H                                       1.0876536
  3340   6 C     3386   1 H                                       1.0926872
  3338   6 C     3387   1 H                                       1.0941443
  3339   6 C     3388   1 H                                       1.0887003
  3339   6 C     3389   1 H                                       1.0875962
  3339   6 C     3390   1 H                                       1.0878814
  3337   6 C     3391   1 H                                       1.0929587
  3337   6 C     3392   1 H                                       1.0931969
  3335   6 C     3393   1 H                                       1.0927371
  3336   6 C     3394   1 H                                       1.0866352
  3336   6 C     3395   1 H                                       1.0876333
  3336   6 C     3396   1 H                                       1.0886378
  3334   6 C     3397   1 H                                       1.0936214
  3334   6 C     3398   1 H                                       1.0934851
  3332   6 C     3399   1 H                                       1.0926491
  3333   6 C     3400   1 H                                       1.0882655
  3333   6 C     3401   1 H                                       1.0861050
  3333   6 C     3402   1 H                                       1.0878583
  3331   6 C     3403   1 H                                       1.0910959
  3331   6 C     3404   1 H                                       1.0932736
  3329   6 C     3405   1 H                                       1.0927176
  3330   6 C     3406   1 H                                       1.0880642
  3330   6 C     3407   1 H                                       1.0882865
  3330   6 C     3408   1 H                                       1.0885035
  3328   6 C     3409   1 H                                       1.0901360
  3328   6 C     3410   1 H                                       1.0911544
  3326   6 C     3411   1 H                                       1.0935024
  3327   6 C     3412   1 H                                       1.0872542
  3327   6 C     3413   1 H                                       1.0885031
  3327   6 C     3414   1 H                                       1.0876635
  3325   6 C     3415   1 H                                       1.0931115
  3325   6 C     3416   1 H                                       1.0925831
  3323   6 C     3417   1 H                                       1.0929177
  3324   6 C     3418   1 H                                       1.0862531
  3324   6 C     3419   1 H                                       1.0865699
  3324   6 C     3420   1 H                                       1.0883085
  3322   6 C     3421   1 H                                       1.0938636
  3322   6 C     3422   1 H                                       1.0933936
  3320   6 C     3423   1 H                                       1.0917072
  3321   6 C     3424   1 H                                       1.0878379
  3321   6 C     3425   1 H                                       1.0871010
  3321   6 C     3426   1 H                                       1.0875433
  3319   6 C     3427   1 H                                       1.0909399
  3319   6 C     3428   1 H                                       1.0935426
  3317   6 C     3429   1 H                                       1.0933262
  3318   6 C     3430   1 H                                       1.0878783
  3318   6 C     3431   1 H                                       1.0855154
  3318   6 C     3432   1 H                                       1.0872098
  3316   6 C     3433   1 H                                       1.0926312
  3316   6 C     3434   1 H                                       1.0931424
  3314   6 C     3435   1 H                                       1.0915349
  3315   6 C     3436   1 H                                       1.0864309
  3315   6 C     3437   1 H                                       1.0886392
  3315   6 C     3438   1 H                                       1.0889132
  3313   6 C     3439   1 H                                       1.0895405
  3313   6 C     3440   1 H                                       1.0921507
  3311   6 C     3441   1 H                                       1.0949337
  3312   6 C     3442   1 H                                       1.0885640
  3312   6 C     3443   1 H                                       1.0862300
  3312   6 C     3444   1 H                                       1.0873278
  3310   6 C     3445   1 H                                       1.0908053
  3310   6 C     3446   1 H                                       1.0931073
  3308   6 C     3447   1 H                                       1.0918925
  3309   6 C     3448   1 H                                       1.0879269
  3309   6 C     3449   1 H                                       1.0873433
  3309   6 C     3450   1 H                                       1.0874869
  3307   6 C     3451   1 H                                       1.0911181
  3307   6 C     3452   1 H                                       1.0940913
  3305   6 C     3453   1 H                                       1.0934288
  3306   6 C     3454   1 H                                       1.0883610
  3306   6 C     3455   1 H                                       1.0866585
  3306   6 C     3456   1 H                                       1.0875369
  3304   6 C     3457   1 H                                       1.0914222
  3304   6 C     3458   1 H                                       1.0909286
  3302   6 C     3459   1 H                                       1.0955646
  3303   6 C     3460   1 H                                       1.0860600
  3303   6 C     3461   1 H                                       1.0878307
  3303   6 C     3462   1 H                                       1.0871136
  3301   6 C     3463   1 H                                       1.0923177
  3301   6 C     3464   1 H                                       1.0936972
  3299   6 C     3465   1 H                                       1.0932109
  3300   6 C     3466   1 H                                       1.0867638
  3300   6 C     3467   1 H                                       1.0874288
  3300   6 C     3468   1 H                                       1.0884387
  3298   6 C     3469   1 H                                       1.0913196
  3298   6 C     3470   1 H                                       1.0925178
  3296   6 C     3471   1 H                                       1.0945936
  3297   6 C     3472   1 H                                       1.0868053
  3297   6 C     3473   1 H                                       1.0882563
  3297   6 C     3474   1 H                                       1.0875582
  3295   6 C     3475   1 H                                       1.0891208
  3295   6 C     3476   1 H                                       1.0923905
  3293   6 C     3477   1 H                                       1.0934699
  3294   6 C     3478   1 H                                       1.0884327
  3294   6 C     3479   1 H                                       1.0882337
  3294   6 C     3480   1 H                                       1.0869952
  3292   6 C     3481   1 H                                       1.0915125
  3292   6 C     3482   1 H                                       1.0924310
  3290   6 C     3483   1 H                                       1.0928171
  3291   6 C     3484   1 H                                       1.0880489
  3291   6 C     3485   1 H                                       1.0873656
  3291   6 C     3486   1 H                                       1.0885527
  3289   6 C     3487   1 H                                       1.0927715
  3289   6 C     3488   1 H                                       1.0902813
  3287   6 C     3489   1 H                                       1.0949817
  3288   6 C     3490   1 H                                       1.0867291
  3288   6 C     3491   1 H                                       1.0873272
  3288   6 C     3492   1 H                                       1.0865325
  3286   6 C     3493   1 H                                       1.0907794
  3286   6 C     3494   1 H                                       1.0936652
  3284   6 C     3495   1 H                                       1.0930974
  3285   6 C     3496   1 H                                       1.0878973
  3285   6 C     3497   1 H                                       1.0856539
  3285   6 C     3498   1 H                                       1.0885172
  3283   6 C     3499   1 H                                       1.0914548
  3283   6 C     3500   1 H                                       1.0937989
  3281   6 C     3501   1 H                                       1.0921962
  3282   6 C     3502   1 H                                       1.0882564
  3282   6 C     3503   1 H                                       1.0884076
  3282   6 C     3504   1 H                                       1.0865299
  3280   6 C     3505   1 H                                       1.0925380
  3280   6 C     3506   1 H                                       1.0908392
  3278   6 C     3507   1 H                                       1.0966199
  3279   6 C     3508   1 H                                       1.0879119
  3279   6 C     3509   1 H                                       1.0856476
  3279   6 C     3510   1 H                                       1.0862936
  3277   6 C     3511   1 H                                       1.0906132
  3277   6 C     3512   1 H                                       1.0917895
  3275   6 C     3513   1 H                                       1.0937191
  3276   6 C     3514   1 H                                       1.0880529
  3276   6 C     3515   1 H                                       1.0860106
  3276   6 C     3516   1 H                                       1.0884965
  3274   6 C     3517   1 H                                       1.0929616
  3274   6 C     3518   1 H                                       1.0927070
  3272   6 C     3519   1 H                                       1.0945152
  3273   6 C     3520   1 H                                       1.0862326
  3273   6 C     3521   1 H                                       1.0887066
  3273   6 C     3522   1 H                                       1.0863895
  3271   6 C     3523   1 H                                       1.0929138
  3271   6 C     3524   1 H                                       1.0930429
  3269   6 C     3525   1 H                                       1.0931104
  3270   6 C     3526   1 H                                       1.0877523
  3270   6 C     3527   1 H                                       1.0869922
  3270   6 C     3528   1 H                                       1.0879334
  3268   6 C     3529   1 H                                       1.0923307
  3268   6 C     3530   1 H                                       1.0922540
  3266   6 C     3531   1 H                                       1.0952753
  3267   6 C     3532   1 H                                       1.0878978
  3267   6 C     3533   1 H                                       1.0877938
  3267   6 C     3534   1 H                                       1.0884412
  3353   6 C     3535   1 H                                       1.0918062
  3353   6 C     3536   1 H                                       1.0910014

 * 2 distinct bonds (by element types)

   Z      Z             #   av. dist./Å        max./Å        min./Å
   1 H    6 C        2366     1.0900616     1.0972353     1.0839057
   6 C    6 C        1106     1.5325470     1.5399661     1.5229009


optimized geometry written to: xtbopt.xyz


           -------------------------------------------------
          | TOTAL ENERGY            -3716.227210176517 Eh   |
          | GRADIENT NORM               0.000988213347 Eh/α |
          | HOMO-LUMO GAP              11.499130465739 eV   |
           -------------------------------------------------

------------------------------------------------------------------------
 * finished run on 2024/10/04 at 19:51:36.713     
------------------------------------------------------------------------
 total:
 * wall-time:     0 d,  7 h,  8 min, 28.400 sec
 *  cpu-time:     1 d, 11 h, 45 min, 28.112 sec
 * ratio c/w:     5.007 speedup
 SCF:
 * wall-time:     0 d,  0 h, 16 min, 59.301 sec
 *  cpu-time:     0 d,  1 h, 46 min, 30.252 sec
 * ratio c/w:     6.269 speedup
 ANC optimizer:
 * wall-time:     0 d,  6 h, 50 min,  1.060 sec
 *  cpu-time:     1 d,  9 h, 57 min, 12.788 sec
 * ratio c/w:     4.969 speedup

