3795
 energy: -5103.688802167096 gnorm: 0.000923953129 xtb: 6.6.1 (8d0f1dd)
C          122.76368036146395      102.34804049451101      122.77081696133762
C          124.26621880808275      102.20548827812681      122.82636080392658
C          122.33535168647462      102.53148911840913      121.30785434591843
C          122.56451541378745      101.28506480792826      120.45188669860448
H          121.27230287662272      102.77425724302648      121.28484065015975
H          122.88077253070941      103.37731240057938      120.88299363112101
C          122.29416574830535      101.61341595155376      118.98283327582809
H          123.59114645328216      100.93174434925523      120.56378529268639
H          121.89416344926497      100.49203846018651      120.78395543463411
C          122.35759548697690      100.42204436367467      118.04407691215357
H          121.29569929708472      102.04480286099474      118.90274503124071
H          123.02364932411210      102.34895400585346      118.63928529705133
N          121.37564611889357       99.53082403724773      118.21622542809385
O          124.65799708258496      100.95933872572292      122.95039606323427
O          125.03421460294153      103.14434965077686      122.73549130466668
H          125.67584833420122      100.83635443888025      122.79461451429194
H          122.47183258062179      103.22898132842283      123.34344102195448
H          122.30468618076614      101.45306871470255      123.18907065052339
C          121.15331570018941       98.39437546448256      117.34938002072593
H          120.72928755856374       99.64972594602854      118.99282207183926
C          119.71830842634760       98.41102599347427      116.82222131163483
H          121.87571535923462       98.46317475910875      116.53228016361236
H          121.33834856060062       97.46589928695002      117.90241878391804
C          119.36837856396122       97.22240541723619      115.92798146077831
H          119.04832572123406       98.40954856872460      117.68336464634299
H          119.55809906030632       99.34033463473621      116.27438664857975
C          117.85086613948741       97.04711656046511      115.82060981180571
H          119.79700799784995       97.37204558153347      114.93532022503078
H          119.80286583243718       96.31038350162736      116.34203735797928
C          117.46045949483721       96.04006455510208      114.74098513846573
H          117.46872238087208       96.69432290225738      116.78113830725800
H          117.38395551458181       98.01181961586857      115.61109799086636
C          115.97651317482936       95.68294208353939      114.81024215066043
H          117.69666024642073       96.44527135839553      113.75518697103321
H          118.04362397065491       95.12809986243600      114.88646991027123
N          115.64803812395041       94.68920497459061      113.80722587027115
H          115.74999479833542       95.28959291087608      115.80909999769752
H          115.34972410331515       96.55926916729554      114.63047889816474
C          114.52033413507915       94.64725449390265      113.08442879587606
H          116.30993045469545       93.93296012262469      113.72317631144223
O          123.22485262372119      100.31174206786496      117.17893575563308
C          114.43394881916362       93.47256645045258      112.12179318050295
C          113.98298638682154       93.91876678362561      110.72972269855802
H          115.39773436931787       92.96828874409715      112.05238553299594
H          113.70775101547049       92.76494367550019      112.52851850116450
C          115.02488909436975       94.81534315642614      110.06660052295727
H          113.81742451867117       93.03649230503936      110.10878109638141
H          113.03685232312853       94.45734351466939      110.80067519369808
C          114.59844488834659       95.26040629673005      108.66418235836181
H          115.19792401372159       95.69871829178892      110.68565272077231
H          115.97098644025236       94.27541686570123      109.98698732172424
C          113.44825546302711       96.24901672809276      108.71541926646267
H          115.44678888436076       95.73311211892499      108.17036715503633
H          114.28110621032812       94.38852984054007      108.08992762382888
N          113.82517078029611       97.52447559655364      108.77801212739033
C          112.91129758969075       98.64884323436056      108.71149717252923
H          114.82086583924197       97.72991391806575      108.81648164551774
O          113.62320339874009       95.47710942130009      113.17993874668799
C          113.63081004374772       99.89054683575064      108.18891293936315
H          112.08152958731415       98.35906628794898      108.05960936005704
H          112.49874126319436       98.85379400715094      109.70531757086168
C          114.41595077919735      100.57806837100688      109.30698490124080
H          114.31218365835925       99.59235317691375      107.39093861475341
H          112.89949174746211      100.58025345562011      107.77017245831411
C          115.49905644844686      101.52969343223603      108.80117201790192
H          113.72585787479548      101.12149766471319      109.95506901247924
H          114.89573752829673       99.80713054271605      109.91266391105366
C          114.95051195370125      102.67410053307226      107.95267727825468
H          116.02637287024325      101.94842020360636      109.66229456721831
H          116.22823824770303      100.96231134634131      108.22019346467908
C          116.04258928152480      103.68980517552164      107.65077122624525
N          115.65617456513280      104.61023019129058      106.59599525253219
H          116.32223247337875      104.24856896643085      108.55118203494142
H          116.94683455612663      103.17720776444165      107.30615629779966
C          116.61008785047554      105.29002869571939      105.96070782929536
H          114.67271459959406      104.84619165253847      106.49541856333899
O          112.26674775958122       95.89334555976754      108.69169888294694
C          116.24532227174934      106.13959840241546      104.75922985316269
C          114.85040860191731      105.98803720986523      104.16481349950477
H          116.41365414512714      107.18373444668521      105.03176787338163
H          116.98795721878125      105.89788316928917      103.99085189274170
C          114.74089933844181      106.83597806263667      102.89826240651865
H          114.66650441310922      104.94793042674921      103.89492946702028
H          114.08901894919650      106.29078168183084      104.88317897127395
C          113.35809092652003      106.73873789888825      102.24713388054271
H          114.94185065698501      107.88102924991820      103.14117737014291
H          115.49314191011968      106.49990356062918      102.18106237514858
C          112.33768368954671      107.47706876632488      103.08969751624699
H          113.39611757741675      107.20334437940795      101.25948833540458
H          113.07592472801559      105.69280469125117      102.14389961410031
N          111.42053231229141      106.70401592412657      103.67538822197163
C          110.48442627446416      107.21294269618460      104.65555108209480
H          111.47889877630988      105.69921955348693      103.55768357331044
H          114.56633663720568      102.28241423763086      107.01092912894475
H          114.13908141389123      103.16275521782542      108.49135619628346
O          117.79111563029124      105.20241585938987      106.31029694469454
O          112.37364751879213      108.69899011463242      103.22231920218582
C          109.09603813012785      106.58804992690214      104.55133072879735
H          110.88913385552286      107.01434093483554      105.65165983261889
H          110.43232958929237      108.29456994764647      104.51275836658967
C          108.25334041527373      107.03714252976509      105.74234211747917
H          108.61300844433264      106.89497417453798      103.62286152250104
H          109.18670027430974      105.50206616312229      104.54527981846734
C          106.80656367267279      106.55205052148358      105.72581219782462
H          108.72611389266964      106.68767020815442      106.66024696976751
H          108.24321841727011      108.12699734267792      105.76701796546008
C          106.66606045571866      105.08076117067459      106.11455487570993
H          106.25108196217084      107.16199696058085      106.44111566749196
H          106.37242295982692      106.72532702004411      104.73968365884340
C          105.23828868849270      104.76316219830359      106.53714937022673
H          106.96206164606417      104.43553408678338      105.28758473822836
H          107.32630279736468      104.86214603635094      106.95635880376470
N          105.15416779396998      103.43550642796966      107.11676623821447
H          104.90721628198018      105.49727040968575      107.28027205871177
H          104.55202783656642      104.82187323543245      105.68998658742014
C          104.04954218421970      102.70638002970108      107.13607277680195
H          106.02795518796626      103.02555039010095      107.44056251175201
C          104.15820323098106      101.36818581985415      107.82943339353349
C          103.29302242343185      101.27609713524571      109.09041095898414
H          103.82141576270720      100.59915763489526      107.13100075375509
H          105.19891583302093      101.18549919625612      108.09451777266962
C          103.65447583591529      102.31451994825602      110.14833756029448
H          102.24177578474526      101.39695921933358      108.82901451386756
H          103.41818184946904      100.27665910213130      109.51384614293529
C          102.98392363605417      101.96276220063588      111.48068027260378
H          104.73803403078311      102.34204195672243      110.28130219895232
H          103.31875211080728      103.30220001283148      109.82312923381836
C          102.98266644898783      103.15054052613934      112.42183062187625
H          101.94369676650004      101.69150269922018      111.28312460132805
H          103.48512707724099      101.11001579774194      111.93746649527225
N          103.87807626796456      103.11090064730854      113.40975628880712
C          103.97577075934205      104.18644067313534      114.37729990880665
H          104.43240242289538      102.28044418939240      113.59108304682807
O          102.99130945497841      103.09516503231073      106.60774721097368
C          105.25331152952923      104.05294046138165      115.18963004326675
H          103.94893912968827      105.13438928369172      113.83295704604572
H          103.10342164054383      104.16713454614018      115.04248703431608
C          105.42811473543429      105.21849218127539      116.15917359205277
H          105.21402587036653      103.11456473823652      115.73970962416779
H          106.10539487115754      104.00471131268520      114.51023012033794
C          106.49213986717427      104.92657177774339      117.21586983928222
H          105.70154498974688      106.11408190601774      115.59949840677260
H          104.48025164164845      105.42085067031262      116.66107457645988
C          106.83233484345864      106.17984258250014      118.00811569982788
H          106.12793886976397      104.16378305604503      117.90389126235202
H          107.39498454321240      104.55170110402771      116.73450605013889
C          107.83802456957018      105.94130938193696      119.12531397729850
H          107.22994437306049      106.94268167932735      117.33508051296170
H          105.92273190160223      106.56763840045876      118.46859658637437
N          108.13182809844692      107.22143316773573      119.73584176705997
H          107.42151895864266      105.24347836900573      119.86187362191166
H          108.77336609953342      105.51104578653280      118.75255237515651
O          102.21960043437542      104.10394799091935      112.26700471499117
C          109.15877889400623      107.46898204153395      120.55529462031396
H          107.43563415195064      107.94203050521217      119.58364815427213
C          109.23388413020358      108.91830018395945      121.00846727301945
C          110.53864843805064      109.55692698586746      120.52427809274253
H          108.37251232807922      109.46383235473866      120.62609616829138
H          109.19625543232809      108.94062425504093      122.09982350843546
C          110.76526560112914      109.42722091522886      119.01782085501263
H          110.54988380007521      110.61012830458314      120.80574540644253
H          111.37647737065171      109.06751371891868      121.02466448622489
C          109.71207274702697      110.15673087403539      118.17711517320438
H          111.75044611997600      109.84338663781921      118.79873169659555
H          110.78593741965433      108.36723187821465      118.75643394897634
C          110.16316394903350      110.21859070422896      116.73035054904382
H          108.74878262856446      109.65194410808503      118.25414198405150
H          109.60987882711872      111.17682113152067      118.54646444030432
N          109.99975287501127      109.07600602964386      116.04738198289689
O          109.98997974004247      106.62246961905011      120.87280824292066
C          110.54718319510620      108.84605516554211      114.72121086023913
H          109.61638609048504      108.27594948250496      116.52602053693268
C          110.77682953412550      107.35544530530805      114.48344972998370
H          109.86633822609873      109.25401307043424      113.96621245353752
H          111.49004492539970      109.39581756734579      114.65950351453917
C          109.47675491991565      106.61086292115225      114.14758654043885
H          111.49687778682235      107.23134025872338      113.67552460285003
H          111.22745523906271      106.93356294187386      115.38418715589594
C          109.42208979176930      105.19936532723972      114.73070923527290
H          108.62993833518192      107.16778542199654      114.55206060411729
H          109.35467409935501      106.55759025218555      113.06570467535934
C          110.44897288388788      104.23252448971121      114.14147572656132
H          109.57702798708617      105.25637625178057      115.81111270298305
H          108.42442275484716      104.79024120760700      114.56115758316868
C          110.39043201545942      102.90294744118391      114.88626594669938
H          110.24859094040940      104.07300890173632      113.08108982070668
H          111.45420061937918      104.64301415121923      114.23302021765845
N          111.44440505832715      101.99984171945225      114.46356497822595
H          110.48064862910593      103.07977271200824      115.96642667163441
H          109.42955670579002      102.41183226650854      114.71256503133111
C          111.47964378645018      100.71715570061541      114.81755458137222
H          112.28510130909626      102.42790174677886      114.07652833273180
O          110.64459321988511      111.22707919783271      116.22909567035003
C          112.68290857305446       99.94776876085353      114.32162370951978
C          112.37968297775934       99.29835900613506      112.96433178097419
H          113.53785083036115      100.61805135918542      114.23905685750320
H          112.93158177858143       99.16771032004411      115.04328276402219
C          111.41579552501749       98.12269239970379      113.10913551513283
H          111.96135268942813      100.04881220892767      112.28988207274304
H          113.31455707739882       98.93925696902835      112.53055707671987
C          111.03397414193356       97.51558707934319      111.75631363838862
H          111.89600117035327       97.35465010549237      113.71825513770693
H          110.51273425817250       98.45193119840032      113.62596815972071
C          110.09991477611331       96.34367683114026      111.96122992543762
H          110.52680541462166       98.26039464737586      111.14148463835365
H          111.93019032018925       97.17068028130701      111.24097271538346
N          110.70524272696549       95.19958719535127      112.28440883537475
C          109.97493802348342       93.99619796321275      112.62470268411488
H          111.71041252955473       95.19922347649154      112.42424454276441
O          110.56864027733562      100.17711430935537      115.45887694289540
C          110.70159082040419       93.18837339923800      113.69521242896558
H          108.98695346024468       94.30541415652198      112.97920772154909
H          109.83772064495615       93.38340676305437      111.72538063239335
C          111.00955008345454       94.03670310834337      114.92463897265358
H          110.08514010157546       92.33180566096982      113.96984339941132
H          111.63599351358442       92.80849533545906      113.27874469761873
C          111.83156974967756       93.30013636894229      115.97919555840119
H          111.57917152358770       94.91321302461252      114.61190885010271
H          110.07775517581439       94.38616574048397      115.37020393869145
C          112.40306884297806       94.30717909532737      116.97011150085729
H          111.21561392179284       92.56614425179863      116.50094872336689
H          112.65501949757827       92.76584979273167      115.50004549083175
C          113.20155889852442       93.67139068186972      118.10491160617110
H          113.05900339016731       94.99877642880011      116.43406141649162
H          111.59463822297703       94.89458414865757      117.40839268249118
N          113.78266435384090       94.70403817906417      118.93706581930111
H          112.55738610589675       93.03922577030072      118.72150022857829
H          114.02479638358521       93.06971617517320      117.71185952413818
C          115.07200571849802       95.05883090532834      118.83362576308537
H          113.12469962641616       95.37118872348900      119.32819164274875
O          108.87890369606470       96.44709906046268      111.85770615458669
C          115.46088246170100       96.29500822248937      119.62022956773158
C          116.61310553017323       95.98837636421618      120.57831787262548
H          115.78513562797727       97.03905137681582      118.88906264515212
H          114.60391524293519       96.68790845255185      120.16572659238315
C          117.14691586310767       97.24118403442287      121.27294171472843
H          116.26121049800669       95.28284942968834      121.33367585591650
H          117.41330902517936       95.50080734903896      120.01625449894412
C          117.84111775935325       98.17579704220699      120.28321725115660
H          116.31949641691621       97.74964800032963      121.76749719269162
H          117.86553598751354       96.93991917357000      122.03759264215211
C          118.51427590359390       99.38389653122654      120.90516421972396
H          118.60654462932800       97.61857110759998      119.73827168209758
H          117.11903354568923       98.55832352314307      119.55688934230658
N          117.78589426355211      100.06360652121076      121.78670072846131
O          115.89139017036587       94.42583491474491      118.17269034314279
C          118.25347605106964      101.25072591492881      122.46715860733136
H          116.84200768885987       99.75630615067762      122.01951936202684
C          118.10643277858189      101.12216275041813      123.98108005178210
H          119.30186255215709      101.39729678444188      122.19617944119923
H          117.67180763587001      102.10550363771331      122.11061531984947
C          118.53993920440199      102.39097987113314      124.71864864792633
H          117.06873721637538      100.88146643460907      124.21467335620125
H          118.72101163590419      100.28819117849764      124.32551588147662
C          117.73997413763560      103.64767744898514      124.36836142629150
H          118.45343406501408      102.21056862662570      125.79203127235567
H          119.59402270965055      102.57674998567991      124.49933681797695
C          116.25266791375921      103.52147799719513      124.68815990452941
H          118.14633877892730      104.47943157392561      124.94602421702403
H          117.86730069982502      103.89258339966942      123.31290192004650
C          115.47794930350845      104.78232514894647      124.32272144668426
H          115.81113796111900      102.69094786511077      124.13769469332750
H          116.13315575315197      103.32824603710822      125.75564533278838
N          115.91233375696817      105.91926100044425      125.10385492684874
H          115.62824700126724      105.03324175443181      123.26955682285106
H          114.40593842155712      104.61045968573275      124.47806648485439
C          116.03988705156198      107.15186291267611      124.60385452974033
H          116.08951690147856      105.75738752150480      126.09045048615648
O          119.64763157190842       99.72750365683392      120.56044316121350
C          116.48135031124426      108.19768007876090      125.60594490312012
C          117.08917052013994      109.42238179857534      124.92511104634991
H          115.58168153640106      108.50029772407626      126.14760045084407
H          117.17479296289018      107.75188975147488      126.31896882860003
C          117.82048771886281      110.36386615848208      125.88087252119185
H          117.78261617383706      109.09343355577847      124.14835450089630
H          116.28173161247568      109.96868365932097      124.43681020585211
C          116.94466594253774      110.76620778399131      127.06430713919346
H          118.73070753564205      109.89128543589614      126.25244353081129
H          118.10610616618546      111.25172561686493      125.31628723463736
C          117.55069460750845      111.80513308434007      127.98263163372728
H          115.98889073661408      111.14698150663170      126.69145393000194
H          116.73337315394021      109.89185727482463      127.67990679015824
N          118.02201442440044      112.91701772628301      127.42824204675178
C          118.52817237410501      114.00764440166445      128.23863433492153
H          117.99580592727639      113.06085712462071      126.41929168057307
O          115.79298628512068      107.41802739453939      123.42813919756215
C          119.32478688162136      115.00817068941275      127.41423302505805
H          117.68694204702375      114.51855385547407      128.72305818807700
H          119.14547186700338      113.57906442176029      129.03380348436522
C          120.73514460915497      114.53515013738657      127.08174343339272
H          118.79147759086969      115.19796257466103      126.48182447900351
H          119.37941547756412      115.93886205627750      127.97750715518468
C          121.50305532916944      115.59663021963055      126.29623458182343
H          121.28021699154922      114.32354164595873      128.00297024811871
H          120.66660205152287      113.60781269602855      126.51204410735684
C          122.92860944915842      115.16336123923899      125.96012267422489
H          120.96846492179303      115.82683975200554      125.37314414174564
H          121.54304108788340      116.50973501792367      126.89196682092594
C          122.92351478524927      114.09638647766137      124.87288045410571
H          123.50122112843418      116.02470010886167      125.61596298379152
H          123.41699524530156      114.76342531349346      126.85067705430734
N          124.22898667651512      113.50942933509809      124.65585800618544
H          122.24422925497338      113.29369149472586      125.17056431003466
H          122.57244967150747      114.52109299990650      123.93188928301355
C          124.81935271911931      113.36827120484233      123.46946109387899
H          124.68458593417465      113.16585619852187      125.49322911458083
O          117.56196354809094      111.63640276126080      129.20963950616260
C          126.06969421138757      112.51695921468652      123.48104962675737
C          127.34771212440556      113.31950209332504      123.73917225077835
H          125.97464860244426      111.75767268227352      124.25921827014463
H          126.15969095879568      112.00638951279350      122.52224420658888
C          127.67922501718949      114.31775701635591      122.63267142955067
H          127.25215338230055      113.85145694011959      124.68827119809308
H          128.17017560469839      112.60731070965447      123.83248302041299
C          129.08719935010177      114.87980496146987      122.83620766949379
H          127.62060189628924      113.83342721805262      121.65696244504761
H          126.95436373909368      115.13229350471154      122.64496732517360
C          129.38836409760265      116.06893274204862      121.94500442908750
H          129.22919504682625      115.17393532034723      123.87577365385657
H          129.82137682785014      114.10349366572717      122.60705254308448
N          130.04268009608305      117.05595459992851      122.56491106595709
O          124.36652778389967      113.86282969459641      122.43242146382815
C          130.48843137929282      118.27125838127841      121.91677936100197
H          130.27847402839973      116.94117683679707      123.54744467406715
C          131.87522890423074      118.68043203066307      122.40291666398863
H          130.49947386325849      118.09076675953708      120.83939265876072
H          129.77501847308159      119.08010852382549      122.12028447310884
C          132.33292000063327      119.98042828511410      121.74467809377417
H          131.85139561012878      118.80813649807867      123.48752281910807
H          132.58707241334463      117.88352365120150      122.18084594867582
C          133.67729710554099      120.44910528192699      122.29742263449403
H          132.40817923499759      119.82757560557162      120.66754407132919
H          131.58589006082582      120.75692673899806      121.91997588606144
C          134.13966562044394      121.78242592469461      121.70995115270216
H          133.58875848879234      120.55938140632095      123.38037218977897
H          134.43639350332180      119.68720002968253      122.10561113496256
C          134.58961757870725      121.68016012344835      120.25354073505564
H          133.33600220092066      122.51687276853066      121.77360830992582
H          134.97840025191343      122.15849344815483      122.30113579549642
N          134.98356816635359      122.99500311925163      119.76292447943112
H          135.39844692430842      120.93149870568483      120.17902903704312
H          133.76088113422645      121.34126498663750      119.62744350927828
H          135.29525800615747      122.92780330874899      118.80092989604778
H          135.76074886007262      123.34697775423513      120.31181732142159
O          129.05522632652253      116.12083181659654      120.76222638995078
C          105.25360736893369      125.85674256887718      126.75565705055570
C          106.51260025367118      126.32116031063531      127.43870640958285
C          104.51652682359119      127.01244168587874      126.07446705360097
C          105.38837924298468      127.77685607180845      125.07616777869359
H          103.64218446808162      126.60407274755482      125.56582686512779
H          104.16888290305633      127.71037323892338      126.83829511822951
C          106.02039565971764      126.91436652573019      123.97688120427416
H          104.77520209380663      128.55060370694730      124.61397176377153
H          106.19821456895491      128.27031825821862      125.62054479277933
C          105.02940827808879      125.99100141778024      123.29384264956418
H          106.44432981920073      127.57769576782836      123.22039881523317
H          106.82502435965989      126.30706439759753      124.39351693020198
N          103.98296327086804      126.60206769579290      122.73874798238667
O          106.30485753512539      127.17377311229741      128.41956043249687
O          107.62505749199885      125.95308200751072      127.11467682703250
H          107.16265543739235      127.43157026099121      128.88272572234538
H          104.61624211700945      125.39837250065416      127.51363381011728
H          105.50917004778773      125.08964927795151      126.02738276279030
C          102.90876346662071      125.87566696036431      122.09550728091779
H          103.92187163425510      127.61218844761727      122.76418324869908
C          102.21229353077716      126.71030092884439      121.02855928040033
H          103.34481475396505      124.97532433989990      121.65242616720886
H          102.17777311326293      125.56332729767759      122.85269001751897
C          103.15435836228899      127.10511196362849      119.89389113762500
H          101.38465943613724      126.12360503968256      120.62735727652854
H          101.79528938867460      127.60808011478794      121.48803383038424
C          102.40629381665840      127.69832446948337      118.70216094715113
H          103.87896502509470      127.83308687067468      120.26005708214410
H          103.70646932271879      126.22357220473624      119.56197800748285
C          103.36980134338275      128.09159243075891      117.58804236471623
H          101.69270631489579      126.96450321535791      118.31975957585421
H          101.83844856984749      128.57459917525208      119.01981075890656
C          102.65676261936328      128.47316663403063      116.29384717097672
H          103.98886516123828      128.93341027203348      117.90200242159241
H          104.03865865343830      127.25840637258221      117.36501575282779
N          103.63027742323422      128.78993057147770      115.27270798187200
H          102.04138719831165      127.63533918626976      115.94405237058061
H          102.01354607611262      129.34467489410395      116.43169200653907