3795
 energy: -5103.097437040245 gnorm: 0.000943876235 xtb: 6.6.1 (8d0f1dd)
C          122.76108366624906      102.46648397255838      122.42533611882816
C          124.25130654831560      102.26437543285195      122.54520306599353
C          122.38491777898317      102.58431281363117      120.94039427675533
C          122.56487560833322      101.27762535034883      120.16663831750256
H          121.33705242419231      102.87943531385500      120.87659086166686
H          122.98268766526185      103.37732796174774      120.48654535927101
C          122.30519217566814      101.51793288168159      118.67802734161607
H          123.57646793977612      100.89260187054384      120.30349181493492
H          121.86420922318598      100.53689165971241      120.55240500784920
C          122.29649427802534      100.26580389192173      117.81846868842349
H          121.33115544216182      101.99738242582937      118.56413307232378
H          123.07244670852714      102.18345620661179      118.27967740260007
N          121.29412879716332       99.41428766408332      118.08884516334221
O          124.57777508800669      101.00163473968948      122.74728165230509
O          125.06615612837211      103.15324144373490      122.43686734164331
H          125.56942725812661      100.85198793862826      122.65201194947961
H          122.48926662389871      103.39077601685524      122.93731630090869
H          122.24759375195447      101.61858133008927      122.87800555148030
C          121.02409422689801       98.23828859109312      117.29398876336717
H          120.68198837482748       99.59538840274804      118.87969123316826
C          119.59051380859842       98.27617993589955      116.76149268077876
H          121.74750112149135       98.23318638848681      116.47475859088243
H          121.17359943408979       97.33507066821645      117.89823365130800
C          119.20908881407269       97.07759021367609      115.89465786079448
H          118.91417947067571       98.31175711240718      117.61624201165657
H          119.45329272607924       99.19277749946808      116.18702669375313
C          117.68670734864595       96.94957109528296      115.78891504481834
H          119.64444212992973       97.18996509350607      114.89900190920874
H          119.61470373021758       96.16138944696519      116.32902991620335
C          117.26413791947142       95.96252971197997      114.70350540798596
H          117.29416058171910       96.59768504836045      116.74429298683901
H          117.25007287284187       97.92896264506950      115.58440048764444
C          115.77508008348391       95.63174514794228      114.78992445272560
H          117.50038112099868       96.36800745543694      113.71643521141321
H          117.83053648326589       95.03663384958449      114.83360542421333
N          115.43186624080327       94.62351380283297      113.80503620271882
H          115.55498776704495       95.25657800849991      115.79568735174986
H          115.15883518585458       96.51109067173896      114.59295116107123
C          114.33166321719366       94.60531846099120      113.04397145833620
H          116.08395511637538       93.85752631877178      113.73753078763414
O          123.11016978257202      100.07781177949443      116.92635424316100
C          114.25741489371160       93.43708862706251      112.07027005153149
C          113.89357943127628       93.92126197901517      110.66597795920950
H          115.20903023175347       92.90353568896747      112.04439017069205
H          113.49116744698020       92.74447601173935      112.42705779395978
C          114.97722048979475       94.83145380840618      110.09414948178677
H          113.76081498480161       93.05748808174327      110.01104822515146
H          112.94846198248247       94.46457427472957      110.69642933899216
C          114.60373920164473       95.36496772746661      108.70805466360309
H          115.14079098458011       95.67480070461662      110.76848575647180
H          115.91684392064548       94.27865298137212      110.01797761350730
C          113.45873773380511       96.35683948453844      108.79243153161509
H          115.47023999666574       95.85813884524384      108.26869123768383
H          114.29570707492266       94.53296135541653      108.07217899091890
N          113.84451031954656       97.62915481874325      108.88829102349115
C          112.92895808176573       98.74997878575694      108.83634029471305
H          114.84340722631410       97.83398746212272      108.91121764143267
O          113.45116931174401       95.45244252662408      113.10606779882215
C          113.63924677138944       99.99222924648321      108.30224176677069
H          112.08879559155739       98.46140253178152      108.19656012754396
H          112.52935920956504       98.95880864846005      109.83500113684798
C          114.43127934559402      100.68773332740535      109.41040804322176
H          114.31720032739165       99.69257965715613      107.50201040093779
H          112.90263736321775      100.67726808757760      107.88326511521137
C          115.51915277276890      101.62472936687969      108.88794313009981
H          113.74667153426911      101.24508421982117      110.05404411154689
H          114.90579906348088       99.92006456763838      110.02264592764192
C          114.96994868112687      102.75537829766550      108.02264818164998
H          116.05081647683419      102.05731200975592      109.73931929451302
H          116.24277955147087      101.04483871856625      108.31282158498024
C          116.05791100586228      103.76149066061151      107.67976768497218
N          115.65408881262833      104.63341934419388      106.59125014190361
H          116.33771220024312      104.35826131052751      108.55538475544704
H          116.96313488202343      103.24197904804862      107.34891807045467
C          116.59965548882248      105.30092989864056      105.92515419146908
H          114.66730264215543      104.82470806926332      106.46980631907512
O          112.27786920966324       96.01124949499902      108.77325676863113
C          116.22896390379177      106.09234223041652      104.68820750867233
C          114.81159128910770      105.98730990719037      104.13866267046279
H          116.46000993386352      107.14025006159595      104.89850463144184
H          116.93149538774493      105.77442153496223      103.91096535833299
C          114.70025804084644      106.86004018274892      102.88859539448610
H          114.58702049170967      104.95854896430103      103.85808560568941
H          114.08070943987082      106.30371592753447      104.88367094946683
C          113.29733537258829      106.84311696391991      102.27668052803760
H          114.96056821102246      107.88994955308075      103.14224166990566
H          115.40973352762859      106.49815218117828      102.14450616103517
C          112.33007574312839      107.55322898479099      103.19746335841479
H          113.32231441900174      107.36307149409660      101.31721547113099
H          112.97783337721711      105.81501305374360      102.12392970841547
N          111.46055439723261      106.74562205827944      103.81623444687044
C          110.56419382586247      107.20969497183313      104.85042338499417
H          111.53551357877733      105.74208134596154      103.68274739260178
H          114.56886310472588      102.34938412988089      107.09293934099861
H          114.16905524573606      103.26209118894599      108.56222921481402
O          117.77580176435401      105.24500610064810      106.28252894107295
O          112.36114012487796      108.76860668106862      103.36329786378865
C          109.16443526512765      106.61402406744874      104.72683540782037
H          110.98338643109139      106.94043870450649      105.82448190421326
H          110.52871473556813      108.29951948627277      104.77914516209199
C          108.34767356365025      106.95009308292808      105.97038966788331
H          108.66498035869884      107.01166712893530      103.84286228383006
H          109.24552382241703      105.53247431975261      104.61489144882906
C          106.89286233160773      106.49084963879548      105.90705572600146
H          108.82366096895736      106.49101892953719      106.83866986004900
H          108.36254491319893      108.03007917572309      106.11672395759321
C          106.74291262724321      105.00307010871830      106.21511546421053
H          106.32816997555493      107.06833792501855      106.64141511196721
H          106.48110453336371      106.71506112329648      104.92182073015113
C          105.28600270161007      104.61892810626115      106.42037966081128
H          107.17436236916767      104.40318754188422      105.41288835125435
H          107.28925059339133      104.76893496452101      107.13138609681329
N          105.18250525900494      103.32841134466950      107.07711843078505
H          104.78870906492996      105.37234167168782      107.04244009041143
H          104.75103482182244      104.58107357497354      105.46888268075908
C          104.04835151335382      102.63863798465680      107.11354099366861
H          106.05021718463858      102.90183303870573      107.40157773613255
C          104.08618037960532      101.34127217600444      107.88613966872050
C          103.18526310324683      101.36325258434958      109.12501799662714
H          103.73450813253660      100.54661408020608      107.22443803934071
H          105.11121156775683      101.12988231535807      108.18994782766349
C          103.60661897256280      102.40164452640003      110.16214183102765
H          102.15574657001075      101.56326928829807      108.83060736461357
H          103.22332583298564      100.37217266509785      109.58214797492464
C          102.92184565057799      102.10346660148973      111.50045979397291
H          104.69156599997469      102.37474574890547      110.29696741039685
H          103.32682392495967      103.40178388032390      109.82297361464124
C          102.98362379688103      103.29477449765515      112.43218136419952
H          101.86979701805569      101.88640051206328      111.30464605311546
H          103.38257448572452      101.23208701357500      111.96471704922953
N          103.93058941024304      103.24906611367491      113.37641196525892
C          104.06716926645110      104.33064076336582      114.32981927010324
H          104.48424686615515      102.41499198958591      113.54550409149415
O          103.02441508137008      103.04193709160798      106.54520328031974
C          105.32800425601386      104.15733227332355      115.15860552605670
H          104.08621746016942      105.27705199423168      113.77866456690967
H          103.18790707879728      104.35823409392172      114.98727089935480
C          105.52127221993376      105.30915236954226      116.14012762226113
H          105.25427902723139      103.21608128456162      115.69959581664379
H          106.18859734747711      104.08946970354093      114.49010996560645
C          106.54755019637368      104.97981692166292      117.22219029981711
H          105.83427563581789      106.20079971428513      115.59136560950296
H          104.56775325373066      105.53919165356497      116.61984738791186
C          106.90230275362013      106.21393964143023      118.03660155882413
H          106.13809538914857      104.22680492485809      117.89449773792528
H          107.45104141402528      104.57973118760030      116.76063778460887
C          107.82243453864059      105.92360493579818      119.21498441267478
H          107.37025621174416      106.96259902951051      117.39105838849333
H          105.98536839487497      106.64069277640098      118.44413695426428
N          108.10124013805662      107.17583340501382      119.88307413349582
H          107.32894551978087      105.21886560855766      119.89369797609089
H          108.77457744116295      105.48641317926244      118.89910829776046
O          102.22731715259863      104.25466476884230      112.32077351213337
C          109.25111907422936      107.47426075291324      120.50382752853793
H          107.38571218996222      107.88573920051839      119.78858542430770
C          109.30621458968980      108.90783584104294      121.01088569353432
C          110.60091944483584      109.58525231151962      120.55805176105193
H          108.43676829965243      109.45619545208528      120.65021196261183
H          109.26440115542039      108.88866247220524      122.10229554655106
C          110.84724477573843      109.49445525106195      119.05226083988570
H          110.59055138066297      110.63127430398106      120.86530626492267
H          111.44425485538763      109.09842165976654      121.04783363043084
C          109.76096967573459      110.17861531928997      118.21444814283964
H          111.81031143737478      109.96468687097907      118.84757357354394
H          110.92381053251891      108.44108736009809      118.77734124576261
C          110.18690447677483      110.24832043878570      116.76424631056594
H          108.81806544374351      109.63555222974952      118.29886423777141
H          109.61603798146041      111.19647305987239      118.57546640845355
N          110.20029752260920      109.05873165895022      116.13585089409405
O          110.17220269573518      106.68295754915991      120.63159682135210
C          110.79186331988913      108.85652371641108      114.82627224899879
H          109.97729112141971      108.23225171156952      116.66721952370180
C          110.95830313794943      107.36997533127732      114.53219551813311
H          110.16367972541860      109.33564577763896      114.06607708297216
H          111.76833448121923      109.35267325452999      114.81362761543149
C          109.62957425006307      106.68155350534443      114.18861135214877
H          111.66427444140722      107.24948736418793      113.71081883392618
H          111.40425898073860      106.90177472968365      115.41253343492377
C          109.51389209084458      105.27763151708280      114.78053540721062
H          108.80374838902304      107.28059137362233      114.57967897309226
H          109.51264577830608      106.62456144913143      113.10554554063010
C          110.52560945877474      104.27867660758211      114.22211191524279
H          109.64104411299525      105.34097136881635      115.86495478943910
H          108.50603258590260      104.90180357285118      114.58952306042148
C          110.43288859961677      102.96276796493633      114.98715093646389
H          110.33593466678396      104.11312929173104      113.16061711076703
H          111.53737086483204      104.67040055123702      114.32019862217648
N          111.49994670380423      102.05169650120902      114.62998006497025
H          110.47763806540300      103.16444616327000      116.06694276293499
H          109.47497548694307      102.47444040892145      114.78598774580755
C          111.47851781235811      100.76617744379129      114.97492652184732
H          112.35971618399876      102.46914858545060      114.26149909911409
O          110.49944021677544      111.28974358180832      116.20482382568282
C          112.68865861611593       99.96335180760613      114.56381029442794
C          112.45233607025477       99.34699796358680      113.17700099728518
H          113.57512132226483      100.59729097241936      114.55612807313571
H          112.84604171085010       99.15940146049712      115.28425149587528
C          111.44201055902656       98.20353885437964      113.25158193133915
H          112.10013426908088      100.12257734315642      112.49188243865929
H          113.39847436593404       98.96400351504209      112.79250653964922
C          111.05120233957430       97.66942610144439      111.87055194053757
H          111.88413854217815       97.39077162766610      113.82982967018789
H          110.54437703927108       98.54462718560164      113.77077705969955
C          110.07270302722635       96.52815321273810      112.03341203942436
H          110.57423142470097       98.45856039301920      111.28662301922104
H          111.93765095879604       97.31224311237568      111.34828890331589
N          110.64286292798573       95.33796700089955      112.23131652002469
C          109.88424563696924       94.14771347051264      112.54447604189055
H          111.65420719573144       95.29623855079525      112.34574278482415
O          110.50694712760944      100.25439261821714      115.54821518707512
C          110.55913715463520       93.33450404338328      113.64746146539544
H          108.88679365198776       94.47035947344450      112.85900177008239
H          109.77557508034572       93.53141843834227      111.64290709964321
C          110.84175727322383       94.19039532428197      114.87774749934236
H          109.92133105751957       92.48753254716136      113.90659158098265
H          111.50108442346786       92.93747572207249      113.26561114748255
C          111.67896435603903       93.48155484626113      115.93893334030672
H          111.39311556653760       95.07612713250478      114.56059406968365
H          109.89866331036552       94.51990828889417      115.31576832135632
C          112.21155577291972       94.50511775829844      116.93522211315671
H          111.08402742326889       92.72429472589744      116.45385185153663
H          112.52234773694406       92.97592496004924      115.46284425733938
C          113.03947319651506       93.89155563554750      118.06277768860586
H          112.83981320335199       95.22167986619039      116.40064785781777
H          111.37981505475339       95.05701995341397      117.37562792451939
N          113.62219345167641       94.92951986096992      118.88185673837701
H          112.41673155812776       93.24679447509013      118.68967002402486
H          113.86509325805625       93.30380329726883      117.65330113970454
C          114.89299099466591       95.33187638336409      118.69673405675826
H          112.97074250142541       95.56471636142018      119.33187051940300
O          108.85543185240257       96.69556996680659      112.00798895627034
C          115.30348228648192       96.53919984187431      119.51494213753196
C          116.43083149792334       96.17034494415651      120.48183614794358
H          115.66389578497984       97.29014424616807      118.80866837562988
H          114.45183518103811       96.94120408109450      120.06185183389140
C          117.00432251806413       97.39395173655120      121.19769163065557
H          116.04059459347219       95.46994102843317      121.22306462929681
H          117.21861996875502       95.65968984855516      119.92346753739936
C          117.78763539008699       98.28161668517492      120.23258502960688
H          116.18554953462797       97.94495424861088      121.66068893627613
H          117.67495084126973       97.05867641425399      121.99150846632509
C          118.47624559288732       99.48481689815144      120.84639774129978
H          118.55962245464858       97.68416616825388      119.74219974349145
H          117.12469625351983       98.67177359844196      119.45493788469699
N          117.78611639642600      100.14388400343323      121.77662738686249
O          115.67244554794745       94.75726530618705      117.95141420828081
C          118.28506656428475      101.32027871874988      122.44962258988245
H          116.84494033879223       99.85201373602156      122.03670449215383
C          118.08363776679204      101.21393392948508      123.95882677394599
H          119.34503121304628      101.42154401886177      122.20437824892576
H          117.75231578594021      102.19723033860926      122.06868606191063
C          118.48061424649570      102.49381825969714      124.69615371738296
H          117.03857834871361      100.97181672817739      124.15628093203635
H          118.68693760908401      100.38701959117417      124.33852712451466
C          117.67370759791335      103.73671566391478      124.31462015380092
H          118.36923351579539      102.32262295691619      125.76924217740959
H          119.53778517137017      102.69310052315576      124.50294242069566
C          116.18005964364389      103.60374372751554      124.59922727402345
H          118.05745134331495      104.57705847820012      124.89354797289529
H          117.82293593985852      103.97397777262796      123.25994040762075
C          115.41530429929779      104.86951653264964      124.22401058768931
H          115.75285744576489      102.77584085172296      124.03343458331054
H          116.03645499968587      103.40120166902976      125.66229860695503
N          115.83104591734600      105.99964494554193      125.02413120326619
H          115.59204691162046      105.12623756077795      123.17672630503688
H          114.34063266731994      104.69533267545079      124.35286022928058
C          116.03894375674429      107.22238364859405      124.52543728147096
H          115.96312628477415      105.83530390182267      126.01970685343896
O          119.58356236481704       99.84546624031694      120.45374080417093
C          116.46745966650748      108.25275053386673      125.55201396641412
C          117.10722764294553      109.47531559815816      124.89537529205514
H          115.56245445873819      108.56372268320014      126.07860984673725
H          117.13699858919264      107.77840912610191      126.26939909513412
C          117.84036212353222      110.40455822687753      125.86387171263786
H          117.80287645337040      109.14404717137668      124.12208695812495
H          116.31485334262123      110.04025380291611      124.40553733403127
C          116.95310019352193      110.81403834593904      127.03769031896020
H          118.74814384749540      109.92693378815761      126.23927661766098
H          118.14029276038841      111.29179678853232      125.30713268445072
C          117.51721909234286      111.89227064152364      127.93996130255462
H          115.99458388813598      111.16609722313432      126.64450928149955
H          116.74999764670426      109.94994199530700      127.67042343185497
N          117.90310201766252      113.02890146294435      127.36897423789233
C          118.32002975558231      114.16865167523164      128.15966677576895
H          117.89699274242182      113.13916573804774      126.35666970334522
O          115.87246421597705      107.49336685914923      123.33936636100039
C          119.11740802984282      115.17653475937711      127.34490454122289
H          117.43394340591463      114.65965739053863      128.58187180924685
H          118.92069007270486      113.80191111502027      128.99626049868394
C          120.53957735007910      114.70085213153104      127.06646300299981
H          118.60282088597954      115.36010108571575      126.40010352559732
H          119.14204723207430      116.11291235353339      127.90416697954150
C          121.33432624965451      115.72222067692141      126.25572067569267
H          121.05479069617192      114.53124334795555      128.01240650290666
H          120.49375168509916      113.74669737154764      126.54417048450728
C          122.76379886470586      115.26478765850020      125.96390180468539
H          120.82148092761113      115.92218707052949      125.31191824894263
H          121.37004440146423      116.66173041400927      126.81259045933611
C          122.77432200074716      114.16350967501731      124.91066536986929
H          123.34996521424998      116.11134532274610      125.60425217727069
H          123.22948734371508      114.89115955400131      126.87700142514365
N          124.09140444900376      113.60472056241917      124.68703578304095
H          122.12417139609134      113.35474303218680      125.25185420668801
H          122.38905282871626      114.54539599361871      123.96399278811580
C          124.66768800612709      113.42731067088458      123.50174932229314
H          124.57400611675897      113.30191238624901      125.52597728255257
O          117.54894276682371      111.73345144355852      129.16535961657812
C          125.90526350051472      112.55611700020008      123.51931590031766
C          127.20340236684815      113.32887372007231      123.76458898604098
H          125.79366801487296      111.80948102820477      124.30625230270465
H          125.98421915579485      112.03645409696573      122.56414107910824
C          127.53655001220321      114.31971810466845      122.65175566020804
H          127.13410834648248      113.85876400360793      124.71629213255142
H          128.01044618033961      112.59691030070523      123.84079506704978
C          128.97671796520339      114.81793738151647      122.79225172051717
H          127.41071941778470      113.84699190709891      121.67613892779364
H          126.85021190970068      115.16567074335269      122.70128742271334
C          129.26559234603735      116.02328764779632      121.91899078836381
H          129.18605471516329      115.07376478233346      123.83040267582994
H          129.66234859477990      114.02106099710710      122.49419750681986
N          129.88490591219622      117.01777509682357      122.56368800166425
O          124.21410783122950      113.90242777513924      122.45214993147908
C          130.34113124085187      118.23793927747523      121.93821317139482
H          130.11582767822401      116.89183372056809      123.55004483454019
C          131.78295080547551      118.54894160354837      122.33202417611577
H          130.26082716508222      118.11234072902229      120.85643956459792
H          129.69084403111293      119.07190069840226      122.23486069578681
C          132.25695939139587      119.86729104224798      121.72581963072680
H          131.85296744779583      118.59918796468466      123.42100709116379
H          132.42934797909876      117.73519673910420      121.99793936248884
C          133.68334377681688      120.20386604683308      122.15502117888155
H          132.20288448745458      119.79989986443749      120.63822998652432
H          131.58901195757966      120.67163780009852      122.04208673682200
C          134.16266141866294      121.56273185328794      121.64677310438057
H          133.72631421317061      120.20583488744612      123.24652647539519
H          134.36221917621822      119.42466877831632      121.80076309437725
C          134.40115632886025      121.59918164789438      120.13829903715732
H          133.43433774014522      122.33420950439073      121.90021853368071
H          135.10005203921702      121.81690358143435      122.14774967781521
N          134.82817568079625      122.93281000118903      119.74497956409537
H          135.12746466636233      120.81170586242169      119.86942471271857
H          133.46942706865690      121.39274026484321      119.60600419396403
H          134.98692126484835      122.97523019515374      118.74440603339539
H          135.69989530319663      123.17205270520691      120.20629676052327
O          128.94455396667809      116.08235744391732      120.73468449267729
C          105.24058196924074      125.70474566266728      126.70683782907149
C          106.54417558805396      126.12680801450536      127.33210014369669
C          104.52699676226034      126.89162682880747      126.05638123126482
C          105.40192437449768      127.63234475055684      125.04299114091320
H          103.62396036944016      126.52525336904485      125.56557045769394
H          104.22694884353645      127.59751641579172      126.83319281123953
C          105.95880098479097      126.75771111236769      123.91203686299103
H          104.81512948951693      128.44343918947482      124.61248579194655
H          106.25274653678082      128.07648357569866      125.56735552507975
C          104.90628298827748      125.90769136058429      123.22687838628485
H          106.40687303465847      127.41064729210925      123.15961014360141
H          106.73694881928338      126.09770576894272      124.29670478920559
N          103.86153167665032      126.58904805085554      122.75195162874741
O          106.40438210676164      126.95987064874170      128.33713903646640
O          107.62936435641132      125.74806064386557      126.93548419334411
H          107.28744179362063      127.19619738031844      128.75625548289898
H          104.61767539461370      125.27152788290448      127.49015661835655
H          105.43222951589938      124.92949939626378      125.96846239375988
C          102.72669046666748      125.94322769615222      122.13411988484316
H          103.84421449220621      127.60006132420244      122.82708313201096
C          102.09919745433335      126.79942020196594      121.04125450774853
H          103.08056994034798      124.99691331361258      121.71454650867670
H          101.97247340926171      125.71537614545710      122.90001698212996
C          103.06610288127951      127.07715622853699      119.89268945037543
H          101.22146495436223      126.27174950983441      120.66146812934159
H          101.76157179973625      127.74317364738397      121.47262079203770
C          102.35599951171956      127.66065547309645      118.67369951348513
H          103.83549195794451      127.77161550316532      120.22964467616035
H          103.56140639289590      126.14598621414267      119.60617839757099
C          103.33796966044514      127.98378693953325      117.55336563991440
H          101.61413617054446      126.94282474453169      118.31162267115404
H          101.82088486765002      128.56684226055907      118.96147953290271
C          102.63513022257648      128.37211950540652      116.25517068204769
H          103.99197276242188      128.80489395413070      117.84826950909748
H          103.97084520567417      127.11775013041132      117.34976587298650
N          103.61401880574067      128.68524498345786      115.24076725924422
H          102.00936743235202      127.54107987476898      115.90475669230908
H          102.00256706296362      129.25099946629604      116.39290016214947