3864
 energy: -5104.245232581547 gnorm: 0.000856491318 xtb: 6.6.1 (8d0f1dd)
C           49.67463547255169       44.74242984864880       37.48231300724653
C           50.43858105707336       44.06342726050118       38.42535375776717
C           51.38668188663499       43.15450421356171       37.97176065739860
C           51.58587947461263       42.93882558742145       36.61915496618208
C           50.83057829909773       43.63507612736313       35.69182900843094
C           49.87170492586419       44.53330009078313       36.12932851031535
C           50.24078983290475       44.28747055799316       39.90327268300504
C           50.23727982110638       45.77514922798419       40.25232350976952
C           48.94429362237261       43.61210740280763       40.37688520744989
C           49.10778788488955       42.09155439415878       40.52858805337328
C           50.10805439162950       41.78454216911776       41.61584324896370
C           49.88747144206161       42.17654802245694       42.93176124471208
C           50.82979518711664       41.92473157025932       43.91182555324529
C           52.01110305988883       41.27272825463691       43.59992553615115
C           52.23978032083426       40.87084420753369       42.29531467896915
C           51.29469370568772       41.12691087609999       41.31690872059509
C           47.74646011998315       41.44343364138446       40.80917662343942
C           47.82038358790970       39.92428724230767       41.02523779225868
C           48.39560566225616       39.22342333328715       39.82162191029349
C           49.61615686358452       38.56405582801631       39.90382150553534
C           50.15520514987034       37.93162511821055       38.79734908844436
C           49.47830717979499       37.93745228032835       37.59008157448930
C           48.25399754642778       38.57661922658507       37.50072530675075
C           47.72099419976089       39.21341630593447       38.60608835982819
C           46.41910786601198       39.39794937891640       41.35560051871587
C           46.39667568368638       37.89762428442028       41.66565671290692
C           47.17778650997070       37.57006846069041       42.91234661446490
C           48.27125543480105       36.71512489768273       42.85613968482129
C           48.93469596584730       36.33187309857259       44.00983240374926
C           48.50871984882775       36.80202730603293       45.23910100669203
C           47.44813154528271       37.68913832784770       45.30490687570591
C           46.78942043396592       38.06982669076410       44.15067635618452
C           44.93895896606997       37.40726447470787       41.79536279609358
C           44.42199194172348       36.74762142291559       40.50548463354063
C           42.91724911970146       36.80939540965745       40.43617560729221
C           42.12447415766364       36.03612000141927       41.27630845159916
C           40.74650317003429       36.03923263211943       41.15636104807074
C           40.13529050563434       36.83791667112163       40.20448654383586
C           40.91141420123353       37.64159869704190       39.38826860246017
C           42.29089366786421       37.62415303394691       39.50173389436001
C           44.91606539871083       35.29541748463839       40.42077071916857
C           44.30437372238797       34.52930088689089       39.24061690906171
C           44.78685693093933       35.10408963262468       37.93240261249954
C           46.13581210154700       35.11072344472583       37.59694347138993
C           46.56627069236105       35.65244461453337       36.39971816550003
C           45.65308283839715       36.19640477024483       35.51270919482671
C           44.30681505624261       36.19072103043258       35.83212592568326
C           43.88039578523571       35.65037255849890       37.03219655676878
C           44.60732585872686       33.02338509631074       39.32238586465120
C           43.83173882547646       32.28984528466645       40.43599844345257
C           44.52872736721054       30.98162763093048       40.72131476904507
C           44.40550965433410       29.88187347198138       39.88020539831690
C           45.07396015880477       28.70175189802874       40.15231121425368
C           45.88810636183554       28.60100835574890       41.26784745275727
C           46.03407200088626       29.69432466870332       42.10321163687987
C           45.36109059344051       30.87207023102551       41.82933917528325
C           42.35379255046026       32.09544267230943       40.07960902127133
C           41.53629856657695       31.43821132075186       41.20776846566378
C           40.24477949406078       30.90156071682206       40.64518986755563
C           39.95411295222798       29.54566672834440       40.70729276188045
C           38.76517065510134       29.05009794395734       40.19979574576454
C           37.84705821422691       29.90755880758418       39.61890573192713
C           38.12544697211042       31.26284222145426       39.55281718405133
C           39.31288492563089       31.75472033735753       40.06342804749950
C           41.23598810186927       32.41004036479315       42.36725470356060
C           42.10875527422412       32.17804833005144       43.60923895063008
C           41.80491491074100       30.83916561465974       44.22924066108088
C           40.57162379798778       30.57978679071128       44.81480736154879
C           40.29716717221062       29.34503922452526       45.37202592561078
C           41.25043411342131       28.34111582759941       45.34770178311341
C           42.47953893252154       28.58452026376472       44.76020143202402
C           42.75295079792719       29.82395710484981       44.20827923086600
C           41.91269920679471       33.32397270292352       44.61222859312274
C           42.86213351664465       33.21736605156674       45.81383130483913
C           44.29252741589372       33.10812548242964       45.34642354009875
C           44.86496664082322       34.09488877964051       44.54977552364049
C           46.17442639781489       33.99223724762892       44.11673957767847
C           46.94198292926463       32.89922956763279       44.48485892805597
C           46.38826439863121       31.91465970983855       45.28530522315332
C           45.07412801614306       32.01891693316564       45.70930816827963
C           42.73100044708698       34.42514309985012       46.75766519604644
C           41.42465638684117       34.44382985943950       47.56711844100954
C           41.38321204672239       33.25793589990350       48.49455749238694
C           42.27160964894623       33.13863710812382       49.55923555634584
C           42.21813584346505       32.04714490847491       50.40587135291671
C           41.28627496149100       31.04395210945222       50.19559824330876
C           40.41245725005278       31.13961620687378       49.12657216945125
C           40.46265673577407       32.23790398642939       48.28604186959468
C           41.28996197046052       35.78920040448858       48.29854111301958
C           39.91183852467721       36.01391770815007       48.94940173322711
C           39.61985356306441       37.49167498226157       49.04967115816541
C           38.54601800804364       38.05365323861405       48.37325403531087
C           38.27355315346892       39.40782969889247       48.46311564276980
C           39.07657028346111       40.22439656635769       49.23850467361011
C           40.15013935442807       39.67745682093831       49.91906902158421
C           40.42159192744286       38.32575462489098       49.81901265554406
C           39.83403684207958       35.35056190965683       50.33126831296595
C           38.49454667593144       35.58300043919527       51.04362029256481
C           37.34110372422519       35.22976948220868       50.13591016582757
C           36.39473811126316       36.18660194677302       49.79226096467248
C           35.34199905395197       35.87764489703960       48.94782310615788
C           35.21088198973854       34.59724551713371       48.44017557659369
C           36.14379249127657       33.63247515240330       48.78180998968588
C           37.20261698006420       33.94767404791347       49.61394590213620
C           38.38060323465790       34.75257232455611       52.33587374669478
C           39.59087817467728       34.81671044367375       53.28358149007094
C           39.41494208738561       33.75625432605874       54.34278452260995
C           38.43462138300072       33.85572638067168       55.32314675116940
C           38.25018397049829       32.84564247693848       56.24906825270389
C           39.04721164233473       31.71420690799207       56.21331460096722
C           40.03059131467920       31.60315852648509       55.24577801586778
C           40.20820847891311       32.61517994707522       54.31907026179804
C           39.79412124320213       36.20912703032670       53.88667052693467
C           41.14123073032321       36.33196767340161       54.61618792224618
C           42.27561726343254       36.17828765466329       53.63487363000625
C           42.51002544126962       37.14344195725200       52.66180415494286
C           43.52505303578018       36.98458325692507       51.73465050437800
C           44.32447122456220       35.85405219113074       51.76317181466464
C           44.11144477186309       34.89471199525634       52.73777063955050
C           43.09657397055955       35.05813952204317       53.66496844916004
C           41.21845856265180       37.67490738841702       55.36667885361020
C           40.76532407785903       37.56734984301103       56.83382387842789
C           40.30953939919655       38.91714858859192       57.33235323223875
C           38.96962219582005       39.13414697952715       57.63346590559390
C           38.52487393634719       40.37429207025142       58.06075663432627
C           39.41930192274155       41.42081521511788       58.20309671292477
C           40.75830054774884       41.21573517001134       57.91581722466815
C           41.19646508633567       39.97894116366937       57.47530202018104
C           41.89075626017848       36.99094296525493       57.70371768154776
C           41.48570426937082       36.84462798592026       59.17479450000347
C           40.34720729690826       35.87187432477832       59.34367186936168
C           39.12749958439945       36.29861236082612       59.85400961089544
C           38.09054012063621       35.40554106190227       60.05993152243711
C           38.26194938982736       34.06430693906892       59.76489681569413
C           39.47158096196205       33.62703596959521       59.25191833917111
C           40.50141337606222       34.52413014384255       59.03902997152921
C           42.68427625261357       36.39187617806339       60.03159900001003
C           43.61796167979593       37.54312313863922       60.45316511568343
C           45.06739433456763       37.14805843717300       60.30002444367450
C           45.56385067966428       36.01115994368801       60.92860664676709
C           46.89588496287096       35.65878329772964       60.80831341802521
C           47.75395063850131       36.43227647585168       60.04547675102415
C           47.26896656637601       37.55803372020829       59.40555652411229
C           45.93903226815462       37.91726149350214       59.54081373072509
C           43.38720884078747       37.96836776792541       61.91362842222244
C           41.99468816038967       38.55405313626790       62.20354443810864
H           51.07693217632924       43.82317923585240       40.43837263438900
H           48.65155672349981       44.04071394436946       41.33764231122242
H           48.14859211465134       43.82367197780618       39.65918391303809
H           49.48855354435990       41.68801878784035       39.58231994709283
H           47.30692522048660       41.89868138541244       41.69920514138470
H           47.08372692609939       41.64943821846621       39.96594927084826
H           48.47380872808237       39.72747490143848       41.88293179906101
H           46.03986269838343       39.95259926347004       42.21537674426074
H           45.75215568412250       39.58847846293657       40.51147379169445
H           46.86835125662793       37.37557290930521       40.82628645672033
H           44.29478788679423       38.25217907828660       42.04931691034345
H           44.81728581396558       37.30105679078140       39.64565041215840
H           46.00363278976639       35.29286284025875       40.33413642353266
H           44.66827758943900       34.78043384139087       41.34944171219649
H           43.21858335828112       34.65597429643752       39.27452723410783
H           44.36927875076831       32.55973672471499       38.36186767105168
H           45.67692561101020       32.88373034012340       39.49654185097444
H           43.88590061150970       32.89534224664956       41.34378429979957
H           41.91275144292951       33.06359925118977       39.83799878403671
H           42.27387703727274       31.47512205343009       39.18437778424773
H           42.10975495082693       30.58988814706494       41.59603303909881
H           43.15827126161874       32.17020734644493       43.30080756708938
H           42.08973359879994       34.27128962709746       44.09971128112203
H           40.87861636574208       33.33030259397370       44.95756354409914
H           42.61287922798638       32.30723540924486       46.37142255816807
H           43.57449800347370       34.41517362784798       47.45222848804170
H           42.79282009551965       35.34477485514120       46.17525961586306
H           40.58561877188930       34.36136678933168       46.86852423911427
H           42.06985987715034       35.87934572133305       49.05554669049923
H           41.45296501788305       36.58242083955176       47.56530912358162
H           39.14924869190385       35.55865155971518       48.30707801337647
H           39.99437517096447       34.27874844667051       50.22026369949330
H           40.64017700460143       35.74755536641076       50.94869169319018
H           38.41161534331604       36.64589397952983       51.29563069246681
H           37.48457339112740       35.07419855107210       52.87287627037152
H           38.23562674204760       33.70358595875287       52.06427745326013
H           40.48488290293607       34.55524702022647       52.71012423737441
H           39.74780894265258       36.95477617534974       53.09168252719181
H           38.99034329219710       36.43020618839823       54.58930122159583
H           41.20456480834407       35.51228353230365       55.34049241942896
H           42.24265334361991       38.04868779703800       55.34590416825735
H           40.58984324713686       38.40456945195827       54.85155630975493
H           39.91185444812741       36.88107831708832       56.88527188429013
H           42.17975505943040       36.01497090998402       57.30831694444322
H           42.76681028125559       37.63985242923494       57.64962102355386
H           41.14585823215895       37.82451551498289       59.52347640755687
H           42.31093797819668       35.88594285510857       60.92500933128081
H           43.25649439178490       35.65569163061540       59.46259290649316
H           48.92036738539965       45.44727749961021       37.80031719424234
H           49.27328829201881       45.07597828576316       35.41105254982868
H           50.98699963808830       43.47468075769147       34.63424491412325
H           52.33384251852603       42.23043843108444       36.28828324084291
H           51.97644562941532       42.60292098491949       38.69105961562219
H           48.97716345963801       42.69314651804863       43.19872245522971
H           50.64513655285272       42.25079521965358       44.92515782166673
H           52.75014152447163       41.08743627955735       44.36669291198993
H           53.15780042777291       40.36356813153185       42.02686403082459
H           51.48404798172200       40.80799870453223       40.30178395261757
H           50.14893237008042       38.54691813551534       40.84484864005073
H           51.11040903587964       37.43043986292736       38.87168113615543
H           49.90289710151633       37.44478911808572       36.72627574510036
H           47.70832753429617       38.57658625344397       36.56787737792084
H           46.76422094542441       39.70493619104673       38.51172775180313
H           48.60147272021238       36.33285685210394       41.89902643383111
H           49.77750960085676       35.65683589741193       43.94375647675049
H           48.99049011825564       36.47417365193937       46.14823415457389
H           47.13513052119062       38.07251824644781       46.26493068591166
H           45.95186152197337       38.74873306233081       44.21173371654501
H           44.86499335764563       36.68902411418512       42.61403536569218
H           42.59263852351446       35.40946609439406       42.02128666247645
H           40.14832271203055       35.41864328386017       41.80764176420352
H           39.05921203289838       36.83645515879699       40.10094009542451
H           40.43989345231769       38.27468244705460       38.64934945957042
H           42.89014614643041       38.24090744729543       38.84615395480604
H           46.86295124800237       34.68667245939038       38.27409425606483
H           47.61936870625601       35.64974735280749       36.15784237290224
H           45.98875162990287       36.61823832436200       34.57591823661638
H           43.58578868600134       36.60493518451666       35.14168520039188
H           42.82689039970729       35.65537714725377       37.27589133981724
H           43.78138515386726       29.93892425600972       39.00096957407752
H           44.96060602679618       27.85582951760538       39.48921934331241
H           46.40732497527732       27.67766772992039       41.48058755036129
H           46.67024570569046       29.63245752237716       42.97478431480883
H           45.49056431681237       31.71877971703836       42.48938163982503
H           40.66614819842697       28.87112605134511       41.16335138874867
H           38.55478981667409       27.99158622345413       40.25811570856633
H           36.91899068879606       29.52247173508026       39.22175069052909
H           37.41081488727787       31.93779506558199       39.10298130534640
H           39.51633511297405       32.81403130729917       40.01488777814494
H           41.38172517631152       33.43216420138452       42.02001047536682
H           40.18784197593529       32.31191931874154       42.65920602674376
H           39.81217399007635       31.34724451056699       44.83190380872305
H           39.33330706323805       29.16126153529057       45.82584585256031
H           41.03569042863309       27.37456298107892       45.78093596704300
H           43.22917591603336       27.80601576154460       44.73033230651631
H           43.71750296765799       30.00252352598380       43.75276162505340
H           44.28253041119027       34.95967355454395       44.26886662115029
H           46.60442999090698       34.76672858573925       43.49907266580902
H           47.96574368005671       32.81922498229716       44.14872447726351
H           46.98011647150657       31.05877232559116       45.57987132408415
H           44.64602803508718       31.24250960509120       46.32873729061838
H           43.00454777002619       33.91044876475534       49.74322912906798
H           42.90781720492551       31.97814993323153       51.23556654319244
H           41.24249191944159       30.19167075285396       50.85892421186290
H           39.68888627765556       30.35619367492451       48.94838464360919
H           39.77363011345024       32.30543788722940       47.45590780752993
H           37.90894638418650       37.42063114538082       47.77132227302229
H           37.43494181794278       39.82798536952090       47.92514406088883
H           38.87305178043331       41.28317954799634       49.30099061404979
H           40.78055797862794       40.31527627849152       50.52139392065266
H           41.26901183307946       37.90817340484239       50.33847935316381
H           36.49454455476128       37.18890821561565       50.18157379058960
H           34.62101742031250       36.63810649964808       48.68219654809981
H           34.39048793670448       34.35125846768539       47.78134719372800
H           36.04152353934462       32.62744403705669       48.39689037352655
H           37.93205930567250       33.18583233686267       49.85143562917116
H           37.79568195195228       34.72576761193741       55.36247974840006
H           37.47904151949116       32.93999372903659       56.99996471105082
H           38.89878522273316       30.92026940779401       56.93143076005442
H           40.65665361402622       30.72250140828429       55.20969421339807
H           40.96979982237586       32.51643358549832       53.55727092597407
H           41.88116969639049       38.02206130886324       52.63013972136320
H           43.69591444633471       37.74026416199210       50.98089128737521
H           45.10915046277992       35.72044220403877       51.03172360158742
H           44.73963743611804       34.01545756419046       52.77606402185799
H           42.93444992962658       34.29955317990114       54.41932796242607
H           38.26454839054567       38.31939676895787       57.53196841074439
H           37.47648447174723       40.52893793686721       58.27759904082853
H           39.07200380507256       42.38730643099212       58.53706215594523
H           41.46174164955988       42.02656996142650       58.03928847923444
H           42.24088505117361       39.84224436750623       57.23630614310128
H           38.98715561158438       37.34438147858152       60.09272939829028
H           37.14860800355549       35.75559182767292       60.45875753069458
H           37.45806155690549       33.36250524865713       59.93632797189177
H           39.61433398847304       32.58196339719471       59.01936477114262
H           41.43883682120800       34.16483660687488       58.64041776311019
H           45.57009720298431       38.80628131378094       59.04835358565014
H           47.93659159193894       38.15131736009226       58.79628245789761
H           48.79385434173175       36.15666494977090       59.94686710519557
H           47.26523415980199       34.77426121222807       61.30853484532595
H           44.90268683360403       35.39230883235859       61.51810678883542
H           49.38151007342754       46.28653177849812       39.81890283991681
H           50.19732432514571       45.89559742471346       41.33229569990847
H           51.14420753609044       46.25006162368245       39.88202499874308
H           43.43253029508534       38.40523423935390       59.80675199866110
H           43.53711284830533       37.09731326003318       62.55654864132877
H           44.14738375124079       38.70469302484577       62.18627656792435
C           41.86308910674170       39.98674144000892       61.67040656880094
C           41.73051450743287       38.49660020443510       63.68844878374072
C           42.48390975957786       39.24538806256901       64.58390708878765
C           42.24669394259280       39.18059789188866       65.94387859667874
C           41.24528462518530       38.36041012626299       66.43407470944575
C           40.48903509166599       37.60511390543083       65.55482939141679
C           40.73251659700376       37.67301783666204       64.19397913849204
H           43.26215238650880       39.89393566106856       64.21182955266943
H           42.83723316093216       39.77572092278341       66.62498411962069
H           41.05534137944935       38.31192183004512       67.49646684367904
H           39.70603044932105       36.96099152919241       65.92966033838088
H           40.13577979756266       37.07854317275619       63.51506953547334
C           40.48320543169517       40.56338017696075       61.96776160156251
H           42.62679712495833       40.61236313915099       62.13474152917773
H           42.02441995327663       39.98763296099634       60.59078230629021
C           40.24027139003841       41.96281933204463       61.46758293798941
C           41.21696338488358       42.74861975915172       60.87315175118859
C           40.92147692857823       44.02193028281187       60.41513319761045
C           39.64534616718435       44.53381302714594       60.55374246904299
C           38.66450206421059       43.76690113544886       61.15976363479603
C           38.96163136809745       42.49533683886376       61.60838249306507
H           42.21999417922937       42.37315268622095       60.74910270418827
H           41.69520763342754       44.60787750390758       59.93922422824695
H           39.40839244155514       45.52385976888878       60.19365259729251
H           37.66174037144265       44.15494788781348       61.27435974370532
H           38.18894735565770       41.89598569709534       62.07213591629920
H           41.24388539274971       37.92740733140591       61.71454101833471
H           39.72227245318557       39.91040775138364       61.52682033982391
H           40.31998242013221       40.55059381822102       63.05109780899967
C           56.73075432760294       63.81784206139565       53.41804249448420
C           56.13425815033987       64.20094177004933       52.22185917995721
C           56.01042660770953       63.24534902908159       51.21876924622948
C           56.46735897905793       61.95184409089823       51.40074980411115
C           57.04991970727808       61.58226490746738       52.60020582081235
C           57.17793783884304       62.52106600433710       53.60974383497420
C           55.64933223655172       65.61336061304107       51.99281787887296
C           54.90423160951470       66.16759094817095       53.20781317197820
C           56.82857630163135       66.53011047130825       51.61500979231927
C           57.32454003750237       66.25044253527325       50.18718146126031
C           56.34356995122958       66.83043261968662       49.19390299997389
C           56.19701101439512       68.20584370377502       49.04542671632552
C           55.28360158400740       68.73284820921099       48.15037352821732
C           54.48208610118896       67.89316295971022       47.39554408747928
C           54.60645907196868       66.52339244503872       47.54110185197175
C           55.53521515301241       66.00159757847715       48.42515196382924
C           58.73980827448050       66.77995492992835       49.90424979213379
C           59.86153230716926       66.21645229791416       50.79861246156830
C           61.20044722160753       66.54418900501042       50.18059760025029
C           61.60135267740802       65.95473181420863       48.98530511176575
C           62.83781529474920       66.23696371795410       48.43436383993370
C           63.70331628004176       67.11185320064358       49.06891470308449
C           63.31169402001130       67.71104639162662       50.25325051102092
C           62.07050298169285       67.43154619246944       50.80038597893577
C           59.73630924267920       64.70487136530217       51.02530088112656
C           60.91288636105635       64.13186055657886       51.82493785600267
C           61.18878592326796       64.91019626949250       53.08589690842810
C           60.19068981091693       65.14155386344883       54.02599767801942
C           60.46153557556253       65.82898611947370       55.19481156294417
C           61.74248871504365       66.29081586389155       55.44960391944880
C           62.74724092768166       66.05537432652345       54.52736937535166
C           62.47082337117398       65.37145992956647       53.35659841849995
C           60.64935742673605       62.66986442064283       52.22191625667137
C           60.65496763590809       61.68931643507822       51.04961012538311
C           60.20873124169654       60.29971625483002       51.45201938040731
C           59.77028308449489       59.43490145050588       50.45283215542397
C           59.32077279075639       58.16215633461991       50.74906360022153
C           59.29854222752137       57.72652179058467       52.06272418565016
C           59.73984818769036       58.57015232279525       53.06538156663007
C           60.18633162123984       59.84568559261260       52.76356893815303
C           62.00263322906164       61.65528751851137       50.29959816213228
C           63.25834349137708       61.59631416800539       51.18123361395582
C           63.24369775970615       60.42632363482497       52.12932095576416
C           63.40197281964248       60.61504361887567       53.49671501221530
C           63.38684793110369       59.53943529997773       54.36870879055845
C           63.22002001905098       58.25443895375712       53.88307568471915
C           63.07365002877638       58.05455067688353       52.52166957967934
C           63.08957744180486       59.12976528204809       51.65560798512988
C           64.50227494798700       61.53433775034141       50.28158171828731
C           65.80093757636429       61.57528173197421       51.09229862034875
C           65.94909590052215       62.86046266285231       51.86506268989142
C           65.84885974231861       64.09744403901027       51.23885143894508
C           66.00176897780617       65.27036507738408       51.95472289243505
C           66.27352459298039       65.22780434083468       53.31156218837786
C           66.37796228078192       64.00318465705278       53.94769938515694
C           66.21271850801875       62.83211775247524       53.22916910718227
C           67.01477573772952       61.36272237045145       50.17694703149679
C           68.29001023670745       60.98906417803929       50.96463260496196
C           69.33122514615788       62.06755672786509       50.81022820287499
C           69.64644836279054       62.89898892822066       51.87704198575325
C           70.57519115887585       63.91530934794607       51.73701079013881