      -----------------------------------------------------------      
     |                   =====================                   |     
     |                           x T B                           |     
     |                   =====================                   |     
     |                         S. Grimme                         |     
     |          Mulliken Center for Theoretical Chemistry        |     
     |                    University of Bonn                     |     
      -----------------------------------------------------------      

   * xtb version 6.6.1 (8d0f1dd) compiled by 'stahn@M-Bot' on 2023-08-01

   xtb is free software: you can redistribute it and/or modify it under
   the terms of the GNU Lesser General Public License as published by
   the Free Software Foundation, either version 3 of the License, or
   (at your option) any later version.
   
   xtb is distributed in the hope that it will be useful,
   but WITHOUT ANY WARRANTY; without even the implied warranty of
   MERCHANTABILITY or FITNESS FOR A PARTICULAR PURPOSE.  See the
   GNU Lesser General Public License for more details.
   
   Cite this work as:
   * C. Bannwarth, E. Caldeweyher, S. Ehlert, A. Hansen, P. Pracht,
     J. Seibert, S. Spicher, S. Grimme, WIREs Comput. Mol. Sci., 2020, 11,
     e01493. DOI: 10.1002/wcms.1493
   
   for GFN2-xTB:
   * C. Bannwarth, S. Ehlert and S. Grimme., J. Chem. Theory Comput., 2019,
     15, 1652-1671. DOI: 10.1021/acs.jctc.8b01176
   for GFN1-xTB:
   * S. Grimme, C. Bannwarth, P. Shushkov, J. Chem. Theory Comput., 2017,
     13, 1989-2009. DOI: 10.1021/acs.jctc.7b00118
   for GFN0-xTB:
   * P. Pracht, E. Caldeweyher, S. Ehlert, S. Grimme, ChemRxiv, 2019, preprint.
     DOI: 10.26434/chemrxiv.8326202.v1
   for GFN-FF:
   * S. Spicher and S. Grimme, Angew. Chem. Int. Ed., 2020, 59, 15665-15673.
     DOI: 10.1002/anie.202004239
   
   for ALPB and GBSA implicit solvation:
   * S. Ehlert, M. Stahn, S. Spicher, S. Grimme, J. Chem. Theory Comput.,
     2021, 17, 4250-4261. DOI: 10.1021/acs.jctc.1c00471
   
   for DFT-D4:
   * E. Caldeweyher, C. Bannwarth and S. Grimme, J. Chem. Phys., 2017,
     147, 034112. DOI: 10.1063/1.4993215
   * E. Caldeweyher, S. Ehlert, A. Hansen, H. Neugebauer, S. Spicher,
     C. Bannwarth and S. Grimme, J. Chem. Phys., 2019, 150, 154122.
     DOI: 10.1063/1.5090222
   * E. Caldeweyher, J.-M. Mewes, S. Ehlert and S. Grimme, Phys. Chem. Chem. Phys.
     2020, 22, 8499-8512. DOI: 10.1039/D0CP00502A
   
   for sTDA-xTB:
   * S. Grimme and C. Bannwarth, J. Chem. Phys., 2016, 145, 054103.
     DOI: 10.1063/1.4959605
   
   in the mass-spec context:
   * V. Asgeirsson, C. Bauer and S. Grimme, Chem. Sci., 2017, 8, 4879.
     DOI: 10.1039/c7sc00601b
   * J. Koopman and S. Grimme, ACS Omega 2019, 4, 12, 15120-15133.
     DOI: 10.1021/acsomega.9b02011
   
   for metadynamics refer to:
   * S. Grimme, J. Chem. Theory Comput., 2019, 155, 2847-2862
     DOI: 10.1021/acs.jctc.9b00143
   
   for SPH calculations refer to:
   * S. Spicher and S. Grimme, J. Chem. Theory Comput., 2021, 17, 1701-1714
     DOI: 10.1021/acs.jctc.0c01306
   
   with help from (in alphabetical order)
   P. Atkinson, C. Bannwarth, F. Bohle, G. Brandenburg, E. Caldeweyher
   M. Checinski, S. Dohm, S. Ehlert, S. Ehrlich, I. Gerasimov, C. Hölzer
   A. Katbashev, J. Koopman, C. Lavigne, S. Lehtola, F. März, M. Müller,
   F. Musil, H. Neugebauer, J. Pisarek, C. Plett, P. Pracht, F. Pultar,
   J. Seibert, P. Shushkov, S. Spicher, M. Stahn, M. Steiner, T. Strunk,
   J. Stückrath, T. Rose, and J. Unsleber
   
 * started run on 2024/07/11 at 06:32:49.246     

           -------------------------------------------------
          |                Calculation Setup                |
           -------------------------------------------------

          program call               : /home/abt-grimme/AK-bin/xtb input.xyz --input input.inp --opt --gbsa water
          hostname                   : boar073.thch.uni-bonn.de
          coordinate file            : input.xyz
          omp threads                :                     8

   ID    Z sym.   atoms
    1    6 C      1-146, 294-300, 306, 309-314, 323-468, 616-622, 628,
                  631-636, 645-790, 938-944, 950, 953-958, 967-1112,
                  1260-1266, 1272, 1275-1280, 1289-1434, 1582-1588, 1594,
                  1597-1602, 1611-1756, 1904-1910, 1916, 1919-1924,
                  1933-2078, 2226-2232, 2238, 2241-2246, 2255-2400,
                  2548-2554, 2560, 2563-2568, 2577-2722, 2870-2876, 2882,
                  2885-2890, 2899-3044, 3192-3198, 3204, 3207-3212,
                  3221-3366, 3514-3520, 3526, 3529-3534, 3543-3688,
                  3836-3842, 3848, 3851-3856
    2    1 H      147-293, 301-305, 307, 308, 315-322, 469-615, 623-627, 629,
                  630, 637-644, 791-937, 945-949, 951, 952, 959-966,
                  1113-1259, 1267-1271, 1273, 1274, 1281-1288, 1435-1581,
                  1589-1593, 1595, 1596, 1603-1610, 1757-1903, 1911-1915,
                  1917, 1918, 1925-1932, 2079-2225, 2233-2237, 2239, 2240,
                  2247-2254, 2401-2547, 2555-2559, 2561, 2562, 2569-2576,
                  2723-2869, 2877-2881, 2883, 2884, 2891-2898, 3045-3191,
                  3199-3203, 3205, 3206, 3213-3220, 3367-3513, 3521-3525,
                  3527, 3528, 3535-3542, 3689-3835, 3843-3847, 3849, 3850,
                  3857-3864

molecular fragmentation (1/2 indicates fragments):
111111111111111111111111111111111111111111111111111111111111111111111111
111111111111111111111111111111111111111111111111111111111111111111111111
111111111111111111111111111111111111111111111111111111111111111111111111
111111111111111111111111111111111111111111111111111111111111111111111111
111111111111111111111111111111111122222222222222222222222222222222222222
222222222222222222222222222222222222222222222222222222222222222222222222
222222222222222222222222222222222222222222222222222222222222222222222222
222222222222222222222222222222222222222222222222222222222222222222222222
222222222222222222222222222222222222222222222222222222222222222222222222
222222222222222222222222222222222222222222222222222222222222222222222222
222222222222222222222222222222222222222222222222222222222222222222222222
222222222222222222222222222222222222222222222222222222222222222222222222
222222222222222222222222222222222222222222222222222222222222222222222222
222222222222222222222222222222222222222222222222222222222222222222222222
222222222222222222222222222222222222222222222222222222222222222222222222
222222222222222222222222222222222222222222222222222222222222222222222222
222222222222222222222222222222222222222222222222222222222222222222222222
222222222222222222222222222222222222222222222222222222222222222222222222
222222222222222222222222222222222222222222222222222222222222222222222222
222222222222222222222222222222222222222222222222222222222222222222222222
222222222222222222222222222222222222222222222222222222222222222222222222
222222222222222222222222222222222222222222222222222222222222222222222222
222222222222222222222222222222222222222222222222222222222222222222222222
222222222222222222222222222222222222222222222222222222222222222222222222
222222222222222222222222222222222222222222222222222222222222222222222222
222222222222222222222222222222222222222222222222222222222222222222222222
222222222222222222222222222222222222222222222222222222222222222222222222
222222222222222222222222222222222222222222222222222222222222222222222222
222222222222222222222222222222222222222222222222222222222222222222222222
222222222222222222222222222222222222222222222222222222222222222222222222
222222222222222222222222222222222222222222222222222222222222222222222222
222222222222222222222222222222222222222222222222222222222222222222222222
222222222222222222222222222222222222222222222222222222222222222222222222
222222222222222222222222222222222222222222222222222222222222222222222222
222222222222222222222222222222222222222222222222222222222222222222222222
222222222222222222222222222222222222222222222222222222222222222222222222
222222222222222222222222222222222222222222222222222222222222222222222222
222222222222222222222222222222222222222222222222222222222222222222222222
222222222222222222222222222222222222222222222222222222222222222222222222
222222222222222222222222222222222222222222222222222222222222222222222222
222222222222222222222222222222222222222222222222222222222222222222222222
222222222222222222222222222222222222222222222222222222222222222222222222
222222222222222222222222222222222222222222222222222222222222222222222222
222222222222222222222222222222222222222222222222222222222222222222222222
222222222222222222222222222222222222222222222222222222222222222222222222
222222222222222222222222222222222222222222222222222222222222222222222222
222222222222222222222222222222222222222222222222222222222222222222222222
222222222222222222222222222222222222222222222222222222222222222222222222
222222222222222222222222222222222222222222222222222222222222222222222222
222222222222222222222222222222222222222222222222222222222222222222222222
222222222222222222222222222222222222222222222222222222222222222222222222
222222222222222222222222222222222222222222222222222222222222222222222222
222222222222222222222222222222222222222222222222222222222222222222222222
222222222222222222222222222222222222222222222222
# atoms in fragment 1/2:   322  3542
 fragment masses (1/2) :     2085.00    22935.05
CMA distance (Bohr)    :  34.397
constraining FC (au)   :  0.0500

           -------------------------------------------------
          |                 G F N 2 - x T B                 |
           -------------------------------------------------

        Reference                      10.1021/acs.jctc.8b01176
      * Hamiltonian:
        H0-scaling (s, p, d)           1.850000    2.230000    2.230000
        zeta-weighting                 0.500000
      * Dispersion:
        s8                             2.700000
        a1                             0.520000
        a2                             5.000000
        s9                             5.000000
      * Repulsion:
        kExp                           1.500000    1.000000
        rExp                           1.000000
      * Coulomb:
        alpha                          2.000000
        third order                    shell-resolved
        anisotropic                    true
        a3                             3.000000
        a5                             4.000000
        cn-shift                       1.200000
        cn-exp                         4.000000
        max-rad                        5.000000

      * Solvation model:               GBSA
        Solvent                        water
        Parameter file                 internal GFN2-xTB/GBSA
        Dielectric constant                8.0200E+01
        Reference state                gsolv [1 M gas/solution]
        Free energy shift                  1.8574E-03 Eh       1.1656E+00 kcal/mol
        Temperature                        2.9815E+02 K
        Density                            1.0000E+00 kg/L
        Solvent mass                       1.8000E+01 g/mol
        Interaction kernel             Still
        Born radius scaling (c1)           1.5524E+00
        Born radii integrator          GBOBC
        Born offset                        2.4628E-02 a0       4.6540E-02 AA
        H-bond correction              true
        Ion screening                  false
        Surface tension                    1.0000E-05 Eh       1.5569E+01 dyn/cm
        Grid points                               230 per atom
q/qsh data taken from xtbrestart
CAMM data taken from xtbrestart

          ...................................................
          :                      SETUP                      :
          :.................................................:
          :  # basis functions                9624          :
          :  # atomic orbitals                9624          :
          :  # shells                         5784          :
          :  # electrons                      9624          :
          :  max. iterations                   250          :
          :  Hamiltonian                  GFN2-xTB          :
          :  restarted?                       true          :
          :  GBSA solvation                   true          :
          :  PC potential                    false          :
          :  electronic temp.          300.0000000     K    :
          :  accuracy                    1.0000000          :
          :  -> integral cutoff          0.2500000E+02      :
          :  -> integral neglect         0.1000000E-07      :
          :  -> SCF convergence          0.1000000E-05 Eh   :
          :  -> wf. convergence          0.1000000E-03 e    :
          :  Broyden damping             0.4000000          :
          ...................................................

 iter      E             dE          RMSdq      gap      omega  full diag
   1  -5190.4737328 -0.519047E+04  0.878E-05    3.73       0.0  T
   2  -5190.4737328 -0.108930E-07  0.739E-05    3.73      21.8  T
   3  -5190.4737328 -0.771161E-08  0.631E-05    3.73      25.5  T

   *** convergence criteria satisfied after 3 iterations ***

         #    Occupation            Energy/Eh            Energy/eV
      -------------------------------------------------------------
         1        2.0000           -0.6347456             -17.2723
       ...           ...                  ...                  ...
      4806        2.0000           -0.3629179              -9.8755
      4807        2.0000           -0.3626803              -9.8690
      4808        2.0000           -0.3623552              -9.8602
      4809        2.0000           -0.3618756              -9.8471
      4810        2.0000           -0.3600335              -9.7970
      4811        2.0000           -0.3594564              -9.7813
      4812        2.0000           -0.3572943              -9.7225 (HOMO)
      4813                         -0.2202830              -5.9942 (LUMO)
      4814                         -0.2198612              -5.9827
      4815                         -0.2198201              -5.9816
      4816                         -0.2191968              -5.9646
      4817                         -0.2191564              -5.9635
       ...                                ...                  ...
      9624                          0.6709083              18.2563
      -------------------------------------------------------------
                  HL-Gap            0.1370114 Eh            3.7283 eV
             Fermi-level           -0.2887886 Eh           -7.8583 eV

 SCC (total)                   0 d,  0 h, 16 min, 19.480 sec
 SCC setup                      ...        0 min,  2.468 sec (  0.252%)
 Dispersion                     ...        0 min,  6.919 sec (  0.706%)
 classical contributions        ...        0 min,  0.147 sec (  0.015%)
 integral evaluation            ...        0 min, 11.967 sec (  1.222%)
 iterations                     ...       10 min, 35.923 sec ( 64.925%)
 molecular gradient             ...        4 min, 54.334 sec ( 30.050%)
 printout                       ...        0 min, 27.721 sec (  2.830%)

         :::::::::::::::::::::::::::::::::::::::::::::::::::::
         ::                     SUMMARY                     ::
         :::::::::::::::::::::::::::::::::::::::::::::::::::::
         :: total energy           -5103.342003848367 Eh    ::
         :: total w/o Gsasa/hb     -5103.150514492616 Eh    ::
         :: gradient norm              0.743562253949 Eh/a0 ::
         :: HOMO-LUMO gap              3.728268785124 eV    ::
         ::.................................................::
         :: SCC energy             -5190.473732809838 Eh    ::
         :: -> isotropic ES            0.287933679022 Eh    ::
         :: -> anisotropic ES          0.836498884650 Eh    ::
         :: -> anisotropic XC          3.454398237477 Eh    ::
         :: -> dispersion             -6.917880237827 Eh    ::
         :: -> Gsolv                  -0.206907570198 Eh    ::
         ::    -> Gelec               -0.015418214447 Eh    ::
         ::    -> Gsasa               -0.186414789065 Eh    ::
         ::    -> Ghb                 -0.006932009813 Eh    ::
         ::    -> Gshift               0.001857443127 Eh    ::
         :: repulsion energy          86.000043927467 Eh    ::
         :: add. restraining           0.000000000000 Eh    ::
         :: total charge              -0.000000000036 e     ::
         :::::::::::::::::::::::::::::::::::::::::::::::::::::

      ----------------------------------------------------------- 
     |              Fast Inertial Relaxation Engine              |
      ----------------------------------------------------------- 

          ...................................................
          :                      SETUP                      :
          :.................................................:
          :   energy convergence        0.5000000E-05 Eh    :
          :   grad. convergence         0.1000000E-02 Eh/a0 :
          :   optimization log               true           :
          :   writing optlog all                1     steps :
          :   Hessian reset                    20     steps :
          :   time step scaling                 5     steps :
          :   maximium step len.        1.0000000     a0    :
          :   initial time step         0.2500000     fs    :
          :   maximum time step         1.2500000     fs    :
          :   power reset thr           0.0000000     au    :
          :   alpha parameter           0.1000000           :
          :   BFGS update                   false           :
          :   preconditioning               false           :
          ...................................................

........................................................................
.............................. CYCLE    1 ..............................
........................................................................

 iter      E             dE          RMSdq      gap      omega  full diag
   1  -5190.6864357 -0.519069E+04  0.915E-03    3.74       0.0  T
   2  -5190.6864725 -0.367623E-04  0.559E-03    3.74       1.0  T
   3  -5190.6864623  0.101486E-04  0.299E-03    3.74       1.0  T
   4  -5190.6864812 -0.188463E-04  0.820E-04    3.74       2.0  T
   5  -5190.6864831 -0.193768E-05  0.301E-04    3.74       5.3  T
   6  -5190.6864832 -0.139468E-06  0.206E-04    3.74       7.8  T
   7  -5190.6864833 -0.660966E-07  0.147E-04    3.74      10.9  T
     SCC iter.                  ...       24 min, 33.600 sec
     gradient                   ...        4 min, 54.914 sec
 * total energy  : -5103.4038728 Eh     change    :  -0.6186894E-01 Eh
   gradient norm :     0.6824858 Eh/a0  converged?    E=F G=F D=F
   time step     :     0.2500000 fs     power     :   0.3144225E-05
   step length   :     0.0871439 a0     speed     :   0.8431642E-02

........................................................................
.............................. CYCLE    2 ..............................
........................................................................

 iter      E             dE          RMSdq      gap      omega  full diag
   1  -5190.9995914 -0.519100E+04  0.133E-02    3.75       0.0  T
   2  -5190.9996697 -0.783122E-04  0.814E-03    3.75       1.0  T
   3  -5190.9996487  0.210006E-04  0.433E-03    3.75       1.0  T
   4  -5190.9996879 -0.391472E-04  0.120E-03    3.75       1.3  T
   5  -5190.9996920 -0.415102E-05  0.455E-04    3.75       3.5  T
   6  -5190.9996924 -0.310729E-06  0.320E-04    3.75       5.0  T
   7  -5190.9996925 -0.167747E-06  0.231E-04    3.75       7.0  T
     SCC iter.                  ...       24 min, 39.724 sec
     gradient                   ...        4 min, 55.242 sec
 * total energy  : -5103.4849473 Eh     change    :  -0.8107449E-01 Eh
   gradient norm :     0.5988496 Eh/a0  converged?    E=F G=F D=F
   time step     :     0.2500000 fs     power     :   0.4010205E-05
   step length   :     0.1270172 a0     speed     :   0.1228960E-01

........................................................................
.............................. CYCLE    3 ..............................
........................................................................

 iter      E             dE          RMSdq      gap      omega  full diag
   1  -5191.4057101 -0.519141E+04  0.169E-02    3.76       0.0  T
   2  -5191.4058358 -0.125672E-03  0.103E-02    3.76       1.0  T
   3  -5191.4058023  0.335345E-04  0.543E-03    3.76       1.0  T
   4  -5191.4058638 -0.615358E-04  0.152E-03    3.76       1.1  T
   5  -5191.4058705 -0.672364E-05  0.581E-04    3.76       2.8  T
   6  -5191.4058710 -0.495429E-06  0.415E-04    3.76       3.9  T
   7  -5191.4058713 -0.289470E-06  0.299E-04    3.76       5.4  T
     SCC iter.                  ...       24 min, 37.537 sec
     gradient                   ...        4 min, 52.488 sec
 * total energy  : -5103.5729149 Eh     change    :  -0.8796759E-01 Eh
   gradient norm :     0.5000258 Eh/a0  converged?    E=F G=F D=F
   time step     :     0.2500000 fs     power     :   0.4205841E-05
   step length   :     0.1618825 a0     speed     :   0.1566300E-01

........................................................................
.............................. CYCLE    4 ..............................
........................................................................

 iter      E             dE          RMSdq      gap      omega  full diag
   1  -5191.8966278 -0.519190E+04  0.197E-02    3.77       0.0  T
   2  -5191.8967965 -0.168724E-03  0.120E-02    3.77       1.0  T
   3  -5191.8967509  0.456935E-04  0.622E-03    3.77       1.0  T
   4  -5191.8968321 -0.812835E-04  0.177E-03    3.77       1.0  T
   5  -5191.8968413 -0.916301E-05  0.678E-04    3.77       2.4  T
   6  -5191.8968420 -0.649226E-06  0.490E-04    3.77       3.3  T
   7  -5191.8968424 -0.413761E-06  0.353E-04    3.77       4.6  T
     SCC iter.                  ...       24 min, 36.799 sec
     gradient                   ...        4 min, 53.299 sec
 * total energy  : -5103.6555621 Eh     change    :  -0.8264723E-01 Eh
   gradient norm :     0.4004292 Eh/a0  converged?    E=F G=F D=F
   time step     :     0.2500000 fs     power     :   0.3774499E-05
   step length   :     0.1904512 a0     speed     :   0.1842717E-01

........................................................................
.............................. CYCLE    5 ..............................
........................................................................

 iter      E             dE          RMSdq      gap      omega  full diag
   1  -5192.4637761 -0.519246E+04  0.216E-02    3.79       0.0  T
   2  -5192.4639717 -0.195578E-03  0.131E-02    3.79       1.0  T
   3  -5192.4639164  0.553228E-04  0.662E-03    3.79       1.0  T
   4  -5192.4640100 -0.935877E-04  0.191E-03    3.79       1.0  T
   5  -5192.4640208 -0.108900E-04  0.737E-04    3.78       2.2  T
   6  -5192.4640216 -0.727296E-06  0.539E-04    3.78       3.0  T
   7  -5192.4640221 -0.516377E-06  0.386E-04    3.78       4.2  T
     SCC iter.                  ...       24 min, 41.331 sec
     gradient                   ...        4 min, 53.203 sec
 * total energy  : -5103.7235727 Eh     change    :  -0.6801060E-01 Eh
   gradient norm :     0.3230122 Eh/a0  converged?    E=F G=F D=F
   time step     :     0.2500000 fs     power     :   0.2910347E-05
   step length   :     0.2116032 a0     speed     :   0.2047374E-01

........................................................................
.............................. CYCLE    6 ..............................
........................................................................

 iter      E             dE          RMSdq      gap      omega  full diag
   1  -5193.1640397 -0.519316E+04  0.246E-02    3.80       0.0  T
   2  -5193.1642761 -0.236427E-03  0.149E-02    3.80       1.0  T
   3  -5193.1642034  0.726935E-04  0.717E-03    3.80       1.0  T
   4  -5193.1643172 -0.113820E-03  0.211E-03    3.80       1.0  T
   5  -5193.1643309 -0.137190E-04  0.821E-04    3.80       2.0  T
   6  -5193.1643318 -0.827828E-06  0.603E-04    3.80       2.7  T
   7  -5193.1643324 -0.667103E-06  0.426E-04    3.80       3.8  T
     SCC iter.                  ...       24 min, 38.225 sec
     gradient                   ...        4 min, 54.744 sec
 * total energy  : -5103.7771988 Eh     change    :  -0.5362609E-01 Eh
   gradient norm :     0.2936967 Eh/a0  converged?    E=F G=F D=F
   time step     :     0.2750000 fs     power     :   0.1824544E-05
   step length   :     0.2480697 a0     speed     :   0.2182007E-01

........................................................................
.............................. CYCLE    7 ..............................
........................................................................

 iter      E             dE          RMSdq      gap      omega  full diag
   1  -5193.9882645 -0.519399E+04  0.262E-02    3.82       0.0  T
   2  -5193.9884934 -0.228918E-03  0.157E-02    3.82       1.0  T
   3  -5193.9884151  0.782590E-04  0.689E-03    3.82       1.0  T
   4  -5193.9885264 -0.111245E-03  0.211E-03    3.82       1.0  T
   5  -5193.9885406 -0.141966E-04  0.843E-04    3.82       1.9  T
   6  -5193.9885414 -0.796426E-06  0.614E-04    3.81       2.6  T
   7  -5193.9885421 -0.743396E-06  0.425E-04    3.81       3.8  T
     SCC iter.                  ...       24 min, 34.925 sec
     gradient                   ...        4 min, 53.353 sec
 * total energy  : -5103.8147008 Eh     change    :  -0.3750206E-01 Eh
   gradient norm :     0.3231395 Eh/a0  converged?    E=F G=F D=F
   time step     :     0.3025000 fs     power     :   0.9605981E-06
   step length   :     0.2765842 a0     speed     :   0.2211653E-01

........................................................................
.............................. CYCLE    8 ..............................
........................................................................

 iter      E             dE          RMSdq      gap      omega  full diag
   1  -5194.8999178 -0.519490E+04  0.260E-02    3.83       0.0  T
   2  -5194.9000878 -0.170000E-03  0.154E-02    3.83       1.0  T
   3  -5194.9000303  0.574739E-04  0.555E-03    3.83       1.0  T
   4  -5194.9001058 -0.754490E-04  0.185E-03    3.83       1.0  T
   5  -5194.9001170 -0.112353E-04  0.787E-04    3.83       2.0  T
   6  -5194.9001177 -0.679814E-06  0.540E-04    3.83       3.0  T
   7  -5194.9001183 -0.654339E-06  0.365E-04    3.83       4.4  T
     SCC iter.                  ...       24 min, 37.348 sec
     gradient                   ...        4 min, 56.088 sec
 * total energy  : -5103.8443972 Eh     change    :  -0.2969632E-01 Eh
   gradient norm :     0.3672664 Eh/a0  converged?    E=F G=F D=F
   time step     :     0.3327500 fs     power     :   0.6741161E-06
   step length   :     0.2963857 a0     speed     :   0.2154539E-01

........................................................................
.............................. CYCLE    9 ..............................
........................................................................

 iter      E             dE          RMSdq      gap      omega  full diag
   1  -5195.8545958 -0.519585E+04  0.254E-02    3.84       0.0  T
   2  -5195.8546967 -0.100940E-03  0.149E-02    3.84       1.0  T
   3  -5195.8546791  0.175927E-04  0.361E-03    3.84       1.0  T
   4  -5195.8547063 -0.271948E-04  0.129E-03    3.84       1.3  T
   5  -5195.8547109 -0.456369E-05  0.669E-04    3.84       2.4  T
   6  -5195.8547114 -0.505116E-06  0.402E-04    3.84       4.0  T
   7  -5195.8547118 -0.423011E-06  0.274E-04    3.84       5.9  T
     SCC iter.                  ...       24 min, 40.863 sec
     gradient                   ...        5 min,  1.982 sec
 * total energy  : -5103.8796950 Eh     change    :  -0.3529780E-01 Eh
   gradient norm :     0.3800709 Eh/a0  converged?    E=F G=F D=F
   time step     :     0.3660250 fs     power     :   0.9073034E-06
   step length   :     0.3159493 a0     speed     :   0.2087958E-01

........................................................................
.............................. CYCLE   10 ..............................
........................................................................

 iter      E             dE          RMSdq      gap      omega  full diag
   1  -5196.8063757 -0.519681E+04  0.260E-02    3.85       0.0  T
   2  -5196.8064521 -0.763403E-04  0.152E-02    3.85       1.0  T
   3  -5196.8064175  0.345451E-04  0.420E-03    3.85       1.0  T
   4  -5196.8064660 -0.484415E-04  0.107E-03    3.85       1.5  T
   5  -5196.8064684 -0.248292E-05  0.532E-04    3.85       3.0  T
   6  -5196.8064687 -0.264517E-06  0.331E-04    3.84       4.9  T
   7  -5196.8064689 -0.200443E-06  0.200E-04    3.84       8.0  T
     SCC iter.                  ...       24 min, 38.100 sec
     gradient                   ...        4 min, 57.619 sec
 * total energy  : -5103.9278028 Eh     change    :  -0.4810785E-01 Eh
   gradient norm :     0.3368389 Eh/a0  converged?    E=F G=F D=F
   time step     :     0.4026275 fs     power     :   0.1203740E-05
   step length   :     0.3448784 a0     speed     :   0.2071943E-01

........................................................................
.............................. CYCLE   11 ..............................
........................................................................

 iter      E             dE          RMSdq      gap      omega  full diag
   1  -5197.7050108 -0.519771E+04  0.288E-02    3.85       0.0  T
   2  -5197.7051450 -0.134284E-03  0.170E-02    3.85       1.0  T
   3  -5197.7050329  0.112185E-03  0.704E-03    3.85       1.0  T
   4  -5197.7051841 -0.151233E-03  0.138E-03    3.85       1.2  T
   5  -5197.7051885 -0.441038E-05  0.588E-04    3.85       2.7  T
   6  -5197.7051893 -0.791009E-06  0.282E-04    3.85       5.7  T
   7  -5197.7051893 -0.405171E-07  0.135E-04    3.84      11.9  T
     SCC iter.                  ...       24 min, 36.665 sec
     gradient                   ...        5 min,  0.545 sec
 * total energy  : -5103.9784129 Eh     change    :  -0.5061013E-01 Eh
   gradient norm :     0.2397291 Eh/a0  converged?    E=F G=F D=F
   time step     :     0.4428903 fs     power     :   0.9490240E-06
   step length   :     0.3855079 a0     speed     :   0.2105486E-01

........................................................................
.............................. CYCLE   12 ..............................
........................................................................

 iter      E             dE          RMSdq      gap      omega  full diag
   1  -5198.4938859 -0.519849E+04  0.325E-02    3.84       0.0  T
   2  -5198.4941376 -0.251700E-03  0.196E-02    3.84       1.0  T
   3  -5198.4939689  0.168691E-03  0.941E-03    3.84       1.0  T
   4  -5198.4942155 -0.246670E-03  0.186E-03    3.84       1.0  T
   5  -5198.4942245 -0.892039E-05  0.708E-04    3.84       2.3  T
   6  -5198.4942255 -0.107197E-05  0.380E-04    3.84       4.2  T
   7  -5198.4942257 -0.125485E-06  0.235E-04    3.84       6.8  T
   8  -5198.4942258 -0.979380E-07  0.132E-04    3.84      12.2  T
     SCC iter.                  ...       28 min, 12.794 sec
     gradient                   ...        4 min, 54.591 sec
 * total energy  : -5104.0032401 Eh     change    :  -0.2482716E-01 Eh
   gradient norm :     0.1711149 Eh/a0  converged?    E=F G=F D=F
   time step     :     0.4871793 fs     power     :  -0.1226163E-06
   step length   :     0.4252276 a0     speed     :   0.2111289E-01

........................................................................
.............................. CYCLE   13 ..............................
........................................................................
 * reset velocities

 iter      E             dE          RMSdq      gap      omega  full diag
   1  -5198.4804958 -0.519848E+04  0.926E-04    3.84       0.0  T
   2  -5198.4804962 -0.418794E-06  0.559E-04    3.84       2.9  T
   3  -5198.4804962  0.209193E-07  0.261E-04    3.84       6.2  T
     SCC iter.                  ...       10 min, 35.143 sec
     gradient                   ...        4 min, 54.400 sec
 * total energy  : -5104.0048445 Eh     change    :  -0.1604397E-02 Eh
   gradient norm :     0.1659873 Eh/a0  converged?    E=F G=F D=F
   time step     :     0.2435896 fs     power     :   0.8605939E-07
   step length   :     0.0095195 a0     speed     :   0.9453037E-03

........................................................................
.............................. CYCLE   14 ..............................
........................................................................

 iter      E             dE          RMSdq      gap      omega  full diag
   1  -5198.4533206 -0.519845E+04  0.183E-03    3.84       0.0  T
   2  -5198.4533221 -0.154994E-05  0.109E-03    3.84       1.5  T
   3  -5198.4533220  0.801456E-07  0.466E-04    3.84       3.5  T
   4  -5198.4533223 -0.236287E-06  0.144E-04    3.84      11.2  T
     SCC iter.                  ...       14 min,  8.054 sec
     gradient                   ...        4 min, 59.299 sec
 * total energy  : -5104.0078631 Eh     change    :  -0.3018573E-02 Eh
   gradient norm :     0.1561366 Eh/a0  converged?    E=F G=F D=F
   time step     :     0.2435896 fs     power     :   0.1592875E-06
   step length   :     0.0187528 a0     speed     :   0.1862187E-02

........................................................................
.............................. CYCLE   15 ..............................
........................................................................

 iter      E             dE          RMSdq      gap      omega  full diag
   1  -5198.4132566 -0.519841E+04  0.263E-03    3.84       0.0  T
   2  -5198.4132599 -0.327923E-05  0.158E-03    3.84       1.0  T
   3  -5198.4132596  0.286095E-06  0.727E-04    3.84       2.2  T
   4  -5198.4132603 -0.689502E-06  0.221E-04    3.84       7.3  T
     SCC iter.                  ...       14 min,  9.729 sec
     gradient                   ...        4 min, 58.074 sec
 * total energy  : -5104.0119482 Eh     change    :  -0.4085160E-02 Eh
   gradient norm :     0.1425096 Eh/a0  converged?    E=F G=F D=F
   time step     :     0.2435896 fs     power     :   0.2118339E-06
   step length   :     0.0274303 a0     speed     :   0.2723875E-02

........................................................................
.............................. CYCLE   16 ..............................
........................................................................

 iter      E             dE          RMSdq      gap      omega  full diag
   1  -5198.3611250 -0.519836E+04  0.335E-03    3.84       0.0  T
   2  -5198.3611302 -0.521947E-05  0.202E-03    3.84       1.0  T
   3  -5198.3611297  0.528556E-06  0.919E-04    3.84       1.8  T
   4  -5198.3611309 -0.115280E-05  0.285E-04    3.84       5.6  T
   5  -5198.3611311 -0.221147E-06  0.106E-04    3.84      15.2  T
     SCC iter.                  ...       17 min, 43.507 sec
     gradient                   ...        5 min,  1.115 sec
 * total energy  : -5104.0166587 Eh     change    :  -0.4710514E-02 Eh
   gradient norm :     0.1265280 Eh/a0  converged?    E=F G=F D=F
   time step     :     0.2435896 fs     power     :   0.2396148E-06
   step length   :     0.0353195 a0     speed     :   0.3507283E-02

........................................................................
.............................. CYCLE   17 ..............................
........................................................................

 iter      E             dE          RMSdq      gap      omega  full diag
   1  -5198.2980247 -0.519830E+04  0.396E-03    3.84       0.0  T
   2  -5198.2980319 -0.716590E-05  0.238E-03    3.84       1.0  T
   3  -5198.2980312  0.685916E-06  0.105E-03    3.84       1.5  T
   4  -5198.2980327 -0.148494E-05  0.330E-04    3.84       4.9  T
   5  -5198.2980329 -0.293019E-06  0.122E-04    3.84      13.2  T
   6  -5198.2980330 -0.192731E-07  0.879E-05    3.84      18.3  T
     SCC iter.                  ...       21 min,  5.463 sec
     gradient                   ...        5 min,  3.686 sec
 * total energy  : -5104.0215393 Eh     change    :  -0.4880542E-02 Eh
   gradient norm :     0.1101508 Eh/a0  converged?    E=F G=F D=F
   time step     :     0.2435896 fs     power     :   0.2431141E-06
   step length   :     0.0422336 a0     speed     :   0.4193866E-02

........................................................................
.............................. CYCLE   18 ..............................
........................................................................

 iter      E             dE          RMSdq      gap      omega  full diag
   1  -5198.2254226 -0.519823E+04  0.443E-03    3.84       0.0  T
   2  -5198.2254311 -0.853384E-05  0.266E-03    3.84       1.0  T
   3  -5198.2254300  0.109792E-05  0.116E-03    3.84       1.4  T
   4  -5198.2254320 -0.200318E-05  0.376E-04    3.85       4.3  T
   5  -5198.2254324 -0.404562E-06  0.130E-04    3.85      12.4  T
   6  -5198.2254325 -0.202344E-07  0.915E-05    3.85      17.6  T
     SCC iter.                  ...       21 min, 12.061 sec
     gradient                   ...        4 min, 58.293 sec
 * total energy  : -5104.0262065 Eh     change    :  -0.4667202E-02 Eh
   gradient norm :     0.0957982 Eh/a0  converged?    E=F G=F D=F
   time step     :     0.2435896 fs     power     :   0.2274488E-06
   step length   :     0.0480295 a0     speed     :   0.4769411E-02

........................................................................
.............................. CYCLE   19 ..............................
........................................................................

 iter      E             dE          RMSdq      gap      omega  full diag
   1  -5198.1364750 -0.519814E+04  0.528E-03    3.84       0.0  T
   2  -5198.1364861 -0.110973E-04  0.317E-03    3.85       1.0  T
   3  -5198.1364842  0.191458E-05  0.133E-03    3.85       1.2  T
   4  -5198.1364873 -0.306077E-05  0.443E-04    3.85       3.6  T
   5  -5198.1364878 -0.587087E-06  0.147E-04    3.85      11.0  T
   6  -5198.1364879 -0.226937E-07  0.100E-04    3.85      16.0  T
     SCC iter.                  ...       21 min,  6.508 sec
     gradient                   ...        4 min, 54.338 sec
 * total energy  : -5104.0308326 Eh     change    :  -0.4626095E-02 Eh
   gradient norm :     0.0849857 Eh/a0  converged?    E=F G=F D=F
   time step     :     0.2679486 fs     power     :   0.1977040E-06
   step length   :     0.0584037 a0     speed     :   0.5272350E-02

........................................................................
.............................. CYCLE   20 ..............................
........................................................................

 iter      E             dE          RMSdq      gap      omega  full diag
   1  -5198.0319173 -0.519803E+04  0.610E-03    3.85       0.0  T
   2  -5198.0319300 -0.127008E-04  0.366E-03    3.85       1.0  T
   3  -5198.0319267  0.327590E-05  0.147E-03    3.85       1.1  T
   4  -5198.0319314 -0.464123E-05  0.492E-04    3.85       3.3  T
   5  -5198.0319321 -0.758128E-06  0.159E-04    3.85      10.1  T
   6  -5198.0319322 -0.214104E-07  0.104E-04    3.85      15.4  T
     SCC iter.                  ...       21 min, 11.472 sec
     gradient                   ...        4 min, 58.176 sec
 * total energy  : -5104.0351949 Eh     change    :  -0.4362337E-02 Eh
   gradient norm :     0.0803761 Eh/a0  converged?    E=F G=F D=F
   time step     :     0.2947435 fs     power     :   0.1636988E-06
   step length   :     0.0690199 a0     speed     :   0.5664285E-02
 * RMSD in coord.:     0.0409548 a0     energy gain  -0.6931911E+00 Eh

........................................................................
.............................. CYCLE   21 ..............................
........................................................................

 iter      E             dE          RMSdq      gap      omega  full diag
   1  -5197.9434341 -0.519794E+04  0.522E-03    3.85       0.0  T
   2  -5197.9434415 -0.736147E-05  0.313E-03    3.85       1.0  T
   3  -5197.9434385  0.304406E-05  0.119E-03    3.85       1.3  T
   4  -5197.9434424 -0.399294E-05  0.384E-04    3.85       4.2  T
   5  -5197.9434429 -0.473317E-06  0.128E-04    3.85      12.6  T
   6  -5197.9434429 -0.116852E-07  0.809E-05    3.85      19.9  T
     SCC iter.                  ...       21 min,  8.594 sec
     gradient                   ...        4 min, 56.875 sec
 * total energy  : -5104.0383884 Eh     change    :  -0.3193459E-02 Eh
   gradient norm :     0.0804274 Eh/a0  converged?    E=F G=F D=F
   time step     :     0.2500000 fs     power     :   0.1464792E-06
   step length   :     0.0601439 a0     speed     :   0.5819241E-02

........................................................................
.............................. CYCLE   22 ..............................
........................................................................

 iter      E             dE          RMSdq      gap      omega  full diag
   1  -5197.8591838 -0.519786E+04  0.522E-03    3.85       0.0  T
   2  -5197.8591891 -0.533347E-05  0.313E-03    3.85       1.0  T
   3  -5197.8591854  0.372234E-05  0.114E-03    3.85       1.4  T
   4  -5197.8591900 -0.467555E-05  0.322E-04    3.85       5.0  T
   5  -5197.8591904 -0.327395E-06  0.111E-04    3.85      14.5  T
   6  -5197.8591904 -0.486943E-08  0.650E-05    3.85      24.8  T
     SCC iter.                  ...       21 min, 16.024 sec
     gradient                   ...        4 min, 56.943 sec
 * total energy  : -5104.0413919 Eh     change    :  -0.3003544E-02 Eh
   gradient norm :     0.0808291 Eh/a0  converged?    E=F G=F D=F
   time step     :     0.2500000 fs     power     :   0.1411278E-06
   step length   :     0.0608903 a0     speed     :   0.5891465E-02

........................................................................
.............................. CYCLE   23 ..............................
........................................................................

 iter      E             dE          RMSdq      gap      omega  full diag
   1  -5197.7824239 -0.519778E+04  0.523E-03    3.85       0.0  T
   2  -5197.7824275 -0.362394E-05  0.313E-03    3.85       1.0  T
   3  -5197.7824233  0.420581E-05  0.111E-03    3.85       1.5  T
   4  -5197.7824285 -0.517742E-05  0.254E-04    3.85       6.3  T
   5  -5197.7824287 -0.189195E-06  0.977E-05    3.85      16.5  T
   6  -5197.7824287 -0.194632E-08  0.538E-05    3.85      29.9  T
     SCC iter.                  ...       21 min,  7.904 sec
     gradient                   ...        4 min, 53.871 sec
 * total energy  : -5104.0443803 Eh     change    :  -0.2988377E-02 Eh
   gradient norm :     0.0798089 Eh/a0  converged?    E=F G=F D=F
   time step     :     0.2500000 fs     power     :   0.1437233E-06
   step length   :     0.0613300 a0     speed     :   0.5934002E-02

........................................................................
.............................. CYCLE   24 ..............................
........................................................................

 iter      E             dE          RMSdq      gap      omega  full diag
   1  -5197.7154985 -0.519772E+04  0.528E-03    3.85       0.0  T
   2  -5197.7155009 -0.245904E-05  0.316E-03    3.85       1.0  T
   3  -5197.7154966  0.431022E-05  0.108E-03    3.85       1.5  T
   4  -5197.7155019 -0.525733E-05  0.204E-04    3.85       7.9  T
   5  -5197.7155020 -0.108746E-06  0.924E-05    3.85      17.4  T
   6  -5197.7155020 -0.315322E-08  0.500E-05    3.85      32.2  T
     SCC iter.                  ...       21 min,  8.258 sec
     gradient                   ...        4 min, 53.834 sec
 * total energy  : -5104.0474333 Eh     change    :  -0.3052990E-02 Eh
   gradient norm :     0.0770211 Eh/a0  converged?    E=F G=F D=F
   time step     :     0.2500000 fs     power     :   0.1489498E-06
   step length   :     0.0618362 a0     speed     :   0.5982981E-02

........................................................................
.............................. CYCLE   25 ..............................
........................................................................

 iter      E             dE          RMSdq      gap      omega  full diag
   1  -5197.6599352 -0.519766E+04  0.533E-03    3.85       0.0  T
   2  -5197.6599370 -0.180148E-05  0.318E-03    3.85       1.0  T
   3  -5197.6599330  0.395179E-05  0.103E-03    3.85       1.6  T
   4  -5197.6599379 -0.481408E-05  0.182E-04    3.85       8.8  T
   5  -5197.6599379 -0.766504E-07  0.976E-05    3.85      16.5  T
   6  -5197.6599379 -0.931686E-08  0.564E-05    3.85      28.5  T
     SCC iter.                  ...       21 min,  8.712 sec
     gradient                   ...        4 min, 53.504 sec
 * total energy  : -5104.0505470 Eh     change    :  -0.3113743E-02 Eh
   gradient norm :     0.0730019 Eh/a0  converged?    E=F G=F D=F
   time step     :     0.2500000 fs     power     :   0.1527823E-06
   step length   :     0.0625553 a0     speed     :   0.6052561E-02

........................................................................
.............................. CYCLE   26 ..............................
........................................................................

 iter      E             dE          RMSdq      gap      omega  full diag
   1  -5197.6125194 -0.519761E+04  0.593E-03    3.85       0.0  T
   2  -5197.6125212 -0.180478E-05  0.353E-03    3.85       1.0  T
   3  -5197.6125174  0.383292E-05  0.102E-03    3.85       1.6  T
   4  -5197.6125221 -0.471299E-05  0.196E-04    3.85       8.2  T
   5  -5197.6125222 -0.817136E-07  0.121E-04    3.85      13.3  T
   6  -5197.6125222 -0.232994E-07  0.784E-05    3.85      20.5  T
     SCC iter.                  ...       21 min,  9.050 sec
     gradient                   ...        5 min,  4.068 sec
 * total energy  : -5104.0539904 Eh     change    :  -0.3443318E-02 Eh
   gradient norm :     0.0681497 Eh/a0  converged?    E=F G=F D=F
   time step     :     0.2750000 fs     power     :   0.1523527E-06
   step length   :     0.0701569 a0     speed     :   0.6170962E-02

........................................................................
.............................. CYCLE   27 ..............................
........................................................................

 iter      E             dE          RMSdq      gap      omega  full diag
   1  -5197.5761527 -0.519758E+04  0.653E-03    3.84       0.0  T
   2  -5197.5761547 -0.195703E-05  0.387E-03    3.84       1.0  T
   3  -5197.5761517  0.298839E-05  0.943E-04    3.84       1.7  T
   4  -5197.5761555 -0.380779E-05  0.224E-04    3.84       7.2  T
   5  -5197.5761556 -0.102101E-06  0.150E-04    3.84      10.8  T
   6  -5197.5761556 -0.402351E-07  0.106E-04    3.84      15.2  T
     SCC iter.                  ...       21 min, 10.738 sec
     gradient                   ...        5 min,  4.986 sec
 * total energy  : -5104.0576907 Eh     change    :  -0.3700345E-02 Eh
   gradient norm :     0.0634439 Eh/a0  converged?    E=F G=F D=F
   time step     :     0.3025000 fs     power     :   0.1470782E-06
   step length   :     0.0790902 a0     speed     :   0.6324296E-02

........................................................................
.............................. CYCLE   28 ..............................
........................................................................

 iter      E             dE          RMSdq      gap      omega  full diag
   1  -5197.5535368 -0.519755E+04  0.707E-03    3.84       0.0  T
   2  -5197.5535389 -0.211002E-05  0.417E-03    3.84       1.0  T
   3  -5197.5535372  0.169552E-05  0.799E-04    3.84       2.0  T
   4  -5197.5535396 -0.243596E-05  0.254E-04    3.84       6.3  T
   5  -5197.5535398 -0.124661E-06  0.176E-04    3.84       9.2  T
   6  -5197.5535398 -0.616747E-07  0.125E-04    3.84      12.9  T
     SCC iter.                  ...       21 min,  9.193 sec
     gradient                   ...        4 min, 52.789 sec
 * total energy  : -5104.0615671 Eh     change    :  -0.3876394E-02 Eh
   gradient norm :     0.0595340 Eh/a0  converged?    E=F G=F D=F
   time step     :     0.3327500 fs     power     :   0.1382642E-06
   step length   :     0.0892817 a0     speed     :   0.6490223E-02

........................................................................
.............................. CYCLE   29 ..............................
........................................................................

 iter      E             dE          RMSdq      gap      omega  full diag
   1  -5197.5467055 -0.519755E+04  0.746E-03    3.84       0.0  T
   2  -5197.5467077 -0.220282E-05  0.440E-03    3.83       1.0  T
   3  -5197.5467065  0.119846E-05  0.773E-04    3.83       2.1  T
   4  -5197.5467085 -0.200376E-05  0.269E-04    3.83       6.0  T
   5  -5197.5467086 -0.115350E-06  0.194E-04    3.83       8.3  T
   6  -5197.5467087 -0.877862E-07  0.132E-04    3.83      12.2  T
     SCC iter.                  ...       21 min, 11.711 sec
     gradient                   ...        4 min, 58.200 sec
 * total energy  : -5104.0655604 Eh     change    :  -0.3993355E-02 Eh
   gradient norm :     0.0566668 Eh/a0  converged?    E=F G=F D=F
   time step     :     0.3660250 fs     power     :   0.1279445E-06
   step length   :     0.1006039 a0     speed     :   0.6648428E-02

........................................................................
.............................. CYCLE   30 ..............................
........................................................................

 iter      E             dE          RMSdq      gap      omega  full diag
   1  -5197.5566640 -0.519756E+04  0.766E-03    3.83       0.0  T
   2  -5197.5566663 -0.232018E-05  0.452E-03    3.83       1.0  T
   3  -5197.5566639  0.246562E-05  0.983E-04    3.83       1.6  T
   4  -5197.5566674 -0.352456E-05  0.267E-04    3.83       6.0  T
   5  -5197.5566675 -0.101501E-06  0.198E-04    3.83       8.1  T
   6  -5197.5566676 -0.913615E-07  0.133E-04    3.83      12.1  T
     SCC iter.                  ...       21 min,  7.162 sec
     gradient                   ...        4 min, 55.592 sec
 * total energy  : -5104.0696591 Eh     change    :  -0.4098609E-02 Eh
   gradient norm :     0.0554382 Eh/a0  converged?    E=F G=F D=F
   time step     :     0.4026275 fs     power     :   0.1184875E-06
   step length   :     0.1129621 a0     speed     :   0.6786476E-02

........................................................................
.............................. CYCLE   31 ..............................
........................................................................

 iter      E             dE          RMSdq      gap      omega  full diag
   1  -5197.5833789 -0.519758E+04  0.767E-03    3.83       0.0  T
   2  -5197.5833814 -0.248688E-05  0.455E-03    3.82       1.0  T
   3  -5197.5833775  0.394568E-05  0.115E-03    3.82       1.4  T
   4  -5197.5833827 -0.519836E-05  0.252E-04    3.82       6.4  T
   5  -5197.5833828 -0.919772E-07  0.183E-04    3.82       8.8  T
   6  -5197.5833828 -0.715336E-07  0.122E-04    3.82      13.2  T
     SCC iter.                  ...       21 min,  6.614 sec
     gradient                   ...        4 min, 58.358 sec
 * total energy  : -5104.0739567 Eh     change    :  -0.4297689E-02 Eh
   gradient norm :     0.0562768 Eh/a0  converged?    E=F G=F D=F
   time step     :     0.4428903 fs     power     :   0.1136346E-06
   step length   :     0.1263704 a0     speed     :   0.6901832E-02

........................................................................
.............................. CYCLE   32 ..............................
........................................................................

 iter      E             dE          RMSdq      gap      omega  full diag
   1  -5197.6264948 -0.519763E+04  0.763E-03    3.82       0.0  T
   2  -5197.6264973 -0.252219E-05  0.455E-03    3.82       1.0  T
   3  -5197.6264941  0.322230E-05  0.101E-03    3.82       1.6  T
   4  -5197.6264983 -0.418857E-05  0.228E-04    3.82       7.0  T
   5  -5197.6264984 -0.844757E-07  0.148E-04    3.82      10.9  T
   6  -5197.6264984 -0.361388E-07  0.990E-05    3.82      16.3  T
     SCC iter.                  ...       21 min,  7.904 sec
     gradient                   ...        4 min, 56.302 sec
 * total energy  : -5104.0787058 Eh     change    :  -0.4749018E-02 Eh
   gradient norm :     0.0567078 Eh/a0  converged?    E=F G=F D=F
   time step     :     0.4871793 fs     power     :   0.1164131E-06
   step length   :     0.1412498 a0     speed     :   0.7013164E-02

........................................................................
.............................. CYCLE   33 ..............................
........................................................................

 iter      E             dE          RMSdq      gap      omega  full diag
   1  -5197.6869782 -0.519769E+04  0.791E-03    3.82       0.0  T
   2  -5197.6869811 -0.290423E-05  0.472E-03    3.82       1.0  T
   3  -5197.6869794  0.165266E-05  0.759E-04    3.82       2.1  T
   4  -5197.6869816 -0.222067E-05  0.236E-04    3.82       6.8  T
   5  -5197.6869818 -0.126801E-06  0.114E-04    3.82      14.1  T
   6  -5197.6869818 -0.127638E-07  0.631E-05    3.82      25.5  T
     SCC iter.                  ...       21 min,  4.966 sec
     gradient                   ...        4 min, 58.927 sec
 * total energy  : -5104.0841334 Eh     change    :  -0.5427635E-02 Eh
   gradient norm :     0.0522432 Eh/a0  converged?    E=F G=F D=F
   time step     :     0.5358972 fs     power     :   0.1213780E-06
   step length   :     0.1587740 a0     speed     :   0.7166599E-02

........................................................................
.............................. CYCLE   34 ..............................
........................................................................

 iter      E             dE          RMSdq      gap      omega  full diag
   1  -5197.7689958 -0.519777E+04  0.870E-03    3.82       0.0  T
   2  -5197.7690003 -0.453220E-05  0.522E-03    3.83       1.0  T
   3  -5197.7689928  0.747968E-05  0.139E-03    3.82       1.2  T
   4  -5197.7690017 -0.891561E-05  0.277E-04    3.82       5.8  T
   5  -5197.7690020 -0.225010E-06  0.123E-04    3.82      13.1  T
   6  -5197.7690020 -0.975251E-08  0.620E-05    3.82      25.9  T
     SCC iter.                  ...       21 min,  9.620 sec
     gradient                   ...        4 min, 53.923 sec
 * total energy  : -5104.0899846 Eh     change    :  -0.5851243E-02 Eh
   gradient norm :     0.0436654 Eh/a0  converged?    E=F G=F D=F
   time step     :     0.5894869 fs     power     :   0.1142330E-06
   step length   :     0.1801129 a0     speed     :   0.7390704E-02

........................................................................
.............................. CYCLE   35 ..............................
........................................................................

 iter      E             dE          RMSdq      gap      omega  full diag
   1  -5197.8804303 -0.519788E+04  0.953E-03    3.83       0.0  T
   2  -5197.8804366 -0.630423E-05  0.578E-03    3.83       1.0  T
   3  -5197.8804175  0.190693E-04  0.215E-03    3.83       1.0  T
   4  -5197.8804405 -0.229789E-04  0.309E-04    3.83       5.2  T
   5  -5197.8804408 -0.245767E-06  0.144E-04    3.83      11.2  T
   6  -5197.8804408 -0.106511E-07  0.700E-05    3.83      23.0  T
     SCC iter.                  ...       21 min, 11.349 sec
     gradient                   ...        4 min, 57.492 sec
 * total energy  : -5104.0955711 Eh     change    :  -0.5586441E-02 Eh
   gradient norm :     0.0417213 Eh/a0  converged?    E=F G=F D=F
   time step     :     0.6484356 fs     power     :   0.9326593E-07
   step length   :     0.2045974 a0     speed     :   0.7632175E-02

........................................................................
.............................. CYCLE   36 ..............................
........................................................................

 iter      E             dE          RMSdq      gap      omega  full diag
   1  -5198.0246579 -0.519802E+04  0.982E-03    3.83       0.0  T
   2  -5198.0246644 -0.644763E-05  0.599E-03    3.83       1.0  T
   3  -5198.0246395  0.248801E-04  0.240E-03    3.83       1.0  T
   4  -5198.0246694 -0.298807E-04  0.292E-04    3.83       5.5  T
   5  -5198.0246696 -0.178417E-06  0.140E-04    3.83      11.5  T
   6  -5198.0246696 -0.781984E-08  0.646E-05    3.83      24.9  T
     SCC iter.                  ...       21 min, 11.040 sec
     gradient                   ...        4 min, 58.416 sec
 * total energy  : -5104.1008492 Eh     change    :  -0.5278131E-02 Eh
   gradient norm :     0.0434658 Eh/a0  converged?    E=F G=F D=F
   time step     :     0.7132792 fs     power     :   0.8028947E-07
   step length   :     0.2287431 a0     speed     :   0.7757173E-02

........................................................................
.............................. CYCLE   37 ..............................
........................................................................

 iter      E             dE          RMSdq      gap      omega  full diag
   1  -5198.1890732 -0.519819E+04  0.102E-02    3.83       0.0  T
   2  -5198.1890821 -0.889318E-05  0.614E-03    3.83       1.0  T
   3  -5198.1890648  0.172892E-04  0.228E-03    3.83       1.0  T
   4  -5198.1890858 -0.210047E-04  0.364E-04    3.83       4.4  T
   5  -5198.1890862 -0.363641E-06  0.151E-04    3.83      10.7  T
   6  -5198.1890862 -0.985983E-08  0.849E-05    3.83      18.9  T
     SCC iter.                  ...       21 min,  6.934 sec
     gradient                   ...        5 min,  3.940 sec
 * total energy  : -5104.1061871 Eh     change    :  -0.5337874E-02 Eh
   gradient norm :     0.0398519 Eh/a0  converged?    E=F G=F D=F
   time step     :     0.7846071 fs     power     :   0.7237818E-07
   step length   :     0.2534151 a0     speed     :   0.7812596E-02

........................................................................
.............................. CYCLE   38 ..............................
........................................................................

 iter      E             dE          RMSdq      gap      omega  full diag
   1  -5198.3378996 -0.519834E+04  0.106E-02    3.83       0.0  T
   2  -5198.3379093 -0.972923E-05  0.626E-03    3.83       1.0  T
   3  -5198.3379008  0.858031E-05  0.188E-03    3.83       1.0  T
   4  -5198.3379115 -0.107248E-04  0.363E-04    3.83       4.4  T
   5  -5198.3379118 -0.316220E-06  0.157E-04    3.83      10.2  T
   6  -5198.3379118 -0.127302E-07  0.917E-05    3.83      17.6  T
     SCC iter.                  ...       21 min,  6.994 sec
     gradient                   ...        5 min,  3.658 sec
 * total energy  : -5104.1114029 Eh     change    :  -0.5215799E-02 Eh
   gradient norm :     0.0423344 Eh/a0  converged?    E=F G=F D=F
   time step     :     0.8630678 fs     power     :   0.6213966E-07
   step length   :     0.2803813 a0     speed     :   0.7858129E-02

........................................................................
.............................. CYCLE   39 ..............................
........................................................................

 iter      E             dE          RMSdq      gap      omega  full diag
   1  -5198.4194608 -0.519842E+04  0.107E-02    3.83       0.0  T
   2  -5198.4194654 -0.457755E-05  0.629E-03    3.83       1.0  T
   3  -5198.4194598  0.557515E-05  0.134E-03    3.83       1.2  T
   4  -5198.4194668 -0.694229E-05  0.263E-04    3.83       6.1  T
   5  -5198.4194669 -0.123250E-06  0.134E-04    3.83      12.0  T
   6  -5198.4194669 -0.820000E-08  0.593E-05    3.83      27.1  T
     SCC iter.                  ...       21 min, 12.855 sec
     gradient                   ...        5 min,  4.385 sec
 * total energy  : -5104.1171071 Eh     change    :  -0.5704233E-02 Eh
   gradient norm :     0.0421637 Eh/a0  converged?    E=F G=F D=F
   time step     :     0.9493746 fs     power     :   0.6555265E-07
   step length   :     0.3084632 a0     speed     :   0.7859246E-02

........................................................................
.............................. CYCLE   40 ..............................
........................................................................

 iter      E             dE          RMSdq      gap      omega  full diag
   1  -5198.3984864 -0.519840E+04  0.110E-02    3.83       0.0  T
   2  -5198.3984948 -0.838416E-05  0.661E-03    3.83       1.0  T
   3  -5198.3984813  0.134835E-04  0.196E-03    3.83       1.0  T
   4  -5198.3984980 -0.167463E-04  0.372E-04    3.83       4.3  T
   5  -5198.3984983 -0.272294E-06  0.239E-04    3.83       6.7  T
   6  -5198.3984984 -0.633663E-07  0.156E-04    3.83      10.3  T
     SCC iter.                  ...       21 min,  7.466 sec
     gradient                   ...        4 min, 57.641 sec
 * total energy  : -5104.1236092 Eh     change    :  -0.6502128E-02 Eh
   gradient norm :     0.0394019 Eh/a0  converged?    E=F G=F D=F
   time step     :     1.0443120 fs     power     :   0.6644227E-07
   step length   :     0.3427622 a0     speed     :   0.7939218E-02

........................................................................
.............................. CYCLE   41 ..............................
........................................................................

 iter      E             dE          RMSdq      gap      omega  full diag
   1  -5198.2943013 -0.519829E+04  0.121E-02    3.83       0.0  T
   2  -5198.2943181 -0.168356E-04  0.729E-03    3.83       1.0  T
   3  -5198.2943038  0.142815E-04  0.220E-03    3.83       1.0  T
   4  -5198.2943218 -0.179631E-04  0.539E-04    3.83       3.0  T
   5  -5198.2943226 -0.833910E-06  0.274E-04    3.83       5.9  T
   6  -5198.2943227 -0.701057E-07  0.182E-04    3.83       8.8  T
     SCC iter.                  ...       21 min,  8.170 sec
     gradient                   ...        4 min, 53.096 sec
 * total energy  : -5104.1304133 Eh     change    :  -0.6804016E-02 Eh
   gradient norm :     0.0361115 Eh/a0  converged?    E=F G=F D=F
   time step     :     1.1487432 fs     power     :   0.5940716E-07
   step length   :     0.3834171 a0     speed     :   0.8073533E-02

........................................................................
.............................. CYCLE   42 ..............................
........................................................................

 iter      E             dE          RMSdq      gap      omega  full diag
   1  -5198.1840353 -0.519818E+04  0.134E-02    3.82       0.0  T
   2  -5198.1840445 -0.924157E-05  0.799E-03    3.82       1.0  T
   3  -5198.1840269  0.176316E-04  0.250E-03    3.82       1.0  T
   4  -5198.1840484 -0.215552E-04  0.376E-04    3.82       4.3  T
   5  -5198.1840486 -0.216795E-06  0.195E-04    3.82       8.3  T
   6  -5198.1840487 -0.160289E-07  0.894E-05    3.82      18.0  T
     SCC iter.                  ...       21 min,  9.063 sec
     gradient                   ...        4 min, 57.816 sec
 * total energy  : -5104.1370332 Eh     change    :  -0.6619916E-02 Eh
   gradient norm :     0.0371713 Eh/a0  converged?    E=F G=F D=F
   time step     :     1.2500000 fs     power     :   0.5224957E-07
   step length   :     0.4225868 a0     speed     :   0.8177508E-02
 * RMSD in coord.:     0.0545985 a0     energy gain  -0.1018383E+00 Eh

........................................................................
.............................. CYCLE   43 ..............................
........................................................................

 iter      E             dE          RMSdq      gap      omega  full diag
   1  -5198.1701246 -0.519817E+04  0.229E-03    3.82       0.0  T
   2  -5198.1701249 -0.309178E-06  0.139E-03    3.82       1.2  T
   3  -5198.1701237  0.118420E-05  0.548E-04    3.82       2.9  T
   4  -5198.1701251 -0.141993E-05  0.678E-05    3.82      23.7  T
   5  -5198.1701251 -0.999626E-08  0.356E-05    3.82      45.1  T
   6  -5198.1701251 -0.818545E-09  0.168E-05    3.82      95.9  T
     SCC iter.                  ...       21 min,  8.252 sec
     gradient                   ...        4 min, 58.055 sec
 * total energy  : -5104.1382698 Eh     change    :  -0.1236633E-02 Eh
   gradient norm :     0.0363631 Eh/a0  converged?    E=F G=F D=F
   time step     :     0.2500000 fs     power     :   0.6325449E-07
   step length   :     0.0800355 a0     speed     :   0.7743869E-02

........................................................................
.............................. CYCLE   44 ..............................
........................................................................

 iter      E             dE          RMSdq      gap      omega  full diag
   1  -5198.1645151 -0.519816E+04  0.227E-03    3.82       0.0  T
   2  -5198.1645156 -0.555985E-06  0.141E-03    3.82       1.1  T
   3  -5198.1645141  0.146977E-05  0.641E-04    3.82       2.5  T
   4  -5198.1645160 -0.191180E-05  0.824E-05    3.82      19.5  T
   5  -5198.1645161 -0.198288E-07  0.360E-05    3.82      44.7  T
   6  -5198.1645161 -0.896762E-09  0.195E-05    3.82      82.6  T
     SCC iter.                  ...       21 min,  8.008 sec
     gradient                   ...        4 min, 54.963 sec
 * total energy  : -5104.1396512 Eh     change    :  -0.1381412E-02 Eh
   gradient norm :     0.0327191 Eh/a0  converged?    E=F G=F D=F
   time step     :     0.2500000 fs     power     :   0.7013275E-07
   step length   :     0.0767408 a0     speed     :   0.7425087E-02

........................................................................
.............................. CYCLE   45 ..............................
........................................................................

 iter      E             dE          RMSdq      gap      omega  full diag
   1  -5198.1673072 -0.519817E+04  0.246E-03    3.83       0.0  T
   2  -5198.1673080 -0.846963E-06  0.155E-03    3.83       1.0  T
   3  -5198.1673063  0.168902E-05  0.729E-04    3.82       2.2  T
   4  -5198.1673087 -0.234799E-05  0.989E-05    3.83      16.3  T
   5  -5198.1673087 -0.287455E-07  0.430E-05    3.83      37.4  T
   6  -5198.1673087 -0.143064E-08  0.248E-05    3.83      64.8  T
     SCC iter.                  ...       21 min,  9.660 sec
     gradient                   ...        4 min, 55.400 sec
 * total energy  : -5104.1410671 Eh     change    :  -0.1415838E-02 Eh
   gradient norm :     0.0285221 Eh/a0  converged?    E=F G=F D=F
   time step     :     0.2500000 fs     power     :   0.7048346E-07
   step length   :     0.0745615 a0     speed     :   0.7214222E-02

........................................................................
.............................. CYCLE   46 ..............................
........................................................................

 iter      E             dE          RMSdq      gap      omega  full diag
   1  -5198.1786199 -0.519818E+04  0.265E-03    3.83       0.0  T
   2  -5198.1786208 -0.903654E-06  0.166E-03    3.83       1.0  T
   3  -5198.1786187  0.203869E-05  0.772E-04    3.83       2.1  T
   4  -5198.1786215 -0.273924E-05  0.102E-04    3.83      15.8  T
   5  -5198.1786215 -0.276359E-07  0.479E-05    3.83      33.6  T
   6  -5198.1786215 -0.190175E-08  0.274E-05    3.83      58.8  T
     SCC iter.                  ...       21 min,  6.638 sec
     gradient                   ...        4 min, 53.394 sec
 * total energy  : -5104.1424215 Eh     change    :  -0.1354450E-02 Eh
   gradient norm :     0.0262871 Eh/a0  converged?    E=F G=F D=F
   time step     :     0.2500000 fs     power     :   0.6653075E-07
   step length   :     0.0731530 a0     speed     :   0.7077941E-02

........................................................................
.............................. CYCLE   47 ..............................
........................................................................

 iter      E             dE          RMSdq      gap      omega  full diag
   1  -5198.1979147 -0.519820E+04  0.271E-03    3.83       0.0  T
   2  -5198.1979154 -0.676476E-06  0.166E-03    3.83       1.0  T
   3  -5198.1979134  0.205271E-05  0.719E-04    3.83       2.2  T
   4  -5198.1979159 -0.256057E-05  0.916E-05    3.83      17.6  T
   5  -5198.1979159 -0.190939E-07  0.472E-05    3.83      34.1  T
   6  -5198.1979159 -0.173259E-08  0.262E-05    3.83      61.3  T
     SCC iter.                  ...       21 min,  6.128 sec
     gradient                   ...        4 min, 57.527 sec
 * total energy  : -5104.1436932 Eh     change    :  -0.1271699E-02 Eh
   gradient norm :     0.0263626 Eh/a0  converged?    E=F G=F D=F
   time step     :     0.2500000 fs     power     :   0.6273862E-07
   step length   :     0.0719243 a0     speed     :   0.6959061E-02

........................................................................
.............................. CYCLE   48 ..............................
........................................................................

 iter      E             dE          RMSdq      gap      omega  full diag
   1  -5198.2263815 -0.519823E+04  0.291E-03    3.83       0.0  T
   2  -5198.2263820 -0.476071E-06  0.174E-03    3.83       1.0  T
   3  -5198.2263805  0.153192E-05  0.610E-04    3.83       2.6  T
   4  -5198.2263823 -0.182766E-05  0.859E-05    3.83      18.7  T
   5  -5198.2263823 -0.153823E-07  0.459E-05    3.83      35.1  T
   6  -5198.2263823 -0.124783E-08  0.234E-05    3.83      68.8  T
     SCC iter.                  ...       21 min,  5.206 sec
     gradient                   ...        5 min,  1.383 sec
 * total energy  : -5104.1450395 Eh     change    :  -0.1346274E-02 Eh
   gradient norm :     0.0270398 Eh/a0  converged?    E=F G=F D=F
   time step     :     0.2750000 fs     power     :   0.6099883E-07
   step length   :     0.0776797 a0     speed     :   0.6832662E-02

........................................................................
.............................. CYCLE   49 ..............................
........................................................................

 iter      E             dE          RMSdq      gap      omega  full diag
   1  -5198.2632213 -0.519826E+04  0.306E-03    3.83       0.0  T
   2  -5198.2632216 -0.356881E-06  0.181E-03    3.83       1.0  T
   3  -5198.2632210  0.627329E-06  0.455E-04    3.83       3.5  T
   4  -5198.2632218 -0.776015E-06  0.775E-05    3.83      20.7  T
     SCC iter.                  ...       14 min,  7.975 sec
     gradient                   ...        4 min, 56.929 sec
 * total energy  : -5104.1465072 Eh     change    :  -0.1467719E-02 Eh
   gradient norm :     0.0268497 Eh/a0  converged?    E=F G=F D=F
   time step     :     0.3025000 fs     power     :   0.6098995E-07
   step length   :     0.0839185 a0     speed     :   0.6710385E-02

........................................................................
.............................. CYCLE   50 ..............................
........................................................................

 iter      E             dE          RMSdq      gap      omega  full diag
   1  -5198.3068269 -0.519831E+04  0.321E-03    3.83       0.0  T
   2  -5198.3068273 -0.389349E-06  0.191E-03    3.83       1.0  T
   3  -5198.3068265  0.803235E-06  0.499E-04    3.83       3.2  T
   4  -5198.3068275 -0.988796E-06  0.740E-05    3.83      21.8  T
     SCC iter.                  ...       14 min,  8.310 sec
     gradient                   ...        4 min, 58.090 sec
 * total energy  : -5104.1481188 Eh     change    :  -0.1611614E-02 Eh
   gradient norm :     0.0254140 Eh/a0  converged?    E=F G=F D=F
   time step     :     0.3327500 fs     power     :   0.6081202E-07
   step length   :     0.0910433 a0     speed     :   0.6618281E-02

........................................................................
.............................. CYCLE   51 ..............................
........................................................................

 iter      E             dE          RMSdq      gap      omega  full diag
   1  -5198.3543484 -0.519835E+04  0.339E-03    3.83       0.0  T
   2  -5198.3543489 -0.535332E-06  0.204E-03    3.83       1.0  T
   3  -5198.3543472  0.172673E-05  0.637E-04    3.83       2.5  T
   4  -5198.3543492 -0.205507E-05  0.881E-05    3.83      18.3  T
   5  -5198.3543492 -0.130058E-07  0.484E-05    3.83      33.2  T
   6  -5198.3543492 -0.122964E-08  0.217E-05    3.83      74.0  T
     SCC iter.                  ...       21 min,  6.816 sec
     gradient                   ...        4 min, 57.723 sec
 * total energy  : -5104.1498513 Eh     change    :  -0.1732477E-02 Eh
   gradient norm :     0.0231919 Eh/a0  converged?    E=F G=F D=F
   time step     :     0.3660250 fs     power     :   0.5879115E-07
   step length   :     0.0994139 a0     speed     :   0.6569792E-02

........................................................................
.............................. CYCLE   52 ..............................
........................................................................

 iter      E             dE          RMSdq      gap      omega  full diag
   1  -5198.4010159 -0.519840E+04  0.361E-03    3.83       0.0  T
   2  -5198.4010166 -0.665040E-06  0.217E-03    3.83       1.0  T
   3  -5198.4010150  0.156096E-05  0.619E-04    3.83       2.6  T
   4  -5198.4010169 -0.187769E-05  0.107E-04    3.83      15.1  T
   5  -5198.4010169 -0.238751E-07  0.555E-05    3.83      29.0  T
   6  -5198.4010169 -0.118962E-08  0.253E-05    3.83      63.5  T
     SCC iter.                  ...       21 min,  8.215 sec
     gradient                   ...        4 min, 58.279 sec
 * total energy  : -5104.1516476 Eh     change    :  -0.1796346E-02 Eh
   gradient norm :     0.0214135 Eh/a0  converged?    E=F G=F D=F
   time step     :     0.4026275 fs     power     :   0.5451684E-07
   step length   :     0.1091751 a0     speed     :   0.6558965E-02

........................................................................
.............................. CYCLE   53 ..............................
........................................................................

 iter      E             dE          RMSdq      gap      omega  full diag
   1  -5198.4399982 -0.519844E+04  0.379E-03    3.83       0.0  T
   2  -5198.4399990 -0.777661E-06  0.226E-03    3.83       1.0  T
   3  -5198.4399981  0.943654E-06  0.578E-04    3.83       2.8  T
   4  -5198.4399993 -0.122116E-05  0.108E-04    3.83      14.9  T
   5  -5198.4399993 -0.176651E-07  0.636E-05    3.83      25.3  T
     SCC iter.                  ...       17 min, 40.981 sec
     gradient                   ...        4 min, 58.906 sec
 * total energy  : -5104.1534694 Eh     change    :  -0.1821728E-02 Eh
   gradient norm :     0.0219324 Eh/a0  converged?    E=F G=F D=F
   time step     :     0.4428903 fs     power     :   0.4996900E-07
   step length   :     0.1200310 a0     speed     :   0.6555599E-02

........................................................................
.............................. CYCLE   54 ..............................
........................................................................

 iter      E             dE          RMSdq      gap      omega  full diag
   1  -5198.4649020 -0.519846E+04  0.394E-03    3.83       0.0  T
   2  -5198.4649028 -0.868950E-06  0.235E-03    3.83       1.0  T
   3  -5198.4649004  0.242740E-05  0.805E-04    3.83       2.0  T
   4  -5198.4649034 -0.295358E-05  0.121E-04    3.83      13.3  T
   5  -5198.4649034 -0.284035E-07  0.757E-05    3.83      21.3  T
   6  -5198.4649034 -0.602722E-08  0.421E-05    3.83      38.2  T
     SCC iter.                  ...       21 min, 10.625 sec
     gradient                   ...        4 min, 56.661 sec
 * total energy  : -5104.1553836 Eh     change    :  -0.1914208E-02 Eh
   gradient norm :     0.0233838 Eh/a0  converged?    E=F G=F D=F
   time step     :     0.4871793 fs     power     :   0.4865676E-07
   step length   :     0.1312557 a0     speed     :   0.6516951E-02

........................................................................
.............................. CYCLE   55 ..............................
........................................................................

 iter      E             dE          RMSdq      gap      omega  full diag
   1  -5198.4724553 -0.519847E+04  0.418E-03    3.83       0.0  T
   2  -5198.4724563 -0.104204E-05  0.250E-03    3.83       1.0  T
   3  -5198.4724520  0.433735E-05  0.103E-03    3.83       1.6  T
   4  -5198.4724572 -0.522535E-05  0.117E-04    3.83      13.8  T
   5  -5198.4724572 -0.192331E-07  0.738E-05    3.83      21.8  T
   6  -5198.4724572 -0.524778E-08  0.412E-05    3.83      39.1  T
     SCC iter.                  ...       21 min, 12.505 sec
     gradient                   ...        4 min, 58.671 sec
 * total energy  : -5104.1575057 Eh     change    :  -0.2122172E-02 Eh
   gradient norm :     0.0220416 Eh/a0  converged?    E=F G=F D=F
   time step     :     0.5358972 fs     power     :   0.4952851E-07
   step length   :     0.1433241 a0     speed     :   0.6469234E-02

........................................................................
.............................. CYCLE   56 ..............................
........................................................................

 iter      E             dE          RMSdq      gap      omega  full diag
   1  -5198.4620257 -0.519846E+04  0.456E-03    3.83       0.0  T
   2  -5198.4620270 -0.128335E-05  0.272E-03    3.83       1.0  T
   3  -5198.4620232  0.382562E-05  0.104E-03    3.83       1.6  T
   4  -5198.4620278 -0.460710E-05  0.130E-04    3.83      12.4  T
   5  -5198.4620278 -0.343462E-07  0.685E-05    3.83      23.5  T
   6  -5198.4620278 -0.239288E-08  0.319E-05    3.83      50.4  T
     SCC iter.                  ...       21 min,  3.402 sec
     gradient                   ...        4 min, 54.370 sec
 * total energy  : -5104.1597982 Eh     change    :  -0.2292447E-02 Eh
   gradient norm :     0.0191788 Eh/a0  converged?    E=F G=F D=F
   time step     :     0.5894869 fs     power     :   0.4744689E-07
   step length   :     0.1577659 a0     speed     :   0.6473724E-02

........................................................................
.............................. CYCLE   57 ..............................
........................................................................

 iter      E             dE          RMSdq      gap      omega  full diag
   1  -5198.4365078 -0.519844E+04  0.488E-03    3.83       0.0  T
   2  -5198.4365089 -0.108647E-05  0.290E-03    3.83       1.0  T
   3  -5198.4365070  0.195146E-05  0.813E-04    3.83       2.0  T
   4  -5198.4365094 -0.239613E-05  0.123E-04    3.83      13.1  T
   5  -5198.4365094 -0.201890E-07  0.676E-05    3.83      23.8  T
   6  -5198.4365094 -0.238288E-08  0.301E-05    3.83      53.5  T
     SCC iter.                  ...       21 min,  8.609 sec
     gradient                   ...        4 min, 55.672 sec
 * total energy  : -5104.1621302 Eh     change    :  -0.2332036E-02 Eh
   gradient norm :     0.0192530 Eh/a0  converged?    E=F G=F D=F
   time step     :     0.6484356 fs     power     :   0.4312813E-07
[...]
  3615   6 C     3616   6 C                                       1.5339676
  3617   6 C     3618   6 C                                       1.3910853
  3618   6 C     3619   6 C                                       1.3827257
  3619   6 C     3620   6 C                                       1.3843536
  3620   6 C     3621   6 C                                       1.3841230
  3617   6 C     3622   6 C                                       1.3887817
  3621   6 C     3622   6 C                                       1.3842705
  3616   6 C     3623   6 C                                       1.5385073
  3623   6 C     3624   6 C                                       1.5363342
  3625   6 C     3626   6 C                                       1.3903032
  3626   6 C     3627   6 C                                       1.3825161
  3627   6 C     3628   6 C                                       1.3853777
  3628   6 C     3629   6 C                                       1.3833036
  3625   6 C     3630   6 C                                       1.3887777
  3629   6 C     3630   6 C                                       1.3833860
  3624   6 C     3631   6 C                                       1.5369651
  3633   6 C     3634   6 C                                       1.3893011
  3634   6 C     3635   6 C                                       1.3832716
  3635   6 C     3636   6 C                                       1.3827514
  3636   6 C     3637   6 C                                       1.3838589
  3633   6 C     3638   6 C                                       1.3901708
  3637   6 C     3638   6 C                                       1.3822748
  3632   6 C     3639   6 C                                       1.5326673
  3639   6 C     3640   6 C                                       1.5391903
  3641   6 C     3642   6 C                                       1.3879726
  3642   6 C     3643   6 C                                       1.3842982
  3643   6 C     3644   6 C                                       1.3838341
  3644   6 C     3645   6 C                                       1.3842223
  3641   6 C     3646   6 C                                       1.3909881
  3645   6 C     3646   6 C                                       1.3819125
  3647   6 C     3648   6 C                                       1.5381744
  3649   6 C     3650   6 C                                       1.3900386
  3650   6 C     3651   6 C                                       1.3828623
  3651   6 C     3652   6 C                                       1.3847522
  3652   6 C     3653   6 C                                       1.3831229
  3649   6 C     3654   6 C                                       1.3889382
  3653   6 C     3654   6 C                                       1.3828677
  3648   6 C     3655   6 C                                       1.5371519
  3655   6 C     3656   6 C                                       1.5354424
  3657   6 C     3658   6 C                                       1.3887142
  3658   6 C     3659   6 C                                       1.3829355
  3659   6 C     3660   6 C                                       1.3821285
  3660   6 C     3661   6 C                                       1.3830148
  3657   6 C     3662   6 C                                       1.3903237
  3661   6 C     3662   6 C                                       1.3825336
  3656   6 C     3663   6 C                                       1.5390035
  3663   6 C     3664   6 C                                       1.5374396
  3665   6 C     3666   6 C                                       1.3895887
  3666   6 C     3667   6 C                                       1.3837176
  3667   6 C     3668   6 C                                       1.3842604
  3668   6 C     3669   6 C                                       1.3844159
  3665   6 C     3670   6 C                                       1.3893357
  3669   6 C     3670   6 C                                       1.3825323
  3664   6 C     3671   6 C                                       1.5339406
  3671   6 C     3672   6 C                                       1.5357980
  3673   6 C     3674   6 C                                       1.3900186
  3674   6 C     3675   6 C                                       1.3830762
  3675   6 C     3676   6 C                                       1.3846983
  3676   6 C     3677   6 C                                       1.3845891
  3673   6 C     3678   6 C                                       1.3890919
  3677   6 C     3678   6 C                                       1.3841208
  3672   6 C     3679   6 C                                       1.5357659
  3679   6 C     3680   6 C                                       1.5347687
  3681   6 C     3682   6 C                                       1.3895319
  3682   6 C     3683   6 C                                       1.3835328
  3683   6 C     3684   6 C                                       1.3842217
  3684   6 C     3685   6 C                                       1.3840682
  3681   6 C     3686   6 C                                       1.3898911
  3685   6 C     3686   6 C                                       1.3832009
  3680   6 C     3687   6 C                                       1.5363368
  3687   6 C     3688   6 C                                       1.5354944
  3549   6 C     3689   1 H                                       1.0941071
  3551   6 C     3690   1 H                                       1.0930031
  3551   6 C     3691   1 H                                       1.0920972
  3552   6 C     3692   1 H                                       1.0956067
  3559   6 C     3693   1 H                                       1.0921205
  3559   6 C     3694   1 H                                       1.0912082
  3560   6 C     3695   1 H                                       1.0957102
  3567   6 C     3696   1 H                                       1.0905859
  3567   6 C     3697   1 H                                       1.0904984
  3568   6 C     3698   1 H                                       1.0934306
  3575   6 C     3699   1 H                                       1.0928550
  3576   6 C     3700   1 H                                       1.0948120
  3583   6 C     3701   1 H                                       1.0903877
  3583   6 C     3702   1 H                                       1.0910234
  3584   6 C     3703   1 H                                       1.0954257
  3591   6 C     3704   1 H                                       1.0886218
  3591   6 C     3705   1 H                                       1.0912182
  3592   6 C     3706   1 H                                       1.0960664
  3599   6 C     3707   1 H                                       1.0918870
  3599   6 C     3708   1 H                                       1.0921906
  3600   6 C     3709   1 H                                       1.0906920
  3608   6 C     3710   1 H                                       1.0962089
  3615   6 C     3711   1 H                                       1.0886908
  3615   6 C     3712   1 H                                       1.0900758
  3616   6 C     3713   1 H                                       1.0956598
  3623   6 C     3714   1 H                                       1.0919800
  3623   6 C     3715   1 H                                       1.0897136
  3624   6 C     3716   1 H                                       1.0922006
  3631   6 C     3717   1 H                                       1.0921374
  3631   6 C     3718   1 H                                       1.0921792
  3632   6 C     3719   1 H                                       1.0942898
  3639   6 C     3720   1 H                                       1.0905104
  3639   6 C     3721   1 H                                       1.0907633
  3640   6 C     3722   1 H                                       1.0949953
  3647   6 C     3723   1 H                                       1.0931491
  3647   6 C     3724   1 H                                       1.0916949
  3648   6 C     3725   1 H                                       1.0960585
  3655   6 C     3726   1 H                                       1.0923998
  3655   6 C     3727   1 H                                       1.0917770
  3656   6 C     3728   1 H                                       1.0962455
  3663   6 C     3729   1 H                                       1.0925451
  3663   6 C     3730   1 H                                       1.0921049
  3664   6 C     3731   1 H                                       1.0948696
  3671   6 C     3732   1 H                                       1.0922629
  3671   6 C     3733   1 H                                       1.0915583
  3672   6 C     3734   1 H                                       1.0961762
  3679   6 C     3735   1 H                                       1.0915300
  3679   6 C     3736   1 H                                       1.0927920
  3543   6 C     3737   1 H                                       1.0804612
  3548   6 C     3738   1 H                                       1.0804550
  3547   6 C     3739   1 H                                       1.0805885
  3546   6 C     3740   1 H                                       1.0810984
  3545   6 C     3741   1 H                                       1.0811856
  3554   6 C     3742   1 H                                       1.0818428
  3555   6 C     3743   1 H                                       1.0814305
  3556   6 C     3744   1 H                                       1.0794238
  3557   6 C     3745   1 H                                       1.0811688
  3558   6 C     3746   1 H                                       1.0796421
  3562   6 C     3747   1 H                                       1.0798248
  3563   6 C     3748   1 H                                       1.0815333
  3564   6 C     3749   1 H                                       1.0802774
  3565   6 C     3750   1 H                                       1.0817218
  3566   6 C     3751   1 H                                       1.0808134
  3570   6 C     3752   1 H                                       1.0811866
  3571   6 C     3753   1 H                                       1.0807284
  3572   6 C     3754   1 H                                       1.0800915
  3573   6 C     3755   1 H                                       1.0814826
  3574   6 C     3756   1 H                                       1.0804811
  3575   6 C     3757   1 H                                       1.0930544
  3578   6 C     3758   1 H                                       1.0807325
  3579   6 C     3759   1 H                                       1.0813587
  3580   6 C     3760   1 H                                       1.0805215
  3581   6 C     3761   1 H                                       1.0803220
  3582   6 C     3762   1 H                                       1.0806451
  3586   6 C     3763   1 H                                       1.0819581
  3587   6 C     3764   1 H                                       1.0811203
  3588   6 C     3765   1 H                                       1.0811148
  3589   6 C     3766   1 H                                       1.0818997
  3590   6 C     3767   1 H                                       1.0801768
  3594   6 C     3768   1 H                                       1.0824218
  3595   6 C     3769   1 H                                       1.0814106
  3596   6 C     3770   1 H                                       1.0792022
  3597   6 C     3771   1 H                                       1.0792441
  3598   6 C     3772   1 H                                       1.0793116
  3602   6 C     3773   1 H                                       1.0810201
  3603   6 C     3774   1 H                                       1.0810885
  3604   6 C     3775   1 H                                       1.0806715
  3605   6 C     3776   1 H                                       1.0811928
  3606   6 C     3777   1 H                                       1.0803773
  3607   6 C     3778   1 H                                       1.0920707
  3607   6 C     3779   1 H                                       1.0927861
  3610   6 C     3780   1 H                                       1.0818888
  3611   6 C     3781   1 H                                       1.0811254
  3612   6 C     3782   1 H                                       1.0805780
  3613   6 C     3783   1 H                                       1.0806216
  3614   6 C     3784   1 H                                       1.0798519
  3618   6 C     3785   1 H                                       1.0802491
  3619   6 C     3786   1 H                                       1.0810986
  3620   6 C     3787   1 H                                       1.0809214
  3621   6 C     3788   1 H                                       1.0812470
  3622   6 C     3789   1 H                                       1.0818136
  3626   6 C     3790   1 H                                       1.0803143
  3627   6 C     3791   1 H                                       1.0810818
  3628   6 C     3792   1 H                                       1.0808219
  3629   6 C     3793   1 H                                       1.0808118
  3630   6 C     3794   1 H                                       1.0794545
  3634   6 C     3795   1 H                                       1.0818233
  3635   6 C     3796   1 H                                       1.0808507
  3636   6 C     3797   1 H                                       1.0791962
  3637   6 C     3798   1 H                                       1.0804464
  3638   6 C     3799   1 H                                       1.0806944
  3642   6 C     3800   1 H                                       1.0811229
  3643   6 C     3801   1 H                                       1.0812287
  3644   6 C     3802   1 H                                       1.0814521
  3645   6 C     3803   1 H                                       1.0812051
  3646   6 C     3804   1 H                                       1.0792507
  3650   6 C     3805   1 H                                       1.0801390
  3651   6 C     3806   1 H                                       1.0816867
  3652   6 C     3807   1 H                                       1.0794017
  3653   6 C     3808   1 H                                       1.0804909
  3654   6 C     3809   1 H                                       1.0818545
  3658   6 C     3810   1 H                                       1.0817973
  3659   6 C     3811   1 H                                       1.0800020
  3660   6 C     3812   1 H                                       1.0780237
  3661   6 C     3813   1 H                                       1.0798760
  3662   6 C     3814   1 H                                       1.0804855
  3666   6 C     3815   1 H                                       1.0806717
  3667   6 C     3816   1 H                                       1.0817524
  3668   6 C     3817   1 H                                       1.0816154
  3669   6 C     3818   1 H                                       1.0810282
  3670   6 C     3819   1 H                                       1.0808609
  3674   6 C     3820   1 H                                       1.0802236
  3675   6 C     3821   1 H                                       1.0812934
  3676   6 C     3822   1 H                                       1.0807070
  3677   6 C     3823   1 H                                       1.0817403
  3678   6 C     3824   1 H                                       1.0812999
  3686   6 C     3825   1 H                                       1.0801412
  3685   6 C     3826   1 H                                       1.0800737
  3684   6 C     3827   1 H                                       1.0808632
  3683   6 C     3828   1 H                                       1.0813997
  3682   6 C     3829   1 H                                       1.0807494
  3550   6 C     3830   1 H                                       1.0878098
  3550   6 C     3831   1 H                                       1.0875236
  3550   6 C     3832   1 H                                       1.0883435
  3680   6 C     3833   1 H                                       1.0957824
  3687   6 C     3834   1 H                                       1.0932532
  3687   6 C     3835   1 H                                       1.0915380
  3688   6 C     3836   6 C                                       1.5377709
  3837   6 C     3838   6 C                                       1.3904140
  3838   6 C     3839   6 C                                       1.3831916
  3839   6 C     3840   6 C                                       1.3844341
  3840   6 C     3841   6 C                                       1.3842832
  3837   6 C     3842   6 C                                       1.3887106
  3841   6 C     3842   6 C                                       1.3839381
  3838   6 C     3843   1 H                                       1.0797230
  3839   6 C     3844   1 H                                       1.0816496
  3840   6 C     3845   1 H                                       1.0797295
  3841   6 C     3846   1 H                                       1.0809855
  3842   6 C     3847   1 H                                       1.0806858
  3836   6 C     3848   6 C                                       1.5340947
  3836   6 C     3849   1 H                                       1.0928360
  3836   6 C     3850   1 H                                       1.0921287
  3851   6 C     3852   6 C                                       1.3899540
  3852   6 C     3853   6 C                                       1.3828350
  3853   6 C     3854   6 C                                       1.3847511
  3854   6 C     3855   6 C                                       1.3847015
  3851   6 C     3856   6 C                                       1.3887257
  3855   6 C     3856   6 C                                       1.3839359
  3852   6 C     3857   1 H                                       1.0805139
  3853   6 C     3858   1 H                                       1.0807801
  3854   6 C     3859   1 H                                       1.0803780
  3855   6 C     3860   1 H                                       1.0807153
  3856   6 C     3861   1 H                                       1.0811554
  3688   6 C     3862   1 H                                       1.0958269
  3848   6 C     3863   1 H                                       1.0911119
  3848   6 C     3864   1 H                                       1.0916763

 * 2 distinct bonds (by element types)

   Z      Z             #   av. dist./Å        max./Å        min./Å
   1 H    6 C        1944     1.0852605     1.0976171     1.0775207
   6 C    6 C        1853     1.4191206     1.5407948     1.3802984


optimized geometry written to: xtbopt.xyz


           -------------------------------------------------
          | TOTAL ENERGY            -5104.245232581547 Eh   |
          | GRADIENT NORM               0.000856491318 Eh/α |
          | HOMO-LUMO GAP               3.783590912831 eV   |
           -------------------------------------------------

------------------------------------------------------------------------
 * finished run on 2024/07/18 at 12:06:54.922     
------------------------------------------------------------------------
 total:
 * wall-time:     7 d,  5 h, 34 min,  5.674 sec
 *  cpu-time:    47 d,  4 h,  4 min, 41.896 sec
 * ratio c/w:     6.522 speedup
 SCF:
 * wall-time:     0 d,  0 h, 16 min, 19.686 sec
 *  cpu-time:     0 d,  1 h, 44 min, 27.500 sec
 * ratio c/w:     6.397 speedup
 ANC optimizer:
 * wall-time:     7 d,  5 h, 16 min, 35.294 sec
 *  cpu-time:    47 d,  2 h, 18 min, 41.640 sec
 * ratio c/w:     6.523 speedup

