3536
 energy: -3716.243345731504 gnorm: 0.000962773502 xtb: 6.6.1 (8d0f1dd)
C           57.22529877199832       47.38984170792509       59.90150208797941
C           56.83735555968427       48.83255232762008       60.20991756090633
C           58.09620770996948       49.68811722479690       60.34845432968224
C           56.00043223606630       48.94128161322334       61.49020246793072
C           54.68764290474093       48.14284605773798       61.51614166955410
C           53.87347117738117       48.34971199237640       60.24258224354835
C           53.86978200238791       48.58801996595100       62.73699361007668
C           52.74220715172920       47.63141239155139       63.15396066684848
C           51.65975133676702       48.41086848148444       63.89931924946531
C           53.28545369897797       46.49780786204784       64.03309594322192
C           52.36404735779831       45.27255753288293       64.12449079339419
C           52.68792206943825       44.47829101067015       65.38950741931816
C           52.51803220117058       44.39026028974669       62.87951744770459
C           51.32991293324094       43.45556987806633       62.60523145716935
C           51.80563596431060       42.25310104754347       61.79181860023703
C           50.20642611796790       44.21752248535147       61.88942421258459
C           48.90881569341935       43.41094648611737       61.69915560232295
C           48.79939392388275       42.88280672999577       60.26797468623060
C           47.65709316076990       44.24874349036971       61.99999396007216
C           47.40611952767312       44.59404577478706       63.47542802581209
C           47.11086665902354       43.34036856188607       64.29458716013953
C           46.23315004060508       45.58438219963406       63.53432450558014
C           45.85315320913068       46.13705109620557       64.91595115791100
C           44.58036267919785       46.97617359129799       64.78982912567645
C           46.96862987436444       46.89489545654796       65.66221608395152
C           47.21381287770533       48.36756756705399       65.31109296092598
C           47.68402289624767       48.55301781876136       63.86965082954890
C           48.27833362052051       48.97546926348124       66.23783232056681
C           47.97276387808841       48.99918575927979       67.74032352327380
C           46.58945419826851       49.57974606778540       68.02978325863124
C           49.01735141433074       49.84496125296862       68.48509582202486
C           50.48321448502917       49.43518080705271       68.29953351879318
C           50.72994937881576       48.01608128473975       68.80351725551513
C           51.38653964521773       50.43827726962763       69.03219071980551
C           52.86114197623863       50.42248513548377       68.60123063221599
C           53.69495511243833       51.17981534850394       69.63094610157161
C           53.01080085355982       51.04029796689512       67.20700649291113
C           54.41923468334024       51.06252393266379       66.58905272610818
C           54.28696981545212       51.61844929938853       65.17093398190099
C           55.04836951835589       49.66433000584252       66.59991496198752
C           56.43067583250848       49.50465189044578       65.94407205380398
C           56.73516742865168       48.00584461324141       65.87066065137431
C           57.52058366010143       50.24508963753279       66.73773090586528
C           58.65026613087465       50.91951873452079       65.93635902351980
C           58.12069484801992       52.04833896220006       65.05486947456436
C           59.46465451325071       49.90606097139609       65.12718768767033
C           60.67004128915337       50.45559482040148       64.34578064080922
C           61.35260833606414       49.28059734207321       63.64574183402356
C           61.64827285904040       51.19875980836161       65.26142445407943
C           62.94699320344771       51.69506720883830       64.60477631229740
C           63.76967109812131       52.43177884260011       65.66263791599543
C           62.63657435680983       52.58513988425625       63.39272886016032
C           63.81771254510314       53.33786747296200       62.75860263826067
C           63.28050190528908       54.21891168156203       61.63161286909546
C           64.87000920634426       52.35758448796860       62.23175635371141
C           66.18307829151880       52.96075117642665       61.70753835366098
C           67.02784119726633       51.82449248051783       61.12893085287361
C           66.91694596273922       53.71295128525895       62.82836315914989
C           68.37652765874653       54.11122607120549       62.55739160373489
C           68.93440091676351       54.81031291151496       63.79699283909913
C           68.49310876841479       55.01200146469642       61.32421353404293
C           69.91919003495873       55.35473143781869       60.86007360778727
C           69.81560298510058       56.20796307700089       59.59579618081384
C           70.72793726227340       54.07169898555556       60.61965525591352
C           72.03422910575765       54.20130372751163       59.82288622866309
C           72.63981246803723       52.80396098910091       59.67734771107568
C           73.02125114431053       55.16557237658187       60.48958186199499
C           74.24211171582617       55.54846248488816       59.63854961419993
C           75.25454642362790       56.27142606195938       60.52757612780315
C           73.85305691656156       56.43746731509282       58.44863761547656
C           74.94699727556552       56.56840130397483       57.37105234772687
C           75.11881520277343       58.03299985066809       56.96307014423060
C           74.63905447699304       55.73948550669118       56.11517579741283
C           74.55722562579525       54.22245107627108       56.31864439864734
C           75.92694390469923       53.64362373870721       56.67462463971863
C           74.04780413249266       53.52120083287752       55.04932017107554
C           72.57642911014422       53.75567974536210       54.68949994414963
C           71.64237399139958       53.15697594947063       55.74136609472862
C           72.23404320730891       53.13273002697548       53.32748445229839
C           73.01145097930278       53.65726122849865       52.11334704922394
C           72.95961289493908       55.18221453383266       52.03031204064031
C           72.43819319130745       53.07846358783191       50.81050754278732
C           72.58814858688157       51.56356066054578       50.60511960020836
C           74.05371408473553       51.17780631816967       50.42309893690503
C           71.74716203529766       51.16491280310620       49.38353432605969
C           71.72233012398414       49.67698329990098       49.00714689390616
C           71.01549046126092       49.53164372144298       47.65946350234484
C           71.03277699842880       48.83205471578042       50.08375798928741
C           71.18779225303143       47.32698946334320       49.87039757360458
C           70.61788426030382       46.53030010817305       51.03802077000802
H           57.79992095857303       46.97802537774788       60.72709540836501
H           56.34876711464206       46.76738487574796       59.74579914503410
H           57.83650938863509       47.34539023438386       59.00236921231978
H           69.55335796962927       46.72531793154278       51.14979282074468
H           70.75252451902907       45.46285304031965       50.87779543979121
H           71.11353686722497       46.80189643856443       51.96769256603221
H           71.45912919211608       49.07809300361183       51.05787728297484
H           69.97137063395414       49.08764799800424       50.11390527752327
H           70.71680923665429       51.48821457638499       49.55199513336818
H           72.12452954089009       51.72315723391636       48.52322268026652
H           72.19990278293359       51.04744875668444       51.48701779256875
H           74.45433172460899       51.62734611215731       49.51657082516869
H           74.64980169626945       51.51565171401479       51.26675363313876
H           74.16578810798764       50.09923842953992       50.35262662570988
H           71.37632732882936       53.33510567363648       50.76496991448616
H           72.92560109580016       53.57836301505120       49.96932092282003
H           72.39092592676381       52.05471674214244       53.40504810116135
H           71.16900104024121       53.29828034900278       53.14362597929314
H           72.75009607593515       49.32038025047959       48.88963850652468
H           69.98243096127021       49.86148270083611       47.73904706590776
H           71.50818536865506       50.13689084620522       46.90204775427212
H           71.02429988868295       48.49991412719854       47.31937859207802
H           74.05911624118954       53.35724774035541       52.19774214240950
H           73.44967258487345       55.52715805273081       51.12175678540396
H           71.92549703917447       55.51996987277231       52.01230580844629
H           73.46263427601257       55.64348402070588       52.87558397163687
H           72.37708519220631       54.82812693059104       54.63812969557936
H           70.60472564067004       53.28436932998366       55.43988654369438
H           71.83424618163383       52.09303501073457       55.86401152923330
H           71.77346813191036       53.64132368151674       56.70424047307568
H           74.67595225620401       53.84767428210399       54.21870554013606
H           74.19606787711011       52.44440216515579       55.16714156025703
H           73.86933522180465       54.01069106439081       57.13870084216706
H           76.63567149851436       53.82478812067757       55.86863105306971
H           76.32396541175781       54.08994763566456       57.58251353678819
H           75.85690410238266       52.56893589175759       56.83168010568721
H           73.69214029825957       56.09677633435280       55.70497272623837
H           75.41246387202511       55.94319468517279       55.36918746908847
H           75.90020197168741       56.22975328119998       57.78501554999413
H           75.38195781928138       58.64321450091373       57.82436098532483
H           75.90659384997964       58.13677759233182       56.21971221071665
H           74.19601732003896       58.42055275024182       56.53489327830175
H           72.94817271952323       56.05061887668187       57.97908535605043
H           73.60888306654448       57.42866941268355       58.83887647531098
H           74.71219438956369       54.63690539249932       59.26230299856028
H           74.79995692758338       57.15145220533445       60.97921797191088
H           75.59978846501340       55.61779849312003       61.32589897241035
H           76.12122490048317       56.59332562360213       59.95547310729854
H           72.50281157592939       56.08588146390126       60.76289720361749
H           73.37383682903925       54.70446441274532       61.41569271889597
H           71.78911662416036       54.57081876952641       58.82375674259868
H           73.55478687034528       52.82379441424543       59.09236554667378
H           72.87148374618634       52.38734637099905       60.65569499268548
H           71.93927943946198       52.13669384342887       59.17866814648085
H           70.96932129623974       53.62594050025994       61.58666293273681
H           70.08894252137240       53.36542810417202       60.08104293367758
H           70.40891863262696       55.95044042112183       61.63593102350129
H           69.11725267414876       57.02818987023731       59.75401994727213
H           70.77527668392574       56.63432796547850       59.31840367420414
H           69.45374232714629       55.60567256564272       58.76499280187363
H           67.98734676180436       54.52592721413586       60.48797105821595
H           67.96496789484762       55.94584172845374       61.53529434776264
H           68.95304080198373       53.19814679632292       62.39516628695010
H           68.81122144156534       54.18352021219690       64.67781265557402
H           69.99345334658118       55.02445176340269       63.68111255855079
H           68.41190271179912       55.74899991700053       63.97176850716711
H           66.35632795472318       54.61951639746224       63.06392344226949
H           66.91133606326153       53.07997650786783       63.72040391658342
H           65.95090047130823       53.65997718530279       60.89918553860610
H           67.91296005543767       52.20144465688042       60.62491868527912
H           67.34184525576359       51.14404373489079       61.91761165617249
H           66.44819808693767       51.25954780846991       60.40201249312619
H           65.12917230810750       51.65958043888856       63.02905879875568
H           64.41170598142153       51.77789043126477       61.42590947970228
H           64.26867816689197       53.98548676530716       63.51363247858186
H           64.07064185667431       54.82150111291105       61.19488109901760
H           62.84570697457964       53.60269947654198       60.84739553669180
H           62.51305346656537       54.89251797611229       62.00630620283322
H           62.18138734238103       51.96771150205109       62.61559285401577
H           61.88929199449554       53.32344173697243       63.69502011454054
H           63.51977093007503       50.82349715254003       64.27633428057237
H           63.89288772123935       51.80765363991561       66.54591837598588
H           64.75927989431403       52.68370738547660       65.29145002446413
H           63.27068965717980       53.34917348838492       65.96680338561174
H           61.14123680802965       52.06713956065472       65.68710688024370
H           61.91442864540781       50.53340188420984       66.08756622626328
H           60.29899993518742       51.14524599851260       63.58286778178380
H           60.62052402668393       48.69586003400332       63.09346191122885
H           62.11001540443473       49.61598558470937       62.94336433206249
H           61.82611993426140       48.63124166624581       64.37894331286023
H           59.82632244802658       49.13286411075418       65.80921035834416
H           58.80020934000186       49.43200869078627       64.40199664695760
H           59.31298034609150       51.36529841197908       66.68808074273393
H           58.93655278451926       52.67959492386105       64.71406261787213
H           57.61411456321234       51.65399989347703       64.17724600090638
H           57.42374747888958       52.67142293022029       65.61116210452805
H           57.04598785713890       51.03001978152179       67.32954239761423
H           57.97160242793126       49.54180739297271       67.44251681581731
H           56.39003515448693       49.89690009438844       64.92596862046005
H           56.71067391010334       47.56821028037999       66.86764910498805
H           55.99480748976606       47.49373458299638       65.25865319472064
H           57.71593420256176       47.82201255710484       65.44309927350783
H           55.14345994246771       49.33069680294071       67.63524919193007
H           54.35462583845664       48.98494531434508       66.09739623222968
H           55.04445709272765       51.74879132150067       67.16818373614591
H           55.25823658926002       51.80029402683548       64.72243889834607
H           53.73973265854529       50.92244173822584       64.53998627013235
H           53.73949257758812       52.55885019029694       65.19305718411790
H           52.35897257876856       50.50078977424307       66.51655126231228
H           52.64668188706590       52.07050418812704       67.25303824965853
H           53.20216582851544       49.38519209811399       68.57616142007379
H           54.75527291435723       51.12352042185025       69.40114190206391
H           53.40238635372985       52.22624335686036       69.65672589788376
H           53.54192734732797       50.75908525667396       70.62203174308092
H           51.00146647980630       51.44911474461134       68.87651185167765
H           51.32890873827636       50.23053831353057       70.10370416018010
H           50.71902556636014       49.47185564538476       67.23374445121900
H           50.44376099454384       47.92956704384114       69.85011258206930
H           50.15715488346290       47.29260156498788       68.22908367010783
H           51.78189359204868       47.75925504676980       68.71007420644895
H           48.90580774595067       50.88278320103584       68.15701896408130
H           48.78736495336585       49.81526985032241       69.55384381971919
H           48.00658779006682       47.98018160758470       68.13535388701128
H           45.80356666895332       48.94730692874533       67.62769917502229
H           46.43275358081124       49.66515650344463       69.10322471904756
H           46.49573604076571       50.57087335899003       67.59076519628205
H           49.20877327074745       48.42755204767145       66.07813943442925
H           48.44623290922603       50.00701953790148       65.91665096774604
H           46.28536963919507       48.92656471394917       65.44240602663447
H           48.09579030877941       49.55048283611241       63.73059373901815
H           48.45993313765604       47.83330330403476       63.62020609085280
H           46.86149672741647       48.43289454482478       63.17323719764093
H           46.71178312407648       46.85809040730128       66.72294975901366
H           47.90771314380965       46.35126820161394       65.53972375197723
H           45.59974397757286       45.27486403831264       65.54389636340412
H           43.75548937039397       46.35271589774362       64.45041319592531
H           44.30440903152314       47.40665883706811       65.74988374807306
H           44.70857523014162       47.78369921802964       64.07325133322813
H           46.44715246392114       46.41158471198794       62.85941270965310
H           45.35098340125106       45.07118674328531       63.13913885606948
H           48.30379572969347       45.06903447364920       63.88244354995724
H           47.93381056648994       42.63301870376556       64.23369171337532
H           46.96868252623740       43.58867734099006       65.34217621884486
H           46.21017270670045       42.85149819489285       63.92775756726856
H           47.72643687022090       45.17763114121515       61.42681105448597
H           46.78229258929267       43.70702358587032       61.63064591200175
H           48.92556777031549       42.55206787923724       62.37541371003007
H           49.68685006599293       42.32664234851812       59.98097322487143
H           47.93779030303303       42.22494596387178       60.16730479306209
H           48.67713185004297       43.71367009862841       59.57574730079334
H           49.98868527202238       45.11686565134713       62.46761410770700
H           50.57245341460541       44.54703004601126       60.91385877938863
H           50.94066142397737       43.08847432839134       63.56116585549636
H           52.61232780175255       41.74083736872836       62.31303134950780
H           51.00196595044808       41.53797694186478       61.63938099658218
H           52.17641639257227       42.57578656708288       60.82085880471831
H           52.66467932024087       45.01982251013717       61.99930805141383
H           53.42323992508528       43.79206603539746       63.00316028777142
H           51.32697893618401       45.61365651800062       64.19468555948639
H           52.08538818343259       43.57524680539017       65.44832718780550
H           53.73723803170148       44.18969982801711       65.39569386419065
H           52.49105735639132       45.07582755269578       66.27757449066725
H           54.25425942852568       46.16941345108698       63.64879927619197
H           53.45085492457578       46.89483665609827       65.03798348151358
H           52.28927185083971       47.19645213355446       62.25814354969761
H           51.20539695878972       49.15723868220638       63.25098847623032
H           50.87481322346675       47.74763190641296       64.25343905242120
H           52.08694306164624       48.91865174440073       64.76194236148039
H           54.54089844878811       48.71938956489517       63.58775892072522
H           53.44044858854520       49.56633135136754       62.50717375129604
H           54.92290833929111       47.07814986932454       61.61356050628277
H           52.90611573952100       47.86130157772958       60.32817498150082
H           53.70969431431189       49.41192624864411       60.07079065947499
H           54.37912633585734       47.93298835810173       59.37654613064628
H           56.61565396351025       48.61945605764592       62.33490900045982
H           55.75903895908731       49.99653610153564       61.64730067723406
H           56.25475862117000       49.22822182291520       59.37178969992703
H           57.83941993063937       50.72036788682303       60.57531048825006
H           58.73092060333770       49.31167003926605       61.14811869749003
H           58.66826523338381       49.67968412211827       59.42379456807421
H           70.67921682735795       47.02300220136455       48.95388012640694
H           72.24783077055308       47.08745981809869       49.75545291878905
C           48.12402813410126       59.49550924828246       36.55291569563112
C           48.64792325623004       58.06728048709481       36.70181159842095
C           49.91723679271990       57.89165260629650       35.87204597974493
C           47.54966760196828       57.08030841118661       36.28739882144812
C           47.90320992014566       55.58786474205504       36.36905324716485
C           46.73160004971849       54.77266418676626       35.82183904261534
C           48.23332940852688       55.18782145979498       37.81009076885090
C           48.62843074066569       53.72252806792965       38.04754597725318
C           48.91821556784669       53.54517332469752       39.53703174978790
C           49.83641864072607       53.33801857656781       37.18431761398089
C           50.48514973666168       51.97641621319706       37.47326789371329
C           51.65824045601114       51.78817142641132       36.51159670917081
C           49.47905008952698       50.82745092694514       37.35116312949674
C           50.03973847852855       49.45634280448749       37.77770393716980
C           50.18169087275838       48.52689178308298       36.57252807288694
C           49.15314016507352       48.79428771490732       38.84294438288039
C           49.34598004321355       49.35340941392425       40.25945341617890
C           50.63359742883383       48.81824372631857       40.88022617671420
C           48.14249523240684       48.99182954070432       41.14354723373200
C           47.01114976223965       50.03365675990322       41.10625834842715
C           47.28684507047655       51.12720260104968       42.13606770543442
C           45.67757464788622       49.32539990110261       41.36662561242996
C           44.41939334409997       50.19600745243130       41.49554655056043
C           43.22793505777191       49.25284404196455       41.67405295232127
C           44.24652964562028       51.11900147350683       40.28216280213477
C           42.91200657626218       51.87310434233503       40.20500428926971
C           42.84520861927213       52.67918390365900       38.90746952910393
C           42.62355756669218       52.74773868158643       41.43515603426295
C           43.51477409144925       53.99500982537282       41.62059435017229
C           44.16254074944851       53.98936177888483       43.00416564299766
C           42.65937419915043       55.25268740749031       41.40904877603734
C           43.35432629104272       56.61964861864166       41.48604942422948
C           42.27091349649016       57.69731394494939       41.41328636673963
C           44.38582671322807       56.79352713116878       40.36520283456633
C           45.15312124605971       58.12988974947086       40.41987370717259
C           44.82266844728122       58.99309919449561       39.20242489167549
C           46.67048520460070       57.92357164305713       40.51078335258608
C           47.15086975192424       57.34834626947195       41.85135420686191
C           47.05102786537658       58.39491997906129       42.95570393851842
C           48.59321664153737       56.84974934416292       41.68835374852305
C           49.29673086158256       56.31721168156043       42.94645079503186
C           50.72123252492597       55.91406988950710       42.56558158174662
C           48.56027037395798       55.12338127960223       43.56486565776876
C           49.01050041520898       54.76357280594819       44.99072448303218
C           48.65122561301195       53.30654502769402       45.27790083632068
C           48.35454693743083       55.70270855420192       46.01086152025735
C           48.96896997154563       55.67402441858915       47.41701770342143
C           47.99080081856138       56.30149232257875       48.40948466008200
C           50.31612659232211       56.40695080665790       47.47762929424982
C           51.22018589219209       55.89785122547640       48.60977795122785
C           52.24131139415852       56.96457998820687       48.99963383651121
C           51.93050694903637       54.60420443158286       48.18984382173377
C           52.37903278696120       53.71981193608590       49.36287261392251
C           53.51947896021279       52.81014193547430       48.91103156650120
C           51.19609893817716       52.90545957049066       49.90260503694660
C           51.50720397258590       52.10910938447062       51.18390024685556
C           51.59493496508161       50.61262269803154       50.88238407815739
C           50.45735663195646       52.34052551137797       52.28062968609081
C           50.48796381718316       53.72850241212542       52.93180189610471
C           51.75367362211393       53.90673463819986       53.77032616901669
C           49.26708988776881       53.94799334399108       53.84027507292755
C           47.89463390107758       53.93446975050060       53.15588038414063
C           47.84598824861829       54.91849213131836       51.98664750727431
C           46.76824294077429       54.29192387133788       54.13916523767995
C           46.64494846738529       53.42904271356729       55.40162920667496
C           46.52496340956696       51.94776125506753       55.05922660651078
C           45.41913820288742       53.86683741635007       56.22008859914178
C           45.66558825003315       55.12322868139617       57.06289589151031
C           46.37892024589629       54.74904729534293       58.36093019038976
C           44.36236970382051       55.86430276085575       57.38977226946555
C           43.74077227136892       56.63063635980111       56.21550514790098
C           44.58252823119929       57.85481703323057       55.86160908809165
C           42.31082089412597       57.08121616456722       56.55429351513670
C           41.26635173444760       55.96122923283674       56.52280641458737
C           40.94825691700135       55.53067425793033       55.09246253643533
C           39.99221626315923       56.32885165990262       57.30162609902695
C           39.15826741775599       57.50458184831323       56.76167850145524
C           39.45128049772203       58.79246683465571       57.53147793653184
C           37.65855331597130       57.18341987256753       56.85566448932737
C           37.18386227771092       56.14155427396935       55.83066803746289
C           36.93335230395132       56.80589207881103       54.47909786575583
C           35.93145425202945       55.42434083404929       56.35005735759922
C           35.44918900439900       54.23287350765821       55.50880107088108
C           34.05857990571435       53.81750364209184       55.98817085310598
C           36.43563864866427       53.06309129904552       55.61161918200494
C           36.22025313587601       51.90788419774675       54.62299073909911
C           37.09829196993803       50.72812519821293       55.04084145210087
C           36.53510491821276       52.34157971234583       53.18739639976295
C           36.20596032178305       51.28333600753739       52.13556597837597
C           36.32978819106624       51.84703303488293       50.72535323758281
H           48.87302842033952       60.21344943617448       36.87994464922807
H           47.88047933576075       59.70459180621899       35.51323846507663
H           47.22739869924186       59.64038524295124       37.15094259771835
H           36.11746039719097       51.07987584331937       49.98362299153414
H           35.62763147121493       52.66632234214295       50.58155023130271
H           37.33666651511336       52.22189331455463       50.55529414006034
H           35.95655713911032       53.23740871515999       52.95325337928909
H           37.59320351930707       52.60476970615186       53.11543997794337
H           37.45222546602016       53.43238494272482       55.46599169668529
H           36.37751252987537       52.66799276306135       56.62880334248761
H           35.36517820173956       54.55267559094349       54.46775126742102
H           33.66927385232694       52.99321092718890       55.39654830156028
H           34.09393588976908       53.50671031854688       57.03054960713499
H           33.36244800816780       54.64932130362183       55.90309863580887
H           36.12605305460376       55.06245597495676       57.36355089737210
H           35.12234595546175       56.15632994883130       56.41572029101724
H           37.45072566993721       56.82593970646978       57.86747333726725
H           37.08253869688426       58.10049779935564       56.71425892016071
H           35.17503178676640       51.58608926970737       54.66694468274700
H           36.90191103995908       50.45561494104938       56.07584267023859
H           36.90377143222432       49.85564669588592       54.42329258759219