3864
 energy: -5104.225816151764 gnorm: 0.000899767710 xtb: 6.6.1 (8d0f1dd)
C           52.51260175516305       55.45881499093190       73.67520308710836
C           52.41858055978115       54.10094090113356       73.39411820538183
C           53.57682401344392       53.33462185239201       73.44792499594061
C           54.79243156731360       53.90278390832482       73.78583392617442
C           54.87132398254991       55.25549736448982       74.06993204770413
C           53.72633791458028       56.03179778065279       74.01054435242148
C           51.10962855263639       53.46328273806183       72.99213753916359
C           49.95982284266253       53.88125124346352       73.90931582321248
C           50.84814091534043       53.82392446710360       71.52139587362136
C           49.60573169527273       53.18174724647064       70.88515246553193
C           49.40356677616431       53.77032033857142       69.50923042313627
C           48.23638987348166       54.45959902737881       69.20443764076984
C           48.04321053882352       55.01404730077001       67.95025499399610
C           49.02271819482934       54.89722969984006       66.97989697747224
C           50.19208441851457       54.21654885376098       67.27462931549110
C           50.37954037654323       53.65582439765756       68.52493918942244
C           49.73263961229535       51.65360642934063       70.82437011284205
C           48.55082689866294       50.98704172758790       70.10841817652535
C           47.22208651831755       51.42306602998849       70.67493603430064
C           46.22239001829887       51.89355951595955       69.83258766018677
C           44.99242204644466       52.27872267429161       70.33657460156240
C           44.74045602351655       52.20060712071226       71.69491647016581
C           45.72670216895273       51.72800576901282       72.54441368965414
C           46.95318869416360       51.33989640551358       72.03668270921582
C           48.62334274797003       49.45119442984151       70.18434232014290
C           49.93922225259565       48.83283998793341       69.68601230824522
C           49.88072967393362       47.33494513092702       69.86404292023850
C           49.03610651930026       46.54452025669180       69.09279344160457
C           48.99377408599932       45.17292671784193       69.26466820646426
C           49.79394418301526       44.56477548449183       70.21706006688495
C           50.63272909278952       45.34062938865065       70.99789243828232
C           50.67291955748931       46.71268469570420       70.82076932145904
C           50.23918296996730       49.20654329999739       68.23212772677205
C           51.59584873004828       48.66148565881205       67.76928976872045
C           52.71492635484631       49.27813617932409       68.56826975610609
C           53.51454806338893       48.48644468457153       69.38286768797364
C           54.52551012371086       49.04547500086738       70.14581733452609
C           54.75332037433554       50.41033976775117       70.10385828915199
C           53.97267095932234       51.20960860687050       69.28554005064512
C           52.96603037500145       50.64518168103380       68.52333166117887
C           51.76723136716918       48.91945006331622       66.26831637106500
C           53.13329081850821       48.47525528047782       65.74456780235897
C           53.41400551752536       47.00417770814042       65.93565598343638
C           52.42054210780001       46.03628183102045       66.01799483519562
C           52.74124441033062       44.70332834494478       66.21295001581862
C           54.06454730382383       44.30800122458407       66.30639755650687
C           55.06671085689837       45.25766183288423       66.19430028172870
C           54.73982955668263       46.58910627545266       66.01873299191648
C           53.29018303285503       48.84876327481028       64.25964280818211
C           53.62624607942003       50.33514475064064       64.05160485283962
C           53.25625228388678       50.78404839622669       62.66145541865237
C           53.68223619942220       50.07839825497803       61.54334244354199
C           53.35253487112851       50.50644490478657       60.27099918793236
C           52.61059838537836       51.66017469207372       60.09096212942889
C           52.17454643168892       52.36902702940235       61.19640155116527
C           52.49168517096079       51.92805434985421       62.46938935443528
C           55.11988955463173       50.58610158017222       64.30241757452211
C           55.51458399528740       52.06908915463311       64.41594666045192
C           57.01905462277658       52.14125895961804       64.32380472238184
C           57.63085054382888       52.69834439342019       63.20943203465457
C           59.00809815517822       52.70355610962979       63.07928505094794
C           59.80033731255211       52.16123520143312       64.07490893529392
C           59.20422190391540       51.61830338561123       65.20099022610718
C           57.82667798111249       51.60333558510825       65.32079887992961
C           54.98480182069552       52.70580773386886       65.70956464260965
C           55.58755076375437       54.09272881298935       66.00007742447167
C           55.38144520822024       54.42219055709513       67.45845561552657
C           56.45702892277954       54.42790963004539       68.33765348153712
C           56.27769382303715       54.69332237116500       69.68462284930357
C           55.01320120687926       54.96521222732443       70.17831000170527
C           53.93218480962801       54.96288821307893       69.31271375115564
C           54.11537914280582       54.68816710423503       67.96938188006045
C           55.01308668953075       55.19288454945386       65.09997497497721
C           55.92262027321755       56.43520137697357       65.08263245925114
C           56.96098262027255       56.29944810487177       63.99770764377093
C           56.59868508387350       56.36616888817679       62.65620481576580
C           57.54632619641809       56.24670051395107       61.65693174809629
C           58.87777993653590       56.05379677533035       61.98409368712731
C           59.25145166389805       55.98177494265481       63.31461354186058
C           58.29887080690294       56.10516201539871       64.31155912685163
C           55.12209827362016       57.73390605717447       64.89490587537973
C           54.54163783144462       58.27186476025292       66.21251088513633
C           55.64559937148380       58.69578126977509       67.14609121165033
C           56.50945728340513       59.73419859187969       66.81728920144315
C           57.51580470451477       60.11822347709472       67.68423590090893
C           57.68079905404424       59.46733195984251       68.89562672430488
C           56.82753178397243       58.43123439884764       69.23206115135120
C           55.81806727246381       58.05296164265361       68.36467840277436
C           53.59736433253173       59.44220717516497       65.89808284579185
C           53.12162063882378       60.22159449175155       67.13253359278326
C           52.68173715054673       59.31061557380154       68.25206690346087
C           51.73427233661987       58.31305545266218       68.05031029631557
C           51.33494713293270       57.49145997362677       69.08867695511697
C           51.87714579606723       57.65817465992024       70.35169586762832
C           52.81931097616867       58.64747929025327       70.56749979941081
C           53.21521893438877       59.46591332783963       69.52492775467391
C           51.96210004617207       61.18054421157295       66.79127502581343
C           52.19390521500684       62.04376714524449       65.54332295392724
C           50.93510239537056       62.77062965379306       65.13121529158748
C           50.41860818838020       62.60615306128276       63.85115990991424
C           49.30333663153308       63.30982985287951       63.43283364511134
C           48.67736212467399       64.19028005994315       64.29695168402273
C           49.17166272534423       64.35440592052929       65.57988989870893
C           50.29112009980259       63.65301694015174       65.99064369243553
C           53.33513028796698       63.06017046431045       65.70881616558141
C           53.80919254864727       63.54414233511724       64.32518811349735
C           54.78085012148646       62.53390811555009       63.76631755362184
C           56.10721669301055       62.47928323946213       64.18335258360014
C           56.95227459651656       61.48027712003356       63.73027820414236
C           56.47606477952389       60.49210452079748       62.88586133273589
C           55.16012818680655       60.53635456772201       62.46159656749071
C           54.33139679296906       61.56279057557437       62.87897701114247
C           54.36842422006659       64.96865395317133       64.35131915772205
C           54.53515817742630       65.49401204650736       62.91952470856560
C           53.19533515696945       65.50158426441637       62.22021557125336
C           52.13811970578640       66.27221898393067       62.69082036248808
C           50.89938168723754       66.22442699535881       62.07828993579377
C           50.69603143401262       65.41454066973674       60.97451165300008
C           51.74761386538650       64.66325339801311       60.48127991852530
C           52.98218740280186       64.70441591935804       61.10311522208119
C           55.15945980256606       66.89523864099927       62.88126410513897
C           56.66663723419037       66.95597742668016       63.18714066460237
C           57.05488673600276       68.40648759799075       63.33552365348820
C           56.93166934923536       69.29732921619666       62.27430899226666
C           57.25131009531723       70.63404029856351       62.42863794667416
C           57.70646130934681       71.10502890783104       63.64928118653485
C           57.83690869707782       70.22833843842201       64.71218212010577
C           57.50912256216778       68.89261915313548       64.55463468610560
C           57.49670827240458       66.25707831755922       62.10239130060881
C           59.00945127208345       66.38016452589714       62.32720601085082
C           59.40988475860269       65.81379908524502       63.66659724022384
C           60.02505389054060       66.62119290146146       64.61507474982676
C           60.40963560145033       66.11097732374674       65.84293195849817
C           60.18985795567014       64.77684039122022       66.13903755324114
C           59.58799546553655       63.96017939760458       65.19683772417433
C           59.20166900065572       64.47330717477028       63.97217066873967
C           59.79142866410170       65.65196260910641       61.22073916939286
C           59.79980266553648       66.38535302793552       59.87247403176581
C           60.28126329571503       65.46933975236919       58.77357141072638
C           59.51796723890044       65.29147594805438       57.62783756024093
C           59.95504270756718       64.47477154906288       56.60038444762051
C           61.16435028554154       63.81210267144908       56.70504940108420
C           61.93692542650672       63.98285975805850       57.84233912933291
C           61.50281933279158       64.80922638359073       58.86338322572080
C           60.66238043911932       67.66549663047729       59.90488041516481
C           59.85309952576134       68.96898618088477       59.79405983570386
H           51.23647196109300       52.37890681001166       73.07035131683233
H           50.74479272698384       54.90962388379589       71.44628902287987
H           51.73236450379735       53.53511477115342       70.94847493179118
H           48.72889169123190       53.43570575751185       71.48861871516441
H           50.65658359736375       51.40067000344376       70.30253438968406
H           49.80527496993629       51.25855213874298       71.83827238820527
H           48.57327345047945       51.28604163829720       69.05686664975305
H           48.47425037794914       49.14040151516788       71.22190202618627
H           47.79338343111224       49.04266913920116       69.60282487806049
H           50.75649890297415       49.20586213258225       70.31123135408895
H           50.24161508521220       50.29076518585039       68.12581619493611
H           51.61369974712020       47.58127735239632       67.94769766892800
H           50.96867769732728       48.41533772486122       65.72083545024836
H           51.64494239718304       49.98620572324539       66.07721994027965
H           53.89912434630582       49.01436167108189       66.31406996833988
H           54.08124553860453       48.23512905280010       63.82449138816707
H           52.35909846134943       48.61093668101266       63.74150193638672
H           53.04663189535577       50.92114790358603       64.76930570141553
H           55.42562827178490       50.07235618465766       65.21615937251211
H           55.68837360115216       50.15138702896112       63.47521601986154
H           55.09488502510742       52.60067246177353       63.55538820066759
H           56.66527776866719       54.03233328487792       65.81231735324712
H           54.90984010894542       54.81514548043271       64.08184269363431
H           54.02298215304925       55.47337578457597       65.45842817336538
H           56.43757273789319       56.50178326344251       66.04801297685454
H           55.77779345309293       58.49604101652645       64.47024827639579
H           54.31173500770814       57.57053341839930       64.18208298529318
H           53.97572419801487       57.47701211991258       66.71052038550324
H           54.12516291104447       60.12921657539984       65.23653049620093
H           52.73191002648773       59.06047838672852       65.35522319906828
H           53.96628875353301       60.81107551436833       67.50439937610028
H           51.05784371355909       60.58843955896622       66.62756778969880
H           51.77886070801237       61.81701526808271       67.65996276923535
H           52.46095378654016       61.37170563924192       64.72529251574112
H           52.98235132658921       63.90880648657407       66.29802423721013
H           54.17050675331614       62.60821181322703       66.24546121847526
H           52.92706339974559       63.56959137701417       63.67597171241787
H           53.67175147821753       65.61207430124415       64.89311619208502
H           55.32262277660033       65.00305243846168       64.87709758022950
H           55.18758083637790       64.79836557418169       62.38358295643096
H           54.99227225051871       67.31757182104792       61.88901223051862
H           54.63865615582198       67.53704817362026       63.59626695359533
H           56.85990042606388       66.45545973079257       64.14136481974222
H           57.23647767105520       65.19817969850426       62.08465850788323
H           57.24479567689738       66.68019061352835       61.12968117249876
H           59.28292355733872       67.43970698577317       62.31532610861704
H           60.81957608288686       65.50827383351006       61.56119123848998
H           59.35155658920637       64.66337089315337       61.07661985304766
H           51.63064412863983       56.08085134851893       73.63836288706756
H           53.78004404496652       57.08950106746153       74.22653788651888
H           55.81921371523228       55.70275159044500       74.33305323912916
H           55.68124480774412       53.28917772366702       73.82566195434431
H           53.52741729475350       52.27844570312852       73.22122020520510
H           47.46673504852757       54.55988454901213       69.95784256778440
H           47.12468506589441       55.53991379873127       67.73205712551973
H           48.88044300430255       55.33477719781756       66.00324040010032
H           50.95933458345429       54.12687335218271       66.51932012690142
H           51.29757050548768       53.13049902702500       68.74157756518383
H           46.40690578726154       51.96706522853810       68.76954857044069
H           44.22857727750697       52.64427732486756       69.66585344266097
H           43.78205972900123       52.50400847053508       72.09101360587968
H           45.53806872312141       51.66134056550799       73.60662316617268
H           47.70898952213396       50.96890363176689       72.71388946452235
H           48.40345381098783       47.00199072228024       68.34674342552793
H           48.33391996898197       44.57363447891742       68.65352833954071
H           49.76286674360669       43.49313999853625       70.35150215570795
H           51.25900855517673       44.87548632907376       71.74614433270411
H           51.33487517633260       47.31028432730848       71.43271740967893
H           49.45643209273239       48.81894113043601       67.57902285885751
H           53.34254371189016       47.41902790831394       69.41918897381613
H           55.13604454305010       48.41337593087790       70.77586574193923
H           55.53750614213666       50.85244168854917       70.70193635691902
H           54.15454371723152       52.27405868509550       69.24552472352821
H           52.37084780181588       51.27655575752587       67.88057695519650
H           51.38001739160805       46.31341503351143       65.94515546162913
H           51.95211758193199       43.96796811161519       66.29181192924301
H           54.31467363134181       43.26789595293180       66.46189181256358
H           56.10562709194836       44.96297829274067       66.25059866580857
H           55.53346045568937       47.31981336391679       65.94644308555097
H           54.28385207365508       49.18807563172297       61.66095810587226
H           53.68645066958625       49.93025304874259       59.42193912499180
H           52.37006606706101       52.01289744878130       59.09978004234554
H           51.58419129509364       53.26462561120086       61.05756614463143
H           52.14432369835172       52.47836139864435       63.33257067639261
H           57.02402016688884       53.14277845805157       62.43377257221226
H           59.46343685014210       53.13240331503608       62.19848331556535
H           60.87689142992726       52.16197582725538       63.97796226846879
H           59.81794841883819       51.19877045585304       65.98679502581780
H           57.37838222346834       51.17398767083298       66.20599767119990
H           53.89880852469408       52.79221601025827       65.65645260076374
H           55.21666002329066       52.04865695174940       66.55195089772221
H           57.45030176440270       54.21935604087226       67.96201740377268
H           57.12902791925968       54.69137735662983       70.35134345368681
H           54.86684467720962       55.17578838570648       71.22774441186642
H           52.94359008043614       55.18355179146033       69.68579347244975
H           53.25256086145021       54.68153945488436       67.32051252954786
H           55.56444435492179       56.52110451775202       62.38804691839037
H           57.24433661989071       56.29585515540920       60.62017121842521
H           59.62555541050217       55.96384084162393       61.20834290737485
H           60.28930198641424       55.82792958124561       63.57877842197758
H           58.60153232122524       56.05534963875166       65.34956808501238
H           56.39726097672429       60.25341072211377       65.87715632806730
H           58.17603298180539       60.93126489491987       67.41569469876839
H           58.46832848511455       59.76751566407368       69.57274544209761
H           56.94339826183778       57.91405718728604       70.17434691316201
H           55.15326003174325       57.24925249932967       68.64414622228605
H           51.29915418138307       58.16877371785148       67.07308212801418
H           50.60130530111148       56.71737342378265       68.91059793459615
H           51.57267794850090       57.01915122973222       71.16784738191551
H           53.25011421405768       58.77937083873675       71.54992440519919
H           53.95707461255323       60.23314573908198       69.70146212428567
H           50.89872283268151       61.91890187541771       63.16859719737265
H           48.92247728592834       63.17529896329273       62.43084666258046
H           47.80788940681764       64.74585001627545       63.97515639767769
H           48.68503504688156       65.03681397303080       66.26306389716302
H           50.66704099348004       63.79899451247328       66.99336184726377
H           56.49132656340306       63.21383752019511       64.87672028916361
H           57.98537599566524       61.45416984261443       64.04900432339298
H           57.13073559664000       59.69555595151804       62.56703370408623
H           54.77249779359665       59.76566628676458       61.81469659893991
H           53.31563712848351       61.60133185002290       62.51314975239669
H           52.27660632071068       66.91045831523373       63.55157041458375
H           50.08490528079656       66.81906850171357       62.46901893429996
H           49.72456278965016       65.37510435566131       60.50300245602349
H           51.60536736074241       64.03839271620238       59.61045493007847
H           53.79146438811937       64.09889869240637       60.72168396515578
H           56.57506018962543       68.94789541919144       61.31679072491948
H           57.14956514507304       71.31539514505991       61.59546558349477
H           57.95895261491525       72.14869123572032       63.76871798167835
H           58.19231352570464       70.58627537269167       65.66808642155075
H           57.60989253358456       68.21593940859739       65.39204863593787
H           60.20370450918615       67.66419962436719       64.39121867413462
H           60.88416847916430       66.75559542926212       66.56941342141431
H           60.49019199662752       64.37582633539719       67.09667307220292
H           59.42364238612490       62.91477399320124       65.41729163376490
H           58.74072588499480       63.81738820392130       63.24896458376377
H           62.12449892362809       64.94444290073375       59.73682919834273
H           62.88337446568701       63.46746590783896       57.93218891447623
H           61.51097019645844       63.16284619508507       55.91483692532143
H           59.34185836817726       64.37104218524765       55.71763904959892
H           58.56760701106847       65.79505234438403       57.53307363339730
H           49.66627710649801       54.91231890260621       73.72809743244568
H           49.09090405574968       53.24917465610996       73.74391848749325
H           50.25775948138472       53.78497631875157       74.95157027455977
H           58.76853882065966       66.65684052163481       59.63634900084362
H           61.23602557678714       67.69716283734626       60.83435272398587
H           61.38455369136397       67.63799566091340       59.08544463895532
C           59.17601562109691       69.10069748588630       58.42574329233069
C           60.76911345518749       70.13267259087301       60.08212446119344
C           60.64476379513205       70.84051743543337       61.27112811163752
C           61.48959946711140       71.89672786420812       61.56345880400807
C           62.47989460273619       72.26210131746140       60.66848291336888
C           62.62060801814852       71.55846418721752       59.48412201006385
C           61.77533231502449       70.50231728646440       59.19640444105109
H           59.87350126019185       70.56478669625479       61.97665238543805
H           61.37416322359687       72.43609953723174       62.49278434554320
H           63.13955735085516       73.08784631924709       60.89227070849473
H           63.39472376163208       71.83460695618831       58.78217267104196
H           61.90400207660215       69.96268168446596       58.26961499427215
C           58.34213229599627       70.38245429536568       58.31317871124887
H           59.92528360344891       69.08740315255200       57.63212534663639
H           58.51713444679637       68.24570016113654       58.26286565989938
C           57.60155534577139       70.39809915111502       57.00743565762919
C           56.29420056597984       69.93622826636060       56.92888440909897
C           55.62839139355362       69.89770190609447       55.71620070336000
C           56.26330696273511       70.32300233928721       54.56210072444265
C           57.56696669075760       70.78441089519009       54.62812656052150
C           58.22987591349160       70.81945514671786       55.84178900936566
H           55.79147305108534       69.60817096417037       57.82837875552646
H           54.61335692049055       69.52815151718627       55.66578527958654
H           55.74362327549890       70.30022174996186       53.61471804081651
H           58.06848671733361       71.11629992559368       53.73032735809276
H           59.24721587128799       71.18264272357239       55.88876715928954
H           59.07177668301556       68.95901434856789       60.56167373167503
H           57.63398223407587       70.42169986903862       59.14351312419782
H           59.00061121144351       71.25078549297459       58.38738255150682
C           49.47704755951583       50.01699065489321       59.53945483258934
C           48.20045137313806       49.51112736312995       59.74007736273756
C           47.70482217660557       48.58950407400960       58.82560195184723
C           48.45624432155506       48.18910048988575       57.73856707219063
C           49.72332164212571       48.70698839433702       57.54485180470188
C           50.23181903791434       49.61967316195776       58.44931483678451
C           47.37539005808689       49.91149395503116       60.93930875008846
C           46.00959389776505       50.45375030128557       60.51904716681642
C           47.22373034045032       48.70671317722897       61.88002482424485
C           48.49744314545535       48.45548703305197       62.70749775447458
C           48.52493727387668       49.42151993896855       63.86548579030951
C           49.32002614433063       50.56035417570397       63.81845468476123
C           49.27418946074773       51.50032021202840       64.83350945454674
C           48.44503028121178       51.31066563529924       65.92400031167016
C           47.67410547160318       50.16382222698413       66.00043566654568
C           47.70979542176693       49.23443696189555       64.97655335269084
C           48.56677319593871       46.98475777278576       63.15226409446016
C           49.36715468676724       46.11023940065122       62.16662467946595
C           48.94851949754229       44.66787949383595       62.29784591548514
C           49.15810276828587       43.95898954193581       63.47627679785722
C           48.76839662606896       42.63661297411550       63.58649148017364
C           48.15676128659066       41.99847229870463       62.52031334798207
C           47.93570285451372       42.69404274413643       61.34424509729470
C           48.32917253757944       44.01685508757042       61.23776500637828
C           50.86932587835962       46.29600595372630       62.42416192493344
C           51.78249056214604       45.29036925461297       61.71281281577213
C           51.83689160788563       45.47930312147943       60.21942392504903
C           51.48888189626839       44.43295763818445       59.37379618801049
C           51.61411152505776       44.55325959109448       58.00072224255193
C           52.08351213155033       45.73299375061256       57.44849610716767
C           52.41967425970655       46.78657361662361       58.28084290586646
C           52.29588163392043       46.66258208136460       59.65270215114078
C           53.18963830341718       45.40389157217952       62.31776708591855
C           54.17707182261993       44.36534660541447       61.77991482890033
C           53.68822044164292       42.95046264898484       61.96099966935827
C           53.69968996133531       42.06213598194243       60.89374429005996
C           53.32671740010481       40.73948558403903       61.05482833741689
C           52.91450833802111       40.28609642379153       62.29514606555578
C           52.88595946679992       41.16310197564265       63.36616511743841
C           53.27529355665810       42.48030064970499       63.20196044599770
C           55.53373519199067       44.51016056421889       62.49260595532912
C           56.39457599648401       45.67345234242782       61.96979200275570
C           57.38123439959989       46.08040843057557       63.03319828180916
C           57.34104908206440       47.35626187108102       63.57889874987340
C           58.23783824806244       47.74545748251276       64.55796147771967
C           59.19208585670061       46.85274199207127       65.01329762854074
C           59.23726574853850       45.57384150096989       64.48379730764597
C           58.34028658565323       45.19124227073762       63.50359634413339
C           57.09913818061422       45.27555065820355       60.66735758024911
C           58.11040952164144       46.31483100947438       60.16913601318866
C           57.47156933261159       47.63914391843176       59.83709694951182
C           57.81947631534450       48.78557931079891       60.53988536408377
C           57.30824641793656       50.02207628427323       60.18394275353172
C           56.45488466003167       50.13408015307800       59.10095429581454
C           56.09321554562268       48.99531379092024       58.39991719515689
C           56.58760070726638       47.75855084824361       58.76990721967221
C           58.83913984227999       45.78953780770402       58.92267141573941
C           59.94619888707895       44.77695872561959       59.24302251002799
C           61.07552884105162       45.44184213719891       59.98395289686474
C           61.85649578527565       46.42618925287380       59.38930641169730
C           62.88425510050950       47.03097857923149       60.08725250539275