3864
 energy: -5104.070678562897 gnorm: 0.000754970072 xtb: 6.6.1 (8d0f1dd)
C           52.47988071827516       55.46250499646831       73.64926078913254
C           52.38532165761016       54.11232527968125       73.33499880685928
C           53.54615830373510       53.34813837273214       73.34534813944178
C           54.76588648520519       53.91098685610178       73.67623377716522
C           54.84576564780104       55.25581957913872       73.99553352263450
C           53.69830171409404       56.03000778031739       73.97723906125789
C           51.07272932047024       53.47897161140435       72.93708435182000
C           49.92181431347566       53.90253083242298       73.84963192561219
C           50.81535096873957       53.83796258637958       71.46531699242246
C           49.57637282437795       53.19347419330646       70.82518395543104
C           49.37975962985300       53.77750087746363       69.44654546011837
C           48.20450504448950       54.44607585074125       69.12672642326362
C           48.01737658857166       54.99660443421779       67.87008896716202
C           49.01211881374266       54.89966835448766       66.91305695338863
C           50.18917220137849       54.23889771720447       67.22229295169653
C           50.36960920491214       53.67950443214300       68.47426004814321
C           49.70606861416941       51.66533675474295       70.76780820121455
C           48.52387157143005       50.99378561713928       70.05649194341046
C           47.19637614221528       51.43350156200330       70.62354630058604
C           46.19706616490171       51.90525674586608       69.78161757493672
C           44.97113983877542       52.29985192227242       70.28824925175864
C           44.72379707892981       52.22951489221663       71.64760210975440
C           45.70952997717074       51.75473758541612       72.49604072270316
C           46.93187149992949       51.35694100186530       71.98636357445631
C           48.60012762911402       49.45837333585473       70.13909317322455
C           49.92060364704418       48.84464856502969       69.64897622779685
C           49.87456318015977       47.34546636480423       69.82063346739906
C           49.04347549613149       46.55073993659121       69.03953194829478
C           49.02391241257327       45.17685409202674       69.19627832951308
C           49.83169160627674       44.57200439937503       70.14392960220550
C           50.65485145283295       45.35269093549736       70.93603006003259
C           50.67385925939481       46.72673328034541       70.77344082054147
C           50.22784607908566       49.21897000850017       68.19659528758379
C           51.59027042880194       48.67859975467762       67.74568782156592
C           52.70056175131967       49.30818143452867       68.54740971877096
C           53.49988947509992       48.52665116617454       69.37200962176195
C           54.49713422559572       49.09883009517620       70.14304082718132
C           54.71154217289796       50.46564720128223       70.09905428073277
C           53.93288559920266       51.25409235004078       69.26880367300861
C           52.93950959154427       50.67707126370337       68.49828616731936
C           51.76694438377279       48.92565731873903       66.24392205958964
C           53.13419389066911       48.47620997437939       65.72828147099196
C           53.40983423385945       47.00319274930980       65.91802667861025
C           52.41333924402665       46.04021625825340       66.01790268809432
C           52.73209114265720       44.70640447877713       66.21201877391380
C           54.05516925210794       44.30638121767355       66.28526679272956
C           55.05955148564838       45.25148904348847       66.15561229232736
C           54.73545996119957       46.58401363815136       65.98258655170825
C           53.29925060533084       48.85190791377162       64.24505170552567
C           53.63329630367285       50.33955615272492       64.04165120424173
C           53.26104272898451       50.79177749412558       62.65364084250147
C           53.68674358012787       50.08949143370508       61.53309387163830
C           53.35357093632931       50.51868353143372       60.26210875619972
C           52.60849105515407       51.67093599554224       60.08513258070974
C           52.17298968837599       52.37678035043897       61.19282144484300
C           52.49338471196532       51.93433606360026       62.46450480445874
C           55.12660026009818       50.59078586860633       64.29260231344367
C           55.52160772159148       52.07309773253083       64.41002607952420
C           57.02688793662639       52.14084087955344       64.31747589308516
C           57.63798359726106       52.68055605487043       63.19452625623975
C           59.01502677153056       52.67690324168251       63.06133890869976
C           59.80600939256869       52.14349650669701       64.06255564776879
C           59.21003729665998       51.61832839063229       65.19680810651373
C           57.83271244161643       51.61119558104026       65.32006830857040
C           54.99094609582757       52.70744832331575       65.70449532705859
C           55.59649520744452       54.09226262070347       65.99729027739703
C           55.39648627661366       54.42213251533412       67.45671346683740
C           56.47633730512704       54.42342042732580       68.33050665944663
C           56.30426686179820       54.69546834899939       69.67687682634907
C           55.04393240867050       54.97820745516979       70.17466822731728
C           53.95837384166371       54.97666721059309       69.31487781131469
C           54.13374843150284       54.69550412160196       67.97145238886746
C           55.02235741434063       55.19549061689468       65.10066289645154
C           55.93549618626264       56.43521153307516       65.08692880150046
C           56.97909870340237       56.29025042373453       64.00811058641662
C           56.62629480850264       56.36073959018093       62.66441069283160
C           57.57898726080384       56.22601514934759       61.67144625897559
C           58.90512973385598       56.01343517364549       62.00763207910556
C           59.26880362649327       55.93795022898444       63.34079028008281
C           58.31195058045613       56.07691752248255       64.33119721332774
C           55.13996292513939       57.73605805757780       64.89579569060861
C           54.55044166527311       58.27116776032829       66.21089685926690
C           55.64964410650578       58.69719167705294       67.14995781584396
C           56.50577707846385       59.74400437042286       66.82884631078241
C           57.50698429468913       60.12976939918195       67.70107739827880
C           57.67338315993546       59.47184140824528       68.90819286611426
C           56.82798405568944       58.42685674530949       69.23599390391736
C           55.82340947844132       58.04662907341955       68.36391432112586
C           53.60319886406887       59.43804396880611       65.89273702191012
C           53.11640215834275       60.21458210760215       67.12533703923874
C           52.68369186145393       59.29918588775481       68.24457222414178
C           51.72775926601483       58.30890622543307       68.04802201620501
C           51.33541278016617       57.48460979828941       69.08724508279093
C           51.89593589839049       57.63984456996412       70.34371767350903
C           52.84941402037991       58.61960309855279       70.55262816356907
C           53.23619126881413       59.44270554596829       69.51061620226365
C           51.95058056772750       61.16346505043240       66.77835226559479
C           52.18286166114292       62.02496106463752       65.52939092020675
C           50.92211357787724       62.73823768640113       65.09973666401280
C           50.41637685472099       62.55311590768386       63.81816041996539
C           49.30443562645961       63.24994327452665       63.37969348655419
C           48.67045856076835       64.14248872769392       64.22541650396191
C           49.15211529562335       64.32394048756478       65.51063865956735
C           50.26869122867841       63.63039419288926       65.94146546086650
C           53.31244082286421       63.05295784044948       65.70277705971455
C           53.78794274731706       63.54181534407721       64.32177092838771
C           54.76094635396139       62.53378589264237       63.76167517611217
C           56.08486361557798       62.47453941070263       64.18586623016664
C           56.93018270255173       61.47519120582096       63.73456109691499
C           56.45563892003385       60.49039560915499       62.88525440443860
C           55.14249762460924       60.53977440230756       62.45311353214585
C           54.31386914974414       61.56754263359315       62.86768147991082
C           54.34704482810771       64.96617700092614       64.35174329368850
C           54.51484836519373       65.49212701318626       62.92030620014494
C           53.17541465450534       65.49709552579228       62.22037393604972
C           52.11497070725974       66.26304506187410       62.69140140789447
C           50.87594601174381       66.20856279316546       62.08036767995193
C           50.67517603097909       65.39623240791319       60.97785260444721
C           51.73007728646921       64.65036505661817       60.48345375170337
C           52.96524134444885       64.69858224338930       61.10365778563687
C           55.14000765671364       66.89299509839509       62.88261246298834
C           56.64805621365576       66.95137594903113       63.18276305420163
C           57.04376354564033       68.40135256546257       63.32070529589824
C           56.91616712907108       69.28660310992392       62.25551187339447
C           57.24901165603245       70.62137391655673       62.39860415228148
C           57.72184017731114       71.09472437454859       63.61135149977435
C           57.85536540617380       70.22347093543821       64.67805970803276
C           57.51414212803116       68.88990493804334       64.53247430373868
C           57.47400083725805       66.24494389623928       62.09933478919638
C           58.98739807219394       66.36104337281945       62.32475421464984
C           59.38228133340439       65.80088088871973       63.66878929025926
C           60.00110182061687       66.61141642613330       64.61190567642022
C           60.37784190284187       66.10729323050016       65.84448182630550
C           60.14669153837210       64.77740410438115       66.14991056399111
C           59.54221371364343       63.95743315618411       65.21256124918095
C           59.16341176143662       64.46420824646734       63.98269306904415
C           59.76742381858623       65.62242039634056       61.22421876650555
C           59.77704799021343       66.34375061290504       59.86975857640606
C           60.25972404111133       65.42314443406241       58.77500518009279
C           59.51572617584645       65.27489763972935       57.61227649127576
C           59.95661278667837       64.46271684939458       56.58283972798343
C           61.14949695510855       63.77348326296096       56.70336432479549
C           61.90099831876877       63.91179583485052       57.85889480948064
C           61.46464041299642       64.73553051031874       58.88103032427448
C           60.63939291000717       67.62457370992315       59.89315755617157
C           59.82980327788412       68.92704414063049       59.77495204337996
H           51.19564327860946       52.39417920332485       73.01729725734070
H           50.70943741200671       54.92312965803362       71.38861819739553
H           51.70160529086908       53.55003294309553       70.89516117463216
H           48.69637752935489       53.44713031084068       71.42354463424627
H           50.62992205663234       51.41367383917103       70.24476966197140
H           49.78138897529372       51.27299437813413       71.78248101219290
H           48.54539526374399       51.28805621491442       69.00328724411078
H           48.44834160727488       49.15114995837776       71.17708381306518
H           47.77426535693596       49.04468133255647       69.55529462915619
H           50.73291751207726       49.22267138253945       70.27750358089155
H           50.22636723183695       50.30313661457917       68.08597270941200
H           51.61309052595601       47.60005257768814       67.93069577288279
H           50.96967385734099       48.41964084022063       65.69521211000901
H           51.64532460684264       49.99152646690659       66.04414331685760
H           53.89787604782784       49.01367010195330       66.30208731766749
H           54.09401419403962       48.24156835521584       63.81209239819592
H           52.37153866765035       48.61339277081505       63.72025265025569
H           53.05243757191904       50.92371632849477       64.76013571321349
H           55.43042523794752       50.07484145344498       65.20537421519930
H           55.69344319214130       50.15814926406358       63.46366185790758
H           55.10189473664361       52.60705369561175       63.55030848233900
H           56.67245473179237       54.02948353348943       65.80364965535404
H           54.91540329058189       54.82181333251314       64.08057194008326
H           54.03178467289144       55.47663135486745       65.45928410872303
H           56.44401082643497       56.50107472002345       66.05494880318044
H           55.80127689961933       58.49760465221253       64.47854542391956
H           54.33580066758914       57.57776696885738       64.17342260667806
H           53.98288421120555       57.47376150130728       66.70293817168752
H           54.13182362655446       60.12671581293228       65.23305843034852
H           52.74223520076939       59.05380498225156       65.34312407413962
H           53.95567917835001       60.81103078034030       67.49696966140051
H           51.05138986248792       60.56460817576566       66.61121054591877
H           51.75932878884664       61.80116183703562       67.64396764557844
H           52.46461848939209       61.35291005580041       64.71582040253205
H           52.94718074936509       63.89809273806507       66.28870413180006
H           54.14973938335629       62.60900806460947       66.24258920234490
H           52.90704343344422       63.56726676349738       63.67086039786681
H           53.64913902676246       65.60838654578006       64.89256249222585
H           55.30127451960114       64.99937733529775       64.87706843458419
H           55.16720968626792       64.79603719780451       62.38407404144005
H           54.96932627862056       67.31656875086216       61.89140722489983
H           54.62233933827771       67.53363881506934       63.60056301353156
H           56.84288152167196       66.45401732234193       64.13814258813063
H           57.20828029108993       65.18680522443753       62.08203833598357
H           57.22299401269890       66.66649677409445       61.12501546360823
H           59.26497078491406       67.41922715783696       62.30545674205761
H           60.79490184061862       65.48088342084178       61.56660112258026
H           59.32526361809717       64.63328633947306       61.08902495084988
H           51.59523253543296       56.08176352385115       73.64552312362284
H           53.75239169929954       57.08150656046534       74.22058289539137
H           55.79663133935662       55.69873247240273       74.25405789432689
H           55.65656854627532       53.29925935836196       73.68241663730493
H           53.49419671212804       52.29853379813506       73.09016518039590
H           47.42466155965115       54.53338390215809       69.87010702980815
H           47.09284387262660       55.50502637535875       67.63829218049131
H           48.87699649242610       55.33718473510397       65.93541742227269
H           50.96866264489810       54.16411123050399       66.47709248267077
H           51.29390916470593       53.16946572843483       68.70046228963871
H           46.37981380618992       51.97333165526396       68.71782889273170
H           44.20782880282811       52.66673495932441       69.61808457402289
H           43.76900044076544       52.54117240373022       72.04508764661193
H           45.52438635793700       51.69369513009337       73.55889110614478
H           47.68828358023672       50.98410006492616       72.66185294997896
H           48.40499317117497       47.00647801999103       68.29667560824591
H           48.37478712003615       44.57460588122174       68.57659053984973
H           49.81777770393953       43.49888193127642       70.26566496670975
H           51.28612672777781       44.89037402919526       71.68112691740421
H           51.32418782974842       47.32973980007653       71.39202940332058
H           49.45143140306333       48.82713440976127       67.53784593520555
H           53.33661516947532       47.45843682470550       69.40836170060871
H           55.10670810532777       48.47490415371966       70.78082607020615
H           55.48362572952833       50.91951245910238       70.70286611536550
H           54.10425034610071       52.31969263400944       69.22464688252437
H           52.34442258962224       51.29976318399291       67.84585903183699
H           51.37271485502463       46.32146874250775       65.95998207864530
H           51.93998762931697       43.97669736335884       66.30703644830950
H           54.30283205631855       43.26624281180422       66.43962145196903
H           56.09757969505810       44.95411336210952       66.19694521962147
H           55.52907963762778       47.31279930975151       65.89693392959816
H           54.28999089485358       49.20042630637942       61.64723716730273
H           53.68665411483256       49.94485649412471       59.41132223958988
H           52.36501002409799       52.02543595185315       59.09529871101310
H           51.58039716924650       53.27109464994064       61.05550469518604
H           52.14556161731365       52.48266745621570       63.32890700641079
H           57.02964896503568       53.11773708691540       62.41579472738554
H           59.46821610780131       53.09178075115899       62.17326019039167
H           60.88133730008303       52.13719346621387       63.96227721320606
H           59.82191249912020       51.20568279632517       65.98646543137555
H           57.38174655210221       51.19510260575701       66.20977833430582
H           53.90429036304096       52.79524389005573       65.65034779756083
H           55.22005657751187       52.04793721639828       66.54554660448542
H           57.46478582476109       54.20669441022393       67.94898622771866
H           57.15791796493353       54.69087840052585       70.33906875419871
H           54.90230821304792       55.19743109815646       71.22192338678721
H           52.97217235174828       55.20353915193601       69.69000933149646
H           53.26812850738975       54.69037320634618       67.32524007523050
H           55.59557646062522       56.52932197396868       62.38820211545386
H           57.28230937556614       56.27915704689914       60.63275325737485
H           59.65432615341655       55.91206723795038       61.23537728349739
H           60.30151419727896       55.76944142074903       63.61097705859783
H           58.60463781465621       56.02489373359973       65.37067639044891
H           56.39036267634091       60.26697214582019       65.89123853635373
H           58.16041865189833       60.94972119501479       67.43813149307987
H           58.45658678392702       59.77399402596283       69.58838914442434
H           56.94428601610024       57.90401371143216       70.17410660118827
H           55.16264822235392       57.23725135498956       68.63377679297595
H           51.28009709824953       58.17221642072862       67.07468955958610
H           50.59243198803281       56.71852290528541       68.91298020234809
H           51.59613917587882       56.99927812947134       71.16000408109620
H           53.29479777089486       58.74084225559576       71.52912051412966
H           53.98463240073077       60.20403056785267       69.68018783996558
H           50.90348012370337       61.85572728277970       63.15026882947981
H           48.93434270336184       63.10052727428501       62.37584976525210
H           47.80458180136587       64.69234675450784       63.88625573335607
H           48.65828748018294       65.01401864640657       66.17977688543147
H           50.63595456675947       63.78883911303581       66.94509063680876
H           56.46520828702945       63.20581696841300       64.88409846876428
H           57.96073908041944       61.44426131803899       64.05802104314743
H           57.10776026278202       59.69182937253806       62.56748806427225
H           54.75584683697540       59.77102312649412       61.80291291332979
H           53.30045059776088       61.60953078209823       62.49513708486503
H           52.25262372774004       66.90190002289017       63.55110085132075
H           50.05929315919077       66.79888591299715       62.47076400730601
H           49.70423108342094       65.34997390907229       60.50671800951078
H           51.59188910996244       64.02394286321339       59.61268066732078
H           53.77689207602405       64.09617513871700       60.72134421617184
H           56.54688724600506       68.93374219019142       61.30353367034640
H           57.14384163394769       71.29753089884234       61.56183443631826
H           57.98513267990349       72.13635034468614       63.72090352920053
H           58.22357780411583       70.58331693855617       65.62786767441897
H           57.61672029290327       68.21621268027100       65.37162668035141
H           60.18840974481409       67.65046431562104       64.37836977007593
H           60.85520735315544       66.75380158847121       66.56665921430036
H           60.44057209938853       64.38125027313444       67.11096443025518
H           59.36925113623220       62.91509319989255       65.43928311361245
H           58.69971947903470       63.80729990426625       63.26170151244625
H           62.07098126098075       64.84755922037405       59.76781424264124
H           62.83267832642869       63.37380925282027       57.96083403161364
H           61.49777767814237       63.12802755597982       55.91131867262357
H           59.35915092488548       64.38456842404058       55.68650026994239
H           58.57753531385539       65.79877776645625       57.50540600036913
H           49.62552071953994       54.93108000709585       73.65851466453418
H           49.05395818464131       53.26717074888254       73.68982310184718
H           50.21972930544727       53.81640984119156       74.89267730141660
H           58.74545581434892       66.61306996739766       59.63020991540147
H           61.21329723470591       67.66115838963418       60.82209595658514
H           61.36011042409448       67.59152460748399       59.07278894419323
C           59.15420443329610       69.05041189162165       58.40505712291383
C           60.74624905883638       70.09149863760118       60.06021099586774
C           60.63593043205474       70.78596715508237       61.25817155276837
C           61.48093173439362       71.84235189218991       61.54862237306623
C           62.45681434506785       72.21988222503620       60.64332893449708
C           62.58381180477969       71.52850348622097       59.45057484197326
C           61.73851003056672       70.47218539130488       59.16399959795822
H           59.87634398845130       70.49884184205443       61.97160878394720
H           61.37599227918444       72.37146788753083       62.48479200555806
H           63.11635158916553       73.04575988625865       60.86574010210958
H           63.34683443508163       71.81346584919829       58.74038575690675
H           61.85567361490087       69.94104375432225       58.23078757322209
C           58.33656223061704       70.34085524913907       58.27503807828342
H           59.90320251593902       69.01597931932294       57.61190025497682
H           58.48416557557069       68.20140874123480       58.25292891641516
C           57.59520675692669       70.34727622736362       56.96953565633800
C           56.27576184424579       69.91980436752191       56.90123056977382
C           55.60755272954216       69.87575847132908       55.68978850761786
C           56.25246804354839       70.26076290250411       54.52716443251376
C           57.56923085358973       70.68477119220087       54.58288518919712
C           58.23419720611630       70.72564442745866       55.79498938961440
H           55.76482045900994       69.62399742944770       57.80765852240847
H           54.58301857856603       69.53274326035891       55.64809982753951
H           55.72950533380708       70.23621382806131       53.58179621825622
H           58.07877071013182       70.98271628747531       53.67828698298906
H           59.26125143237092       71.06010153665208       55.83460925909738
H           59.04661321686016       68.91978075390240       60.54113414667870
H           57.62965540420232       70.40090451472400       59.10549476897437
H           59.00651020613449       71.20098326113339       58.33639377436652
C           49.47904299163492       50.03235881436991       59.52228168235550
C           48.20367575530015       49.52229549471905       59.72151710084890
C           47.71215323364527       48.59906130748890       58.80627158717473
C           48.46516645656696       48.20246036219650       57.71899107116411
C           49.72950664278872       48.72724583338226       57.52472064170352
C           50.23477482161724       49.63987248454366       58.43112335602007
C           47.37493331158260       49.92111430734369       60.91888357288992
C           46.01156728384250       50.46613264052077       60.49333944965117
C           47.21785891470249       48.71558040962491       61.85785110552278
C           48.48812740231570       48.46351236531343       62.69065176562061
C           48.51401726257719       49.43324941110276       63.84597556808190
C           49.30926467984430       50.57189333222594       63.79504631332328
C           49.26039525128748       51.51677933968908       64.80550349340737
C           48.42824329583033       51.33215076656195       65.89460158228798
C           47.65878424352253       50.18469594929146       65.97550917427442
C           47.69731258770958       49.25020566127719       64.95641399795647
C           48.55252154093840       46.99271586561748       63.13650126184478
C           49.35710564330957       46.11953971759618       62.15330925477215
C           48.94416825124649       44.67453996633512       62.28053041394394
C           49.17668504333431       43.95689860271228       63.44918523985608
C           48.80112758819156       42.62982274890102       63.55114220124013
C           48.17906981340197       41.99735020417805       62.48787868931984
C           47.93249848080329       42.70277166908117       61.32283480332755
C           48.31340685388482       44.03008834719064       61.22318843680545
C           50.85796656387620       46.31066554092158       62.41540653063606
C           51.77384737151213       45.30674039516959       61.70561407788027
C           51.82441543530859       45.49612944577515       60.21232205629676
C           51.47009224154252       44.45117706172503       59.36739590156546
C           51.58793224010917       44.57302886589719       57.99391117043034
C           52.05569465621591       45.75284947981181       57.44018824996894
C           52.39978800034273       46.80436307419216       58.27214564739910
C           52.28358302857895       46.67886256684152       59.64446248870961
C           53.18109291603899       45.42259972603290       62.30875055519050
C           54.16567903264824       44.37996478466422       61.77285371465711
C           53.66940687190385       42.96773807019483       61.95782938092855
C           53.67751970072392       42.07661911841883       60.89282562927027
C           53.29065956354059       40.75793889421828       61.05575092697469
C           52.86689017005036       40.31280553200196       62.29515851755440
C           52.84254468030917       41.19283635373481       63.36358614093434
C           53.24694152265277       42.50525564506098       63.19840644379356
C           55.52348800719682       44.52703489937775       62.48272177318977
C           56.38044911262160       45.68976632476510       61.95304102439825
C           57.37555357554866       46.10676306084784       63.00531147314165
C           57.34930495797968       47.39340460531821       63.52542754802551
C           58.25955828373620       47.79519170749678       64.48698790788816
C           59.21218881160431       46.90408067807699       64.94845472080581
C           59.24302292670333       45.61476950477405       64.44433137156109
C           58.33256996934053       45.21902586209784       63.48177976596862
C           57.07935094820694       45.28695002885350       60.64858166365198
C           58.09304397641237       46.32098251500892       60.14516457774093
C           57.46197958797855       47.64922120100851       59.81508861138199
C           57.83953754518622       48.79784106912973       60.49918030860025
C           57.33514338968207       50.03684758961239       60.14294750977876
C           56.45832904010557       50.14912970035743       59.07872277775579
C           56.06838099852241       49.00839248172272       58.39588374254738
C           56.55669602267786       47.76905413297047       58.76611316873494
C           58.81338247208708       45.79004852780642       58.89613119186898
C           59.92279093977980       44.78104714973338       59.21919166018879
C           61.05848856739179       45.45595080497524       59.94247797671589
C           61.83213095612436       46.43286847096915       59.32708142413129
C           62.86809340151024       47.04434296716703       60.00698283447740