3536
 energy: -3716.283821297788 gnorm: 0.000718948865 xtb: 6.6.1 (8d0f1dd)
C           54.22976017481990       63.55764520642888       58.40020779207297
C           55.12441747330306       64.37225501173207       57.46909046226298
C           55.22189628511425       63.67560885320066       56.11481757749809
C           56.50020843551130       64.55653665343242       58.11933506804215
C           57.46299776761938       65.51467236239404       57.40541058192045
C           58.85424790007656       65.37528487775504       58.01987340335802
C           56.96636008781059       66.96144825885914       57.50662910843387
C           57.79980101979299       68.00786760365521       56.75395124319776
C           57.35118287089277       69.40503501475025       57.18312106591620
C           57.66022078461966       67.82874041844573       55.23889223750029
C           58.70347988368203       68.55293130650234       54.37783749530286
C           58.24470649342916       68.50648853253675       52.92160953460922
C           60.09047314652339       67.91682214593263       54.52345078376861
C           61.21837446185869       68.70822182462732       53.83305730547168
C           61.82237551270631       67.90186293796691       52.68435480610746
C           62.32200595547872       69.10058374879014       54.82380923078554
C           61.89512901079782       70.16821091928304       55.83950988720032
C           61.89968410833794       71.55505072270978       55.19676896104749
C           62.82631136588322       70.16633735150313       57.06055575085321
C           62.57651018077474       69.02458976037656       58.05541785071510
C           61.30390195436782       69.27646581409681       58.86183732230540
C           63.78118761055024       68.87318001255110       58.99579182714213
C           63.80864646627232       67.55042528295610       59.78360559229712
C           64.09029374582241       67.81061284467374       61.26368692214904
C           64.85934254976381       66.57480306623003       59.23717561280370
C           64.60983210506039       66.07328296438257       57.81089052482538
C           63.39329615536209       65.14854136610055       57.76326994703398
C           65.82464995076340       65.30452246782177       57.27014387726040
C           67.12622651547829       66.09832081637408       57.10536149082132
C           66.92647431107589       67.33846266933912       56.23333247883749
C           68.21788973032321       65.22394849161709       56.46917556441145
C           68.64441955878952       63.97632209119915       57.25576413496596
C           69.22191504248399       64.34843473955395       58.61815194945342
C           69.66362413322112       63.19688364448150       56.41454283125895
C           70.09923438650773       61.83029017663012       56.96287249330381
C           71.07317634890964       61.19400695633685       55.97196829076025
C           68.93532986752520       60.89390130090677       57.33168423282119
C           67.85500929897172       60.63576473810558       56.26489746179747
C           66.49618108273022       60.50340505475061       56.95378396423603
C           68.15251138377467       59.37671478124894       55.44055635922806
C           67.19469644810044       59.18001867528961       54.24857177544296
C           66.31564232425865       57.94750423688896       54.45951718317470
C           67.93741752240662       59.04942241991713       52.91155545419872
C           68.65685340730657       60.31377963268510       52.42522503485118
C           67.66838980448185       61.44946369982483       52.16284491332406
C           69.43139858505329       60.02866401286528       51.12925832112927
C           70.72115290091358       59.20791698062260       51.27205105719546
C           71.82953995938882       60.04017384283890       51.91276310959782
C           71.14420215850677       58.71684424622117       49.88077270266668
C           72.24265623124370       57.64598850514884       49.82245753396819
C           72.67794107885686       57.48529639949339       48.36544896867227
C           71.74538535058461       56.31728856383790       50.40312647230245
C           72.80862120416995       55.20308950486146       50.46038534766797
C           72.51169131388183       54.11194869667358       49.43229666630549
C           72.89888148686322       54.59589061453316       51.86798061887306
C           73.65625185287686       55.49582581437875       52.85458918384867
C           75.16284001505674       55.27769838184299       52.71251125508233
C           73.23636004345286       55.23039816702241       54.30652737947257
C           71.88685551922393       55.83860221302584       54.71035488850453
C           71.97535509642866       57.36006444602261       54.80618107667414
C           71.43177799230689       55.25452683103741       56.05568413901950
C           69.94395378478963       55.47191582647101       56.38530600340804
C           69.78071417684322       55.91721897364737       57.83886214684192
C           69.10874318398510       54.20499597039014       56.15631083071165
C           69.11443726120321       53.65493129393858       54.72458362375161
C           68.44492734494563       54.62321489088897       53.75453578084615
C           68.41259483552598       52.28909625671291       54.71395328929641
C           68.33255980668848       51.57637161444791       53.35560638028149
C           67.60826177758121       50.24318608611583       53.53726657654710
C           69.73312331812377       51.37567759106381       52.76958470625546
C           69.82266098644725       50.71895327653085       51.38595190335828
C           71.30188472029667       50.48072627211781       51.08276432606427
C           69.17383730017949       51.59512202744342       50.30932383923034
C           69.04505575969311       50.92543112704779       48.93600179829092
C           68.80965103947236       51.98583999586352       47.86030482142188
C           67.90933099025352       49.89025084108800       48.91343594483170
C           68.23418288263471       48.63352363315315       48.09074026729844
C           66.94681573443579       47.99042258729807       47.58260387754644
C           69.05914992023081       47.66689976265397       48.95041506531121
C           69.39816234193535       46.29762208705888       48.34355023983414
C           70.23255215896241       45.51780015812818       49.36055555647248
C           70.13430692255683       46.43729338941112       47.00651246431602
C           70.46034820891195       45.12195840585456       46.28243928024961
C           71.41106405383445       45.41747399502673       45.12166764355187
C           69.18497580627989       44.43655212115579       45.77704833968390
C           69.33961638084915       42.96212391437481       45.38164783969571
C           68.07968836761455       42.50069537658793       44.64789329643639
C           69.65989845128836       42.03420123882955       46.56452580421505
C           68.59732534083132       41.96621792544745       47.65969085946195
C           69.01205484546028       41.01547285269996       48.77649853613421
H           54.16241853465947       64.02214019806266       59.38140010557303
H           53.22605926901805       63.48079279732298       57.99276813126826
H           54.62583987668857       62.55257017340342       58.52174211628050
H           69.16052865918174       40.00944865979569       48.38908576414373
H           69.94249376952851       41.34371191406183       49.23586569200533
H           68.24643788326632       40.97477929789056       49.54764978692512
H           69.81344577106434       41.02578572690172       46.16854270970435
H           70.60693647956735       42.34306392536100       47.01372157600711
H           68.40905232671615       44.50254028294246       46.53816328900244
H           68.82628066476541       44.98668734522657       44.90310074400008
H           70.97810335792356       44.45714088988943       46.97762019852794
H           70.95146963916292       46.11179194743807       44.42036245756510
H           72.33449899247583       45.86294732774461       45.48645973429449
H           71.66700910596698       44.50850092082816       44.58289504348777
H           69.53714706398992       47.04979063801495       46.32845868491427
H           71.07059201950170       46.97188132565542       47.19022562633790
H           69.99442432077358       48.16037537768088       49.22506867420390
H           68.50725008048518       47.48578005697348       49.87745180314280
H           70.17886611812409       42.87566046341062       44.68071851095734
H           67.19477050102904       42.68645922197251       45.25078447588481
H           67.96846081966892       43.04151469744839       43.71036627369962
H           68.13008477974564       41.43734902450456       44.42292447165787
H           68.46206089506300       45.75354782294130       48.18702988877595
H           71.21564220919329       45.97002189175781       49.47688419973966
H           69.74201354808055       45.52294229022562       50.33175195702000
H           70.36262843253941       44.48200487373405       49.05842084431651
H           68.83161262368195       48.93751276582160       47.22534294447734
H           67.15995276521753       47.14049901468979       46.94001810801385
H           66.33957214855604       47.65379787228660       48.41888774195968
H           66.36342971180146       48.70741000822347       47.00896824393446
H           67.65997271701839       49.58382952662434       49.93075160331452
H           67.01798399119612       50.36776357826828       48.50150677141123
H           69.98681389208386       50.42332552306537       48.69845736292990
H           69.65721689974875       52.66572096693368       47.79341666261185
H           68.67410918215134       51.51728249190644       46.88752954804779
H           67.91929247338560       52.56894435098581       48.09179043889057
H           68.17516954059303       51.89524310186875       50.63112146027536
H           69.76834819119453       52.50710016805642       50.20810141781081
H           69.32448651202942       49.74639969912784       51.41188822358835
H           71.74403076052056       49.86268567873871       51.86130709449288
H           71.44442068474264       49.97385823689045       50.13168122259646
H           71.84176962964234       51.42522292494493       51.04797292487977
H           70.22938369140047       52.34494737183953       52.69475485276443
H           70.30623701611498       50.76712212578469       53.47401543525534
H           67.73684247670782       52.19481224793540       52.67842997807241
H           68.21274853752729       49.55656507077368       54.12459649948818
H           66.66377022799550       50.39296371721479       54.05674307477643
H           67.39493565044955       49.77945934072890       52.57737345081384
H           68.92824656976990       51.62775169884885       55.41610362693438
H           67.39361686910669       52.42389977487539       55.08793952186686
H           70.15618531221821       53.51405016823073       54.42404074973491
H           67.39138258278682       54.73173843897587       53.99886708015906
H           68.90660336198023       55.60622347087101       53.80001185058502
H           68.52889044621986       54.26859542790100       52.73088432910984
H           69.48264906847518       53.42724725034145       56.82975606546574
H           68.07535115406732       54.41330048594115       56.44702070082306
H           69.54820277421183       56.27136961322569       55.75278939370536
H           70.19174124181446       55.16773186813933       58.51365909105579
H           70.29965378999994       56.85754444052306       58.01532129520344
H           68.72963176753021       56.05706189290239       58.08387721368241
H           71.64192788405784       54.18346647177047       56.06767985734697
H           72.04545475123872       55.70781214139762       56.83877576185081
H           71.14864019418789       55.58215321290854       53.94590741477912
H           71.02809782782393       57.77992543142729       55.13625747528833
H           72.74385106413487       57.65107893058438       55.52091919941940
H           72.21995609596053       57.80552592201070       53.84601656083088
H           73.20436689000478       54.14773834027107       54.45706210953905
H           74.00595911179639       55.62839083240178       54.97314092028806
H           73.44165379103117       56.53999343477926       52.61046252150918
H           75.71524345697149       55.98564350740271       53.32728257230715
H           75.42991837667047       54.27030332548398       53.02734482574282
H           75.48079045357463       55.40647077926684       51.68019732464007
H           71.88711936720992       54.40451913784238       52.23087955671482
H           73.41167290156935       53.63166192165841       51.81709388338120
H           73.78636415784986       55.63346822657505       50.21976071135280
H           73.30241603342117       53.36355919877674       49.42246972178397
H           71.57381771867158       53.61408839039323       49.67006582041135
H           72.43132041201733       54.53219138620131       48.43253394426174
H           71.37665112256879       56.50266442342213       51.41207595129008
H           70.89424739957435       55.97647302073651       49.80913766025647
H           73.11129011239257       57.97850148767083       50.40212077535494
H           73.47764756495312       56.75580262124787       48.26800437602517
H           71.83712478249556       57.15994957082852       47.75536933413179
H           73.03836612402174       58.43267800106924       47.96897666624074
H           70.26789100477413       58.30931187285774       49.37505388029606
H           71.47431932519235       59.58556514609949       49.30430945480879
H           70.51852763256690       58.34411275647145       51.91084677091376
H           72.74905803021771       59.46581589446437       51.99852797522421
H           72.03769368678873       60.92259357893348       51.30995621066764
H           71.54967582625686       60.36676590997204       52.91089319273798
H           68.75522482691409       59.50511557695233       50.44855652429008
H           69.69139434808616       60.97964193694005       50.65563833045289
H           69.35966544812025       60.64837481139801       53.19388258592329
H           67.14356927665391       61.73308574890498       53.07039583189795
H           68.19195508138290       62.32963545431321       51.79253548254231
H           66.93182052928297       61.15087122650875       51.41978356730066
H           68.66182333144934       58.23595971358733       52.99759835505249
H           67.21396742688050       58.75939726123362       52.14434018459173
H           66.53237310919872       60.04696976005437       54.17925587465800
H           65.77486947918246       58.01779792820814       55.40014896065112
H           65.59141864361216       57.85398263278744       53.65307628080287
H           66.92305364900385       57.04617163303642       54.48118004756945
H           69.17797224818766       59.42548978466469       55.07722638071969
H           68.09131584158071       58.51123114720856       56.10534462385536
H           67.81057614497372       61.49038856333119       55.58427597993469
H           66.24558580244049       61.41738836119791       57.48992553255261
H           65.70497056417710       60.31533946155604       56.23344302590397
H           66.51960618882286       59.68087670823930       57.66609502505575
H           69.35935262680378       59.93500073817260       57.64223194935357
H           68.45118575155109       61.31755621151873       58.21419148360982
H           70.65828981403691       61.99844567177090       57.89189317502405
H           71.96449869203472       61.81063135203332       55.86847997487040
H           71.38092385099218       60.20641667442906       56.30781750193473
H           70.61668697520521       61.10302971016161       54.98992368079458
H           69.25017953545682       63.05551704767759       55.41292803842016
H           70.56069695692838       63.81268530591496       56.29955695204325
H           67.76812759542848       63.34272640007480       57.40631841812089
H           69.53861149754508       63.45980311075654       59.15834077418241
H           70.08381500599238       65.00313530487676       58.50174406197331
H           68.47990931469721       64.86276943466027       59.22402284430559
H           67.86483739167603       64.90818799982981       55.48327652893834
H           69.10501480917816       65.84432335026774       56.31071207828401
H           67.47811863014176       66.43090595527492       58.08616423929794
H           66.49965692396815       67.06515357468020       55.27115561750779
H           66.26572868503845       68.05510778070001       56.71378830618413
H           67.87968669083114       67.83307452662166       56.05539793338384
H           66.00933133148611       64.46416555176599       57.94258113977506
H           65.55891609342240       64.89346315822476       56.29228430228092
H           64.41704019222263       66.92777811433726       57.15764029483831
H           63.24099359206375       64.77804674767633       56.75252380225778
H           63.54149038762650       64.29210610946436       58.41818365498214
H           62.48802276669592       65.66335251570554       58.07435456119838
H           65.82920732660261       67.07457010416485       59.28161182598895
H           64.91188037425461       65.70680081541620       59.90009638220400
H           62.82531405087102       67.07890647138970       59.71432058078157
H           63.33118686702493       68.46349279289457       61.68948847503628
H           64.09142026437293       66.87846206942443       61.82459217096667
H           65.06142685630469       68.28636822952963       61.39030711057196
H           64.70288472157014       68.95874646570724       58.41560042624868
H           63.77222201587684       69.71486370515777       59.69257774922942
H           62.45197391150439       68.09249447288174       57.49632244545574
H           60.43796902321718       69.36478914935159       58.21100973376246
H           61.11817699223814       68.46245667871064       59.55839811424863
H           61.39475927461112       70.19914346016336       59.43250129695208
H           63.85700585935673       70.11365169287936       56.69826028941137
H           62.72153226618314       71.11485187446243       57.59359159108865
H           60.87585354142789       69.95424257339002       56.17201504016310
H           61.27343881810359       71.57740108253961       54.30811366751636
H           61.52337322756171       72.30186275436961       55.89322128663564
H           62.91097579273366       71.83661403844226       54.90802457541694
H           62.64663180211596       68.19985978370714       55.34915671827284
H           63.18561639881731       69.47833957451556       54.26936226066280
H           60.80129089625900       69.62893125111582       53.41234820395150
H           62.55844104376237       68.49259796724427       52.14097332304930
H           62.31818847368824       67.01249281117802       53.06760549485979
H           61.04706531570022       67.59432430953983       51.98608751169099
H           60.32573539759552       67.81760242400775       55.58308742333848
H           60.04826210108458       66.90617495580311       54.11302283085775
H           58.76269399309330       69.60251934470698       54.68829954496333
H           57.25743818303378       68.95313801508077       52.81927037781377
H           58.92900701854290       69.04547850211586       52.27127090250708
H           58.18974448201672       67.47502217922751       52.57975885162831
H           57.71444034466273       66.76684925607896       54.99354348415851
H           56.66687665564278       68.17909799452973       54.94858154296470
H           58.84723231765688       67.89082140280334       57.04146307857151
H           57.90599042260092       70.17721290700855       56.65499467968295
H           56.29256119203539       69.54608846076295       56.97541848977964
H           57.51229575665966       69.54795758610042       58.25051634592717
H           55.94229872809842       67.01844669066685       57.13097763833630
H           56.94173571320214       67.23465983317605       58.56576345181406
H           57.52358375894508       65.22067992543703       56.35430577743215
H           59.15763869222742       64.33117128889651       58.04734531409191
H           59.59869858150353       65.91901009895156       57.44520457625590
H           58.85117648914814       65.76518187501595       59.03531973144983
H           56.35889343478817       64.91751446657680       59.14214611913124
H           56.97617760726084       63.57424964355219       58.18464198830237
H           54.65677415343787       65.35227403627647       57.32580897794850
H           55.81014953934499       64.25673496067846       55.41014998988266
H           55.68434305371648       62.69855606146155       56.22766259007518
H           54.23152246077454       63.53470770956393       55.68740020637882
H           68.43842624068046       42.95841664537707       48.08375208744661
H           67.65335671761504       41.62083135054625       47.23629386579822
C           41.53453951966272       54.26001571509376       46.04205165266130
C           41.55195146895856       55.28238976977438       47.17827613382483
C           40.14572999573370       55.44210122408715       47.75033268080769
C           42.11358190672077       56.60890034100772       46.65311239900910
C           42.32368955628730       57.72384059985638       47.68904908063480
C           42.61697918049148       59.03192842049695       46.95427203910564
C           43.46333885311861       57.36043902136495       48.64654264617726
C           43.75306076217588       58.35250258523843       49.78384724201833
C           45.02060942056867       57.89436483200542       50.50277247754664
C           42.56074076845096       58.44233392342864       50.74408292071820
C           42.72533659911048       59.35697980313632       51.96728964843523
C           41.53737206279098       59.13473699691085       52.90496377144297
C           42.81381772553942       60.83703634138615       51.57430222389718
C           43.39249292201622       61.73893217833834       52.67675632744625
C           42.96996095644107       63.18675622538917       52.42273780592910
C           44.92643160903243       61.61520663553636       52.75865335278331
C           45.48175796838535       61.34985903153201       54.16251129752913
C           45.18718556179913       62.51816448244698       55.10298585673684
C           47.00178090657186       61.12175602257328       54.13129951997011
C           47.49057916597073       59.90742799121308       53.33417273152757
C           46.99525035085301       58.60122303382114       53.95494364822082
C           49.02345983829885       59.86556335197788       53.25996141976226
C           49.72611471130644       60.99928060658940       52.49650113158589
C           48.95916309810882       61.43080587288296       51.24614213213678
C           51.12811509458141       60.54978567342139       52.05516350228796
C           52.10383581735901       60.11837824090153       53.15485817160420
C           52.50406550545810       61.30732521313784       54.02509365982645
C           53.36132744542667       59.48958997855306       52.53111705300787
C           53.22074506289801       58.02677120676385       52.08272420439856
C           53.13208527800737       57.10944333524359       53.29981211591178
C           54.42081017797888       57.64978056822405       51.20213537515559
C           54.33059880134130       56.29647331079602       50.48055071651295
C           55.73076925302344       55.86523558196355       50.04656881450592
C           53.39657776921092       56.37484449363021       49.26658313162681
C           52.98179775051708       55.01698514229174       48.67309322750445
C           52.94657922558249       55.10178450233887       47.14684876315491
C           51.60061199344688       54.55401331502934       49.15380320045443
C           51.43466649009637       54.37870801714377       50.66461421505241
C           52.28523382000461       53.22581783284082       51.19337766212815
C           49.96911932773441       54.11306182544951       51.03163995908480
C           48.97567804885673       55.21941882888061       50.66394398030019
C           49.40813423055037       56.57573507458321       51.21852163252198
C           47.57768678052584       54.89204947568210       51.19918266216109
C           46.92002276737374       53.62738289585801       50.63858235022614
C           46.85974999604457       53.65179427322734       49.11194268722901
C           45.49273490944841       53.48497767524938       51.18389745061644
C           45.36754173755959       53.35557513393617       52.70506129459987
C           46.05546011702166       52.08544972149576       53.20190073251408
C           43.89089860485065       53.34498591002467       53.12389664550630
C           43.13315403725812       54.66450256606403       52.93351698628405
C           43.81460420761871       55.80162828936363       53.69525505977170
C           41.68723553447889       54.54371714125099       53.43959167104113
C           40.81194380809355       53.47272334464759       52.77887428156712
C           40.76032541172838       53.65339941111165       51.26149598571165
C           39.37546848932330       53.51171820005857       53.32700593973961
C           39.23688203781789       53.40286820971152       54.84930301352419
C           39.84611914086388       52.10309395130474       55.37407682755762
C           37.76898877322256       53.47334211056168       55.29724304994302
C           36.98108218782939       54.72363895335061       54.88464609042126
C           37.73295585646412       56.01668570491326       55.20342529531344
C           35.62918711695812       54.78553909689663       55.61180566552738
C           34.68150100871072       53.58873228783707       55.45544691633933
C           34.39546791666039       53.29838347512388       53.98410098157589
C           33.38376176095202       53.91420144814555       56.21113931917004
C           32.43281454680121       52.73339884533694       56.45433773413717
C           31.02309715604568       53.26555548763955       56.71031720825891
C           32.91765915112141       51.86994540901102       57.62481391939846
C           32.13306916574997       50.55492902251198       57.79619245187376
C           31.21499798627773       50.61489427041007       59.01817221060200
C           33.07112044232537       49.34975353037183       57.93833005114747
C           33.82961445247220       48.96876106381563       56.66122567038381
C           32.91346347297920       48.22629627541667       55.68952745195386
C           35.04330160057874       48.09219085150596       57.00253522226024
C           36.22408705017506       48.87710938472627       57.59267374851430
C           37.06700641784622       49.45799752669219       56.45584306668515
C           37.11480580039947       48.01338829767211       58.50031639598815
C           36.74141752136608       47.91752277241778       59.99107385290358
C           35.47329199630727       47.09958308555352       60.23983805132001
C           36.60288635838707       49.27569211258373       60.69455162774473
C           37.82999158250763       50.19065049597466       60.63398376936543
C           39.00980740712529       49.56667822526416       61.37776165394107
C           37.53547685557178       51.56246623702004       61.25792459054570
C           36.51440634948805       52.45875831392559       60.54089005254254
C           36.95343649876935       52.76940047292583       59.11290358457563
C           36.36211490398301       53.74827375570276       61.36251235945917
C           35.23856464490905       54.70756413459323       60.94346517335321
C           35.44849012164976       56.04850793582992       61.64792335214192
C           33.85718213636333       54.13043257800119       61.27208941386318
C           32.70319773246453       54.89820290902930       60.62954639704565
C           31.35468228804283       54.27210721365501       60.96505217983012
H           41.14965885608785       53.30463830685298       46.39072160973575
H           40.90060570589060       54.60719393845250       45.22784274358322
H           42.53766483226348       54.10159531266881       45.65225499559796
H           31.31348046076722       53.24075475743255       60.62198653669923
H           31.18873442374077       54.27954697287449       62.04037132715192
H           30.54583638816636       54.82423400190025       60.49086944767235
H           33.80868401758891       53.09532594729358       60.92741428536630
H           33.72339927312341       54.12056874429997       62.35695578885574
H           36.20044868814075       53.48123365521469       62.41030290919607
H           37.31158496738463       54.28684143389828       61.31057352906257
H           35.54893084122259       51.94497713290115       60.50528679356474
H           36.24002977210957       53.42916067941118       58.62557644243412
H           37.92943339748155       53.25118888786963       59.11534523232967
H           37.01659545008712       51.86181336364718       58.51932673478729
H           37.19179738545751       51.40028479814880       62.28366358722933
H           38.47721040654084       52.11362700523811       61.31387455187536
H           35.74400887281897       49.79980546817506       60.27332806883430
H           36.37030166322408       49.08538235074529       61.74668241206847
H           35.29263960832250       54.87938913728102       59.86333715270450
H           36.42278812070715       56.46276509623379       61.39915711095044
H           34.69430300488615       56.77294600321166       61.35248977724221