      -----------------------------------------------------------      
     |                   =====================                   |     
     |                           x T B                           |     
     |                   =====================                   |     
     |                         S. Grimme                         |     
     |          Mulliken Center for Theoretical Chemistry        |     
     |                    University of Bonn                     |     
      -----------------------------------------------------------      

   * xtb version 6.6.1 (8d0f1dd) compiled by 'stahn@M-Bot' on 2023-08-01

   xtb is free software: you can redistribute it and/or modify it under
   the terms of the GNU Lesser General Public License as published by
   the Free Software Foundation, either version 3 of the License, or
   (at your option) any later version.
   
   xtb is distributed in the hope that it will be useful,
   but WITHOUT ANY WARRANTY; without even the implied warranty of
   MERCHANTABILITY or FITNESS FOR A PARTICULAR PURPOSE.  See the
   GNU Lesser General Public License for more details.
   
   Cite this work as:
   * C. Bannwarth, E. Caldeweyher, S. Ehlert, A. Hansen, P. Pracht,
     J. Seibert, S. Spicher, S. Grimme, WIREs Comput. Mol. Sci., 2020, 11,
     e01493. DOI: 10.1002/wcms.1493
   
   for GFN2-xTB:
   * C. Bannwarth, S. Ehlert and S. Grimme., J. Chem. Theory Comput., 2019,
     15, 1652-1671. DOI: 10.1021/acs.jctc.8b01176
   for GFN1-xTB:
   * S. Grimme, C. Bannwarth, P. Shushkov, J. Chem. Theory Comput., 2017,
     13, 1989-2009. DOI: 10.1021/acs.jctc.7b00118
   for GFN0-xTB:
   * P. Pracht, E. Caldeweyher, S. Ehlert, S. Grimme, ChemRxiv, 2019, preprint.
     DOI: 10.26434/chemrxiv.8326202.v1
   for GFN-FF:
   * S. Spicher and S. Grimme, Angew. Chem. Int. Ed., 2020, 59, 15665-15673.
     DOI: 10.1002/anie.202004239
   
   for ALPB and GBSA implicit solvation:
   * S. Ehlert, M. Stahn, S. Spicher, S. Grimme, J. Chem. Theory Comput.,
     2021, 17, 4250-4261. DOI: 10.1021/acs.jctc.1c00471
   
   for DFT-D4:
   * E. Caldeweyher, C. Bannwarth and S. Grimme, J. Chem. Phys., 2017,
     147, 034112. DOI: 10.1063/1.4993215
   * E. Caldeweyher, S. Ehlert, A. Hansen, H. Neugebauer, S. Spicher,
     C. Bannwarth and S. Grimme, J. Chem. Phys., 2019, 150, 154122.
     DOI: 10.1063/1.5090222
   * E. Caldeweyher, J.-M. Mewes, S. Ehlert and S. Grimme, Phys. Chem. Chem. Phys.
     2020, 22, 8499-8512. DOI: 10.1039/D0CP00502A
   
   for sTDA-xTB:
   * S. Grimme and C. Bannwarth, J. Chem. Phys., 2016, 145, 054103.
     DOI: 10.1063/1.4959605
   
   in the mass-spec context:
   * V. Asgeirsson, C. Bauer and S. Grimme, Chem. Sci., 2017, 8, 4879.
     DOI: 10.1039/c7sc00601b
   * J. Koopman and S. Grimme, ACS Omega 2019, 4, 12, 15120-15133.
     DOI: 10.1021/acsomega.9b02011
   
   for metadynamics refer to:
   * S. Grimme, J. Chem. Theory Comput., 2019, 155, 2847-2862
     DOI: 10.1021/acs.jctc.9b00143
   
   for SPH calculations refer to:
   * S. Spicher and S. Grimme, J. Chem. Theory Comput., 2021, 17, 1701-1714
     DOI: 10.1021/acs.jctc.0c01306
   
   with help from (in alphabetical order)
   P. Atkinson, C. Bannwarth, F. Bohle, G. Brandenburg, E. Caldeweyher
   M. Checinski, S. Dohm, S. Ehlert, S. Ehrlich, I. Gerasimov, C. Hölzer
   A. Katbashev, J. Koopman, C. Lavigne, S. Lehtola, F. März, M. Müller,
   F. Musil, H. Neugebauer, J. Pisarek, C. Plett, P. Pracht, F. Pultar,
   J. Seibert, P. Shushkov, S. Spicher, M. Stahn, M. Steiner, T. Strunk,
   J. Stückrath, T. Rose, and J. Unsleber
   
 * started run on 2024/06/21 at 09:19:18.581     

           -------------------------------------------------
          |                Calculation Setup                |
           -------------------------------------------------

          program call               : /home/abt-grimme/AK-bin/xtb input.xyz --input input.inp --opt --gbsa water
          hostname                   : boar015.thch.uni-bonn.de
          coordinate file            : input.xyz
          omp threads                :                     8

   ID    Z sym.   atoms
    1    6 C      1-90, 273-362, 545-634, 817-906, 1089-1178, 1361-1450,
                  1633-1722, 1905-1994, 2177-2266, 2449-2538, 2721-2810,
                  2993-3082, 3265-3354
    2    1 H      91-272, 363-544, 635-816, 907-1088, 1179-1360, 1451-1632,
                  1723-1904, 1995-2176, 2267-2448, 2539-2720, 2811-2992,
                  3083-3264, 3355-3536

molecular fragmentation (1/2 indicates fragments):
111111111111111111111111111111111111111111111111111111111111111111111111
111111111111111111111111111111111111111111111111111111111111111111111111
111111111111111111111111111111111111111111111111111111111111111111111111
111111111111111111111111111111111111111111111111111111112222222222222222
222222222222222222222222222222222222222222222222222222222222222222222222
222222222222222222222222222222222222222222222222222222222222222222222222
222222222222222222222222222222222222222222222222222222222222222222222222
222222222222222222222222222222222222222222222222222222222222222222222222
222222222222222222222222222222222222222222222222222222222222222222222222
222222222222222222222222222222222222222222222222222222222222222222222222
222222222222222222222222222222222222222222222222222222222222222222222222
222222222222222222222222222222222222222222222222222222222222222222222222
222222222222222222222222222222222222222222222222222222222222222222222222
222222222222222222222222222222222222222222222222222222222222222222222222
222222222222222222222222222222222222222222222222222222222222222222222222
222222222222222222222222222222222222222222222222222222222222222222222222
222222222222222222222222222222222222222222222222222222222222222222222222
222222222222222222222222222222222222222222222222222222222222222222222222
222222222222222222222222222222222222222222222222222222222222222222222222
222222222222222222222222222222222222222222222222222222222222222222222222
222222222222222222222222222222222222222222222222222222222222222222222222
222222222222222222222222222222222222222222222222222222222222222222222222
222222222222222222222222222222222222222222222222222222222222222222222222
222222222222222222222222222222222222222222222222222222222222222222222222
222222222222222222222222222222222222222222222222222222222222222222222222
222222222222222222222222222222222222222222222222222222222222222222222222
222222222222222222222222222222222222222222222222222222222222222222222222
222222222222222222222222222222222222222222222222222222222222222222222222
222222222222222222222222222222222222222222222222222222222222222222222222
222222222222222222222222222222222222222222222222222222222222222222222222
222222222222222222222222222222222222222222222222222222222222222222222222
222222222222222222222222222222222222222222222222222222222222222222222222
222222222222222222222222222222222222222222222222222222222222222222222222
222222222222222222222222222222222222222222222222222222222222222222222222
222222222222222222222222222222222222222222222222222222222222222222222222
222222222222222222222222222222222222222222222222222222222222222222222222
222222222222222222222222222222222222222222222222222222222222222222222222
222222222222222222222222222222222222222222222222222222222222222222222222
222222222222222222222222222222222222222222222222222222222222222222222222
222222222222222222222222222222222222222222222222222222222222222222222222
222222222222222222222222222222222222222222222222222222222222222222222222
222222222222222222222222222222222222222222222222222222222222222222222222
222222222222222222222222222222222222222222222222222222222222222222222222
222222222222222222222222222222222222222222222222222222222222222222222222
222222222222222222222222222222222222222222222222222222222222222222222222
222222222222222222222222222222222222222222222222222222222222222222222222
222222222222222222222222222222222222222222222222222222222222222222222222
222222222222222222222222222222222222222222222222222222222222222222222222
222222222222222222222222222222222222222222222222222222222222222222222222
22222222
# atoms in fragment 1/2:   272  3264
 fragment masses (1/2) :     1264.41    15172.94
CMA distance (Bohr)    :  24.137
constraining FC (au)   :  0.0500

           -------------------------------------------------
          |                 G F N 2 - x T B                 |
           -------------------------------------------------

        Reference                      10.1021/acs.jctc.8b01176
      * Hamiltonian:
        H0-scaling (s, p, d)           1.850000    2.230000    2.230000
        zeta-weighting                 0.500000
      * Dispersion:
        s8                             2.700000
        a1                             0.520000
        a2                             5.000000
        s9                             5.000000
      * Repulsion:
        kExp                           1.500000    1.000000
        rExp                           1.000000
      * Coulomb:
        alpha                          2.000000
        third order                    shell-resolved
        anisotropic                    true
        a3                             3.000000
        a5                             4.000000
        cn-shift                       1.200000
        cn-exp                         4.000000
        max-rad                        5.000000

      * Solvation model:               GBSA
        Solvent                        water
        Parameter file                 internal GFN2-xTB/GBSA
        Dielectric constant                8.0200E+01
        Reference state                gsolv [1 M gas/solution]
        Free energy shift                  1.8574E-03 Eh       1.1656E+00 kcal/mol
        Temperature                        2.9815E+02 K
        Density                            1.0000E+00 kg/L
        Solvent mass                       1.8000E+01 g/mol
        Interaction kernel             Still
        Born radius scaling (c1)           1.5524E+00
        Born radii integrator          GBOBC
        Born offset                        2.4628E-02 a0       4.6540E-02 AA
        H-bond correction              true
        Ion screening                  false
        Surface tension                    1.0000E-05 Eh       1.5569E+01 dyn/cm
        Grid points                               230 per atom
q/qsh data taken from xtbrestart
CAMM data taken from xtbrestart

          ...................................................
          :                      SETUP                      :
          :.................................................:
          :  # basis functions                7046          :
          :  # atomic orbitals                7046          :
          :  # shells                         4706          :
          :  # electrons                      7046          :
          :  max. iterations                   250          :
          :  Hamiltonian                  GFN2-xTB          :
          :  restarted?                       true          :
          :  GBSA solvation                   true          :
          :  PC potential                    false          :
          :  electronic temp.          300.0000000     K    :
          :  accuracy                    1.0000000          :
          :  -> integral cutoff          0.2500000E+02      :
          :  -> integral neglect         0.1000000E-07      :
          :  -> SCF convergence          0.1000000E-05 Eh   :
          :  -> wf. convergence          0.1000000E-03 e    :
          :  Broyden damping             0.4000000          :
          ...................................................

 iter      E             dE          RMSdq      gap      omega  full diag
   1  -3764.2210956 -0.376422E+04  0.384E-05   10.56       0.0  T
   2  -3764.2210956 -0.740329E-09  0.284E-05   10.56      59.2  T
   3  -3764.2210956 -0.939053E-09  0.136E-05   10.56     123.4  T

   *** convergence criteria satisfied after 3 iterations ***

         #    Occupation            Energy/Eh            Energy/eV
      -------------------------------------------------------------
         1        2.0000           -0.6184612             -16.8292
       ...           ...                  ...                  ...
      3517        2.0000           -0.3765623             -10.2468
      3518        2.0000           -0.3762811             -10.2391
      3519        2.0000           -0.3759338             -10.2297
      3520        2.0000           -0.3756962             -10.2232
      3521        2.0000           -0.3739105             -10.1746
      3522        2.0000           -0.3731158             -10.1530
      3523        2.0000           -0.3725128             -10.1366 (HOMO)
      3524                          0.0155144               0.4222 (LUMO)
      3525                          0.0161223               0.4387
      3526                          0.0171481               0.4666
      3527                          0.0172275               0.4688
      3528                          0.0174450               0.4747
       ...                                ...                  ...
      7046                          0.3683071              10.0221
      -------------------------------------------------------------
                  HL-Gap            0.3880272 Eh           10.5588 eV
             Fermi-level           -0.1784992 Eh           -4.8572 eV

 SCC (total)                   0 d,  0 h,  9 min,  4.633 sec
 SCC setup                      ...        0 min,  2.001 sec (  0.367%)
 Dispersion                     ...        0 min,  4.152 sec (  0.762%)
 classical contributions        ...        0 min,  0.157 sec (  0.029%)
 integral evaluation            ...        0 min,  7.037 sec (  1.292%)
 iterations                     ...        3 min, 50.733 sec ( 42.365%)
 molecular gradient             ...        4 min, 49.423 sec ( 53.141%)
 printout                       ...        0 min, 11.130 sec (  2.044%)

         :::::::::::::::::::::::::::::::::::::::::::::::::::::
         ::                     SUMMARY                     ::
         :::::::::::::::::::::::::::::::::::::::::::::::::::::
         :: total energy           -3715.380736676609 Eh    ::
         :: total w/o Gsasa/hb     -3715.270856605843 Eh    ::
         :: gradient norm              0.668429944487 Eh/a0 ::
         :: HOMO-LUMO gap             10.558757129973 eV    ::
         ::.................................................::
         :: SCC energy             -3764.221095592100 Eh    ::
         :: -> isotropic ES            0.439920035944 Eh    ::
         :: -> anisotropic ES          1.491677022351 Eh    ::
         :: -> anisotropic XC          2.304624191301 Eh    ::
         :: -> dispersion             -4.686533506619 Eh    ::
         :: -> Gsolv                  -0.047458568178 Eh    ::
         ::    -> Gelec                0.062421502589 Eh    ::
         ::    -> Gsasa               -0.105420782427 Eh    ::
         ::    -> Ghb                 -0.006316731467 Eh    ::
         ::    -> Gshift               0.001857443127 Eh    ::
         :: repulsion energy          48.114732802525 Eh    ::
         :: add. restraining           0.000000000000 Eh    ::
         :: total charge              -0.000000000010 e     ::
         :::::::::::::::::::::::::::::::::::::::::::::::::::::

      ----------------------------------------------------------- 
     |              Fast Inertial Relaxation Engine              |
      ----------------------------------------------------------- 

          ...................................................
          :                      SETUP                      :
          :.................................................:
          :   energy convergence        0.5000000E-05 Eh    :
          :   grad. convergence         0.1000000E-02 Eh/a0 :
          :   optimization log               true           :
          :   writing optlog all                1     steps :
          :   Hessian reset                    20     steps :
          :   time step scaling                 5     steps :
          :   maximium step len.        1.0000000     a0    :
          :   initial time step         0.2500000     fs    :
          :   maximum time step         1.2500000     fs    :
          :   power reset thr           0.0000000     au    :
          :   alpha parameter           0.1000000           :
          :   BFGS update                   false           :
          :   preconditioning               false           :
          ...................................................

........................................................................
.............................. CYCLE    1 ..............................
........................................................................

 iter      E             dE          RMSdq      gap      omega  full diag
   1  -3764.4851608 -0.376449E+04  0.765E-03   10.57       0.0  T
   2  -3764.4852053 -0.444730E-04  0.416E-03   10.57       1.0  T
   3  -3764.4852060 -0.695527E-06  0.180E-03   10.57       1.0  T
   4  -3764.4852065 -0.516721E-06  0.444E-04   10.57       3.8  T
   5  -3764.4852068 -0.271085E-06  0.177E-04   10.57       9.5  T
     SCC iter.                  ...        6 min, 13.180 sec
     gradient                   ...        4 min, 44.312 sec
 * total energy  : -3715.4316686 Eh     change    :  -0.5093191E-01 Eh
   gradient norm :     0.6359831 Eh/a0  converged?    E=F G=F D=F
   time step     :     0.2500000 fs     power     :   0.2635854E-05
   step length   :     0.0783386 a0     speed     :   0.7579677E-02

........................................................................
.............................. CYCLE    2 ..............................
........................................................................

 iter      E             dE          RMSdq      gap      omega  full diag
   1  -3764.8745349 -0.376487E+04  0.112E-02   10.58       0.0  T
   2  -3764.8746304 -0.955655E-04  0.610E-03   10.58       1.0  T
   3  -3764.8746320 -0.154763E-05  0.264E-03   10.58       1.0  T
   4  -3764.8746331 -0.112168E-05  0.658E-04   10.58       2.6  T
   5  -3764.8746337 -0.589501E-06  0.272E-04   10.58       6.2  T
   6  -3764.8746338 -0.436030E-07  0.124E-04   10.58      13.6  T
     SCC iter.                  ...        7 min, 18.356 sec
     gradient                   ...        4 min, 45.360 sec
 * total energy  : -3715.5023210 Eh     change    :  -0.7065241E-01 Eh
   gradient norm :     0.5894939 Eh/a0  converged?    E=F G=F D=F
   time step     :     0.2500000 fs     power     :   0.3603714E-05
   step length   :     0.1155170 a0     speed     :   0.1117689E-01

........................................................................
.............................. CYCLE    3 ..............................
........................................................................

 iter      E             dE          RMSdq      gap      omega  full diag
   1  -3765.3792809 -0.376538E+04  0.145E-02   10.59       0.0  T
   2  -3765.3794372 -0.156346E-03  0.787E-03   10.59       1.0  T
   3  -3765.3794398 -0.256739E-05  0.337E-03   10.59       1.0  T
   4  -3765.3794416 -0.182223E-05  0.844E-04   10.59       2.0  T
   5  -3765.3794426 -0.969359E-06  0.353E-04   10.59       4.8  T
   6  -3765.3794426 -0.707764E-07  0.156E-04   10.59      10.8  T
     SCC iter.                  ...        7 min, 19.674 sec
     gradient                   ...        4 min, 44.410 sec
 * total energy  : -3715.5860399 Eh     change    :  -0.8371893E-01 Eh
   gradient norm :     0.5309413 Eh/a0  converged?    E=F G=F D=F
   time step     :     0.2500000 fs     power     :   0.4198882E-05
   step length   :     0.1499660 a0     speed     :   0.1451001E-01

........................................................................
.............................. CYCLE    4 ..............................
........................................................................

 iter      E             dE          RMSdq      gap      omega  full diag
   1  -3765.9866227 -0.376599E+04  0.173E-02   10.61       0.0  T
   2  -3765.9868404 -0.217629E-03  0.938E-03   10.61       1.0  T
   3  -3765.9868441 -0.369254E-05  0.397E-03   10.61       1.0  T
   4  -3765.9868466 -0.249347E-05  0.996E-04   10.61       1.7  T
   5  -3765.9868479 -0.133322E-05  0.428E-04   10.61       3.9  T
   6  -3765.9868480 -0.101200E-06  0.184E-04   10.61       9.1  T
   7  -3765.9868480 -0.474715E-07  0.119E-04   10.61      14.1  T
     SCC iter.                  ...        8 min, 42.592 sec
     gradient                   ...        4 min, 44.141 sec
 * total energy  : -3715.6751966 Eh     change    :  -0.8915672E-01 Eh
   gradient norm :     0.4640071 Eh/a0  converged?    E=F G=F D=F
   time step     :     0.2500000 fs     power     :   0.4381472E-05
   step length   :     0.1808559 a0     speed     :   0.1749878E-01

........................................................................
.............................. CYCLE    5 ..............................
........................................................................

 iter      E             dE          RMSdq      gap      omega  full diag
   1  -3766.6810258 -0.376668E+04  0.197E-02   10.62       0.0  T
   2  -3766.6812948 -0.268943E-03  0.106E-02   10.62       1.0  T
   3  -3766.6812995 -0.474960E-05  0.440E-03   10.62       1.0  T
   4  -3766.6813025 -0.293248E-05  0.109E-03   10.62       1.5  T
   5  -3766.6813040 -0.157394E-05  0.480E-04   10.62       3.5  T
   6  -3766.6813041 -0.106343E-06  0.191E-04   10.62       8.8  T
   7  -3766.6813042 -0.478158E-07  0.122E-04   10.62      13.8  T
     SCC iter.                  ...        8 min, 44.035 sec
     gradient                   ...        4 min, 43.636 sec
 * total energy  : -3715.7621570 Eh     change    :  -0.8696040E-01 Eh
   gradient norm :     0.3941436 Eh/a0  converged?    E=F G=F D=F
   time step     :     0.2500000 fs     power     :   0.4166506E-05
   step length   :     0.2074669 a0     speed     :   0.2007353E-01

........................................................................
.............................. CYCLE    6 ..............................
........................................................................

 iter      E             dE          RMSdq      gap      omega  full diag
   1  -3767.5279242 -0.376753E+04  0.237E-02   10.63       0.0  T
   2  -3767.5282931 -0.368920E-03  0.127E-02   10.63       1.0  T
   3  -3767.5283003 -0.721383E-05  0.514E-03   10.63       1.0  T
   4  -3767.5283041 -0.381878E-05  0.126E-03   10.63       1.3  T
   5  -3767.5283061 -0.199948E-05  0.588E-04   10.63       2.9  T
   6  -3767.5283063 -0.146076E-06  0.216E-04   10.63       7.8  T
   7  -3767.5283063 -0.599052E-07  0.141E-04   10.63      11.9  T
     SCC iter.                  ...        8 min, 38.444 sec
     gradient                   ...        4 min, 46.410 sec
 * total energy  : -3715.8478680 Eh     change    :  -0.8571096E-01 Eh
   gradient norm :     0.3224782 Eh/a0  converged?    E=F G=F D=F
   time step     :     0.2750000 fs     power     :   0.3547605E-05
   step length   :     0.2545251 a0     speed     :   0.2238789E-01

........................................................................
.............................. CYCLE    7 ..............................
........................................................................

 iter      E             dE          RMSdq      gap      omega  full diag
   1  -3768.5234244 -0.376852E+04  0.276E-02   10.63       0.0  T
   2  -3768.5238767 -0.452288E-03  0.148E-02   10.63       1.0  T
   3  -3768.5238873 -0.106377E-04  0.569E-03   10.63       1.0  T
   4  -3768.5238916 -0.431484E-05  0.136E-03   10.63       1.2  T
   5  -3768.5238936 -0.203204E-05  0.695E-04   10.63       2.4  T
   6  -3768.5238938 -0.186793E-06  0.229E-04   10.63       7.3  T
   7  -3768.5238939 -0.656501E-07  0.154E-04   10.63      10.9  T
     SCC iter.                  ...        8 min, 38.975 sec
     gradient                   ...        4 min, 44.907 sec
 * total energy  : -3715.9227829 Eh     change    :  -0.7491491E-01 Eh
   gradient norm :     0.2654443 Eh/a0  converged?    E=F G=F D=F
   time step     :     0.3025000 fs     power     :   0.2581663E-05
   step length   :     0.3028727 a0     speed     :   0.2421865E-01

........................................................................
.............................. CYCLE    8 ..............................
........................................................................

 iter      E             dE          RMSdq      gap      omega  full diag
   1  -3769.6325650 -0.376963E+04  0.307E-02   10.64       0.0  T
   2  -3769.6330347 -0.469704E-03  0.164E-02   10.63       1.0  T
   3  -3769.6330498 -0.150671E-04  0.583E-03   10.63       1.0  T
   4  -3769.6330537 -0.398801E-05  0.133E-03   10.63       1.3  T
   5  -3769.6330550 -0.124907E-05  0.765E-04   10.63       2.2  T
   6  -3769.6330552 -0.218962E-06  0.215E-04   10.63       7.8  T
   7  -3769.6330553 -0.566315E-07  0.152E-04   10.63      11.0  T
     SCC iter.                  ...        8 min, 32.261 sec
     gradient                   ...        4 min, 46.510 sec
 * total energy  : -3715.9786527 Eh     change    :  -0.5586975E-01 Eh
   gradient norm :     0.2433268 Eh/a0  converged?    E=F G=F D=F
   time step     :     0.3327500 fs     power     :   0.1478175E-05
   step length   :     0.3470154 a0     speed     :   0.2522585E-01

........................................................................
.............................. CYCLE    9 ..............................
........................................................................

 iter      E             dE          RMSdq      gap      omega  full diag
   1  -3770.7719804 -0.377077E+04  0.326E-02   10.64       0.0  T
   2  -3770.7723663 -0.385860E-03  0.176E-02   10.64       1.0  T
   3  -3770.7723852 -0.189010E-04  0.543E-03   10.64       1.0  T
   4  -3770.7723885 -0.333361E-05  0.130E-03   10.64       1.3  T
   5  -3770.7723890 -0.468362E-06  0.747E-04   10.64       2.3  T
   6  -3770.7723892 -0.203998E-06  0.167E-04   10.64      10.1  T
     SCC iter.                  ...        7 min, 28.774 sec
     gradient                   ...        4 min, 44.844 sec
 * total energy  : -3716.0129376 Eh     change    :  -0.3428490E-01 Eh
   gradient norm :     0.2522339 Eh/a0  converged?    E=F G=F D=F
   time step     :     0.3660250 fs     power     :   0.5460892E-06
   step length   :     0.3792513 a0     speed     :   0.2506291E-01

........................................................................
.............................. CYCLE   10 ..............................
........................................................................

 iter      E             dE          RMSdq      gap      omega  full diag
   1  -3771.8278222 -0.377183E+04  0.334E-02   10.66       0.0  T
   2  -3771.8280702 -0.248039E-03  0.185E-02   10.66       1.0  T
   3  -3771.8280863 -0.160932E-04  0.476E-03   10.66       1.0  T
   4  -3771.8280945 -0.819753E-05  0.146E-03   10.66       1.2  T
   5  -3771.8280956 -0.107792E-05  0.819E-04   10.66       2.1  T
   6  -3771.8280957 -0.130891E-06  0.137E-04   10.66      12.3  T
   7  -3771.8280957 -0.211785E-07  0.102E-04   10.66      16.5  T
     SCC iter.                  ...        8 min, 42.061 sec
     gradient                   ...        4 min, 47.814 sec
 * total energy  : -3716.0295271 Eh     change    :  -0.1658950E-01 Eh
   gradient norm :     0.2626326 Eh/a0  converged?    E=F G=F D=F
   time step     :     0.4026275 fs     power     :  -0.5708648E-07
   step length   :     0.3970730 a0     speed     :   0.2385514E-01

........................................................................
.............................. CYCLE   11 ..............................
........................................................................
 * reset velocities

 iter      E             dE          RMSdq      gap      omega  full diag
   1  -3771.8090484 -0.377181E+04  0.106E-03   10.66       0.0  T
   2  -3771.8090493 -0.859218E-06  0.650E-04   10.66       2.6  T
   3  -3771.8090493 -0.115042E-07  0.273E-04   10.66       6.2  T
     SCC iter.                  ...        3 min, 52.704 sec
     gradient                   ...        4 min, 43.876 sec
 * total energy  : -3716.0321162 Eh     change    :  -0.2589174E-02 Eh
   gradient norm :     0.2563490 Eh/a0  converged?    E=F G=F D=F
   time step     :     0.2013138 fs     power     :   0.1686169E-06
   step length   :     0.0099794 a0     speed     :   0.1199076E-02

........................................................................
.............................. CYCLE   12 ..............................
........................................................................

 iter      E             dE          RMSdq      gap      omega  full diag
   1  -3771.7714355 -0.377177E+04  0.212E-03   10.66       0.0  T
   2  -3771.7714388 -0.322246E-05  0.130E-03   10.66       1.3  T
   3  -3771.7714388 -0.290565E-07  0.526E-04   10.66       3.2  T
   4  -3771.7714389 -0.817477E-07  0.137E-04   10.66      12.3  T
     SCC iter.                  ...        4 min, 55.420 sec
     gradient                   ...        4 min, 44.476 sec
 * total energy  : -3716.0370500 Eh     change    :  -0.4933736E-02 Eh
   gradient norm :     0.2440925 Eh/a0  converged?    E=F G=F D=F
   time step     :     0.2013138 fs     power     :   0.3171962E-06
   step length   :     0.0197199 a0     speed     :   0.2369441E-02

........................................................................
.............................. CYCLE   13 ..............................
........................................................................

 iter      E             dE          RMSdq      gap      omega  full diag
   1  -3771.7162121 -0.377172E+04  0.306E-03   10.66       0.0  T
   2  -3771.7162194 -0.725017E-05  0.188E-03   10.66       1.0  T
   3  -3771.7162195 -0.104225E-06  0.793E-04   10.66       2.1  T
   4  -3771.7162197 -0.184899E-06  0.209E-04   10.66       8.0  T
     SCC iter.                  ...        4 min, 55.558 sec
     gradient                   ...        4 min, 47.754 sec
 * total energy  : -3716.0438667 Eh     change    :  -0.6816692E-02 Eh
   gradient norm :     0.2263400 Eh/a0  converged?    E=F G=F D=F
   time step     :     0.2013138 fs     power     :   0.4321210E-06
   step length   :     0.0289930 a0     speed     :   0.3483657E-02

........................................................................
.............................. CYCLE   14 ..............................
........................................................................

 iter      E             dE          RMSdq      gap      omega  full diag
   1  -3771.6448235 -0.377164E+04  0.395E-03   10.66       0.0  T
   2  -3771.6448356 -0.121250E-04  0.243E-03   10.66       1.0  T
   3  -3771.6448358 -0.179973E-06  0.103E-03   10.66       1.6  T
   4  -3771.6448361 -0.307989E-06  0.272E-04   10.66       6.2  T
   5  -3771.6448362 -0.915857E-07  0.685E-05   10.66      24.5  T
     SCC iter.                  ...        6 min,  9.374 sec
     gradient                   ...        4 min, 43.319 sec
 * total energy  : -3716.0519387 Eh     change    :  -0.8071995E-02 Eh
   gradient norm :     0.2038607 Eh/a0  converged?    E=F G=F D=F
   time step     :     0.2013138 fs     power     :   0.5035318E-06
   step length   :     0.0375855 a0     speed     :   0.4516084E-02

........................................................................
.............................. CYCLE   15 ..............................
........................................................................

 iter      E             dE          RMSdq      gap      omega  full diag
   1  -3771.5592235 -0.377156E+04  0.472E-03   10.67       0.0  T
   2  -3771.5592410 -0.175029E-04  0.291E-03   10.67       1.0  T
   3  -3771.5592412 -0.264152E-06  0.123E-03   10.67       1.4  T
   4  -3771.5592417 -0.429192E-06  0.325E-04   10.67       5.2  T
   5  -3771.5592418 -0.130723E-06  0.813E-05   10.67      20.7  T
     SCC iter.                  ...        6 min, 14.341 sec
     gradient                   ...        4 min, 43.062 sec
 * total energy  : -3716.0605425 Eh     change    :  -0.8603811E-02 Eh
   gradient norm :     0.1777034 Eh/a0  converged?    E=F G=F D=F
   time step     :     0.2013138 fs     power     :   0.5263430E-06
   step length   :     0.0453059 a0     speed     :   0.5443727E-02

........................................................................
.............................. CYCLE   16 ..............................
........................................................................

 iter      E             dE          RMSdq      gap      omega  full diag
   1  -3771.4619332 -0.377146E+04  0.537E-03   10.67       0.0  T
   2  -3771.4619559 -0.227055E-04  0.331E-03   10.67       1.0  T
   3  -3771.4619562 -0.346979E-06  0.140E-03   10.67       1.2  T
   4  -3771.4619568 -0.545834E-06  0.370E-04   10.67       4.5  T
   5  -3771.4619569 -0.168401E-06  0.926E-05   10.67      18.2  T
     SCC iter.                  ...        6 min, 13.600 sec
     gradient                   ...        4 min, 43.991 sec
 * total energy  : -3716.0689412 Eh     change    :  -0.8398777E-02 Eh
   gradient norm :     0.1494454 Eh/a0  converged?    E=F G=F D=F
   time step     :     0.2013138 fs     power     :   0.5012022E-06
   step length   :     0.0519859 a0     speed     :   0.6246368E-02

........................................................................
.............................. CYCLE   17 ..............................
........................................................................

 iter      E             dE          RMSdq      gap      omega  full diag
   1  -3771.3445290 -0.377134E+04  0.649E-03   10.68       0.0  T
   2  -3771.3445623 -0.333528E-04  0.401E-03   10.68       1.0  T
   3  -3771.3445628 -0.512739E-06  0.169E-03   10.68       1.0  T
   4  -3771.3445636 -0.781901E-06  0.448E-04   10.68       3.8  T
   5  -3771.3445639 -0.244935E-06  0.110E-04   10.68      15.2  T
     SCC iter.                  ...        6 min, 14.412 sec
     gradient                   ...        4 min, 43.939 sec
 * total energy  : -3716.0771980 Eh     change    :  -0.8256766E-02 Eh
   gradient norm :     0.1186244 Eh/a0  converged?    E=F G=F D=F
   time step     :     0.2214451 fs     power     :   0.4255330E-06
   step length   :     0.0638401 a0     speed     :   0.6973367E-02

........................................................................
.............................. CYCLE   18 ..............................
........................................................................

 iter      E             dE          RMSdq      gap      omega  full diag
   1  -3771.2091995 -0.377121E+04  0.755E-03   10.69       0.0  T
   2  -3771.2092447 -0.451156E-04  0.468E-03   10.69       1.0  T
   3  -3771.2092454 -0.693425E-06  0.196E-03   10.69       1.0  T
   4  -3771.2092464 -0.103439E-05  0.521E-04   10.69       3.2  T
   5  -3771.2092467 -0.328888E-06  0.128E-04   10.69      13.2  T
   6  -3771.2092467 -0.122081E-07  0.870E-05   10.69      19.3  T
     SCC iter.                  ...        7 min, 32.643 sec
     gradient                   ...        4 min, 44.508 sec
 * total energy  : -3716.0843027 Eh     change    :  -0.7104738E-02 Eh
   gradient norm :     0.0914138 Eh/a0  converged?    E=F G=F D=F
   time step     :     0.2435896 fs     power     :   0.3028071E-06
   step length   :     0.0761253 a0     speed     :   0.7559361E-02

........................................................................
.............................. CYCLE   19 ..............................
........................................................................

 iter      E             dE          RMSdq      gap      omega  full diag
   1  -3771.0644578 -0.377106E+04  0.827E-03   10.69       0.0  T
   2  -3771.0645115 -0.536128E-04  0.517E-03   10.69       1.0  T
   3  -3771.0645122 -0.782152E-06  0.214E-03   10.69       1.0  T
   4  -3771.0645135 -0.122105E-05  0.568E-04   10.69       3.0  T
   5  -3771.0645138 -0.386261E-06  0.131E-04   10.69      12.9  T
   6  -3771.0645139 -0.107816E-07  0.845E-05   10.69      19.9  T
     SCC iter.                  ...        7 min, 25.786 sec
     gradient                   ...        4 min, 43.208 sec
 * total energy  : -3716.0893143 Eh     change    :  -0.5011564E-02 Eh
   gradient norm :     0.0813483 Eh/a0  converged?    E=F G=F D=F
   time step     :     0.2679486 fs     power     :   0.1579338E-06
   step length   :     0.0874296 a0     speed     :   0.7892640E-02

........................................................................
.............................. CYCLE   20 ..............................
........................................................................

 iter      E             dE          RMSdq      gap      omega  full diag
   1  -3770.9288993 -0.377093E+04  0.830E-03   10.70       0.0  T
   2  -3770.9289504 -0.511014E-04  0.523E-03   10.70       1.0  T
   3  -3770.9289510 -0.637520E-06  0.208E-03   10.70       1.0  T
   4  -3770.9289523 -0.125651E-05  0.558E-04   10.70       3.0  T
   5  -3770.9289527 -0.369890E-06  0.130E-04   10.70      13.0  T
   6  -3770.9289527 -0.882665E-08  0.782E-05   10.70      21.5  T
     SCC iter.                  ...        7 min, 21.138 sec
     gradient                   ...        4 min, 43.397 sec
 * total energy  : -3716.0920325 Eh     change    :  -0.2718235E-02 Eh
   gradient norm :     0.0949847 Eh/a0  converged?    E=F G=F D=F
   time step     :     0.2947435 fs     power     :   0.4347530E-07
   step length   :     0.0950724 a0     speed     :   0.7802346E-02
 * RMSD in coord.:     0.0375011 a0     energy gain  -0.7112959E+00 Eh

........................................................................
.............................. CYCLE   21 ..............................
........................................................................

 iter      E             dE          RMSdq      gap      omega  full diag
   1  -3770.8465331 -0.377085E+04  0.589E-03   10.70       0.0  T
   2  -3770.8465553 -0.221463E-04  0.374E-03   10.70       1.0  T
   3  -3770.8465554 -0.146158E-06  0.136E-03   10.70       1.2  T
   4  -3770.8465561 -0.698598E-06  0.370E-04   10.70       4.6  T
   5  -3770.8465563 -0.163431E-06  0.937E-05   10.70      18.0  T
     SCC iter.                  ...        6 min, 13.637 sec
     gradient                   ...        4 min, 44.413 sec
 * total energy  : -3716.0932632 Eh     change    :  -0.1230607E-02 Eh
   gradient norm :     0.1117156 Eh/a0  converged?    E=F G=F D=F
   time step     :     0.2500000 fs     power     :   0.2266859E-07
   step length   :     0.0752636 a0     speed     :   0.7282156E-02

........................................................................
.............................. CYCLE   22 ..............................
........................................................................

 iter      E             dE          RMSdq      gap      omega  full diag
   1  -3770.7996076 -0.377080E+04  0.485E-03   10.71       0.0  T
   2  -3770.7996180 -0.103645E-04  0.308E-03   10.71       1.0  T
   3  -3770.7996179  0.930486E-07  0.884E-04   10.71       1.9  T
   4  -3770.7996184 -0.536080E-06  0.253E-04   10.71       6.6  T
     SCC iter.                  ...        4 min, 57.173 sec
     gradient                   ...        4 min, 46.261 sec
 * total energy  : -3716.0947704 Eh     change    :  -0.1507255E-02 Eh
   gradient norm :     0.1238491 Eh/a0  converged?    E=F G=F D=F
   time step     :     0.2500000 fs     power     :   0.5608035E-07
   step length   :     0.0698800 a0     speed     :   0.6761265E-02

........................................................................
.............................. CYCLE   23 ..............................
........................................................................

 iter      E             dE          RMSdq      gap      omega  full diag
   1  -3770.7874023 -0.377079E+04  0.421E-03   10.71       0.0  T
   2  -3770.7874054 -0.318312E-05  0.263E-03   10.71       1.0  T
   3  -3770.7874053  0.111646E-06  0.405E-04   10.71       4.2  T
   4  -3770.7874056 -0.327225E-06  0.150E-04   10.71      11.2  T
     SCC iter.                  ...        4 min, 56.287 sec
     gradient                   ...        4 min, 45.799 sec
 * total energy  : -3716.0972383 Eh     change    :  -0.2467919E-02 Eh
   gradient norm :     0.1288899 Eh/a0  converged?    E=F G=F D=F
   time step     :     0.2500000 fs     power     :   0.1178165E-06
   step length   :     0.0661596 a0     speed     :   0.6401292E-02

........................................................................
.............................. CYCLE   24 ..............................
........................................................................

 iter      E             dE          RMSdq      gap      omega  full diag
   1  -3770.8074547 -0.377081E+04  0.410E-03   10.72       0.0  T
   2  -3770.8074552 -0.505749E-06  0.246E-03   10.72       1.0  T
   3  -3770.8074553 -0.931545E-07  0.183E-04   10.72       9.2  T
   4  -3770.8074553 -0.465029E-07  0.102E-04   10.72      16.5  T
     SCC iter.                  ...        4 min, 50.041 sec
     gradient                   ...        4 min, 44.875 sec
 * total energy  : -3716.1008795 Eh     change    :  -0.3641187E-02 Eh
   gradient norm :     0.1267743 Eh/a0  converged?    E=F G=F D=F
   time step     :     0.2500000 fs     power     :   0.1835361E-06
   step length   :     0.0646947 a0     speed     :   0.6259563E-02

........................................................................
.............................. CYCLE   25 ..............................
........................................................................

 iter      E             dE          RMSdq      gap      omega  full diag
   1  -3770.8563761 -0.377086E+04  0.442E-03   10.73       0.0  T
   2  -3770.8563774 -0.130054E-05  0.257E-03   10.73       1.0  T
   3  -3770.8563775 -0.297073E-07  0.359E-04   10.73       4.7  T
   4  -3770.8563776 -0.146048E-06  0.116E-04   10.73      14.5  T
     SCC iter.                  ...        5 min,  1.358 sec
     gradient                   ...        4 min, 43.404 sec
 * total energy  : -3716.1055344 Eh     change    :  -0.4654918E-02 Eh
   gradient norm :     0.1184840 Eh/a0  converged?    E=F G=F D=F
   time step     :     0.2500000 fs     power     :   0.2353583E-06
   step length   :     0.0653123 a0     speed     :   0.6319317E-02

........................................................................
.............................. CYCLE   26 ..............................
........................................................................

 iter      E             dE          RMSdq      gap      omega  full diag
   1  -3770.9392245 -0.377094E+04  0.549E-03   10.74       0.0  T
   2  -3770.9392301 -0.554838E-05  0.313E-03   10.74       1.0  T
   3  -3770.9392300  0.102309E-06  0.758E-04   10.74       2.2  T
   4  -3770.9392304 -0.451719E-06  0.172E-04   10.74       9.8  T
     SCC iter.                  ...        5 min,  2.810 sec
     gradient                   ...        4 min, 43.185 sec
 * total energy  : -3716.1113769 Eh     change    :  -0.5842480E-02 Eh
   gradient norm :     0.1041163 Eh/a0  converged?    E=F G=F D=F
   time step     :     0.2750000 fs     power     :   0.2627523E-06
   step length   :     0.0746900 a0     speed     :   0.6569693E-02

........................................................................
.............................. CYCLE   27 ..............................
........................................................................

 iter      E             dE          RMSdq      gap      omega  full diag
   1  -3771.0575581 -0.377106E+04  0.679E-03   10.75       0.0  T
   2  -3771.0575713 -0.132266E-04  0.385E-03   10.75       1.0  T
   3  -3771.0575712  0.147294E-06  0.113E-03   10.75       1.5  T
   4  -3771.0575720 -0.764112E-06  0.248E-04   10.75       6.8  T
   5  -3771.0575721 -0.965106E-07  0.121E-04   10.75      13.9  T
     SCC iter.                  ...        6 min,  8.107 sec
     gradient                   ...        4 min, 44.459 sec
 * total energy  : -3716.1178775 Eh     change    :  -0.6500620E-02 Eh
   gradient norm :     0.0859925 Eh/a0  converged?    E=F G=F D=F
   time step     :     0.3025000 fs     power     :   0.2553411E-06
   step length   :     0.0868348 a0     speed     :   0.6943578E-02

........................................................................
.............................. CYCLE   28 ..............................
........................................................................

 iter      E             dE          RMSdq      gap      omega  full diag
   1  -3771.2090286 -0.377121E+04  0.807E-03   10.76       0.0  T
   2  -3771.2090512 -0.226205E-04  0.455E-03   10.76       1.0  T
   3  -3771.2090511  0.134623E-06  0.143E-03   10.76       1.2  T
   4  -3771.2090521 -0.997848E-06  0.317E-04   10.76       5.3  T
   5  -3771.2090522 -0.159325E-06  0.134E-04   10.76      12.6  T
     SCC iter.                  ...        6 min, 14.700 sec
     gradient                   ...        4 min, 42.108 sec
 * total energy  : -3716.1242323 Eh     change    :  -0.6354773E-02 Eh
   gradient norm :     0.0705809 Eh/a0  converged?    E=F G=F D=F
   time step     :     0.3327500 fs     power     :   0.2134042E-06
   step length   :     0.1010646 a0     speed     :   0.7346762E-02

........................................................................
.............................. CYCLE   29 ..............................
........................................................................

 iter      E             dE          RMSdq      gap      omega  full diag
   1  -3771.3825172 -0.377138E+04  0.895E-03   10.77       0.0  T
   2  -3771.3825453 -0.281029E-04  0.503E-03   10.77       1.0  T
   3  -3771.3825452  0.807222E-07  0.154E-03   10.77       1.1  T
   4  -3771.3825463 -0.103611E-05  0.352E-04   10.76       4.8  T
   5  -3771.3825465 -0.194524E-06  0.143E-04   10.76      11.8  T
   6  -3771.3825465 -0.192140E-07  0.845E-05   10.76      19.9  T
     SCC iter.                  ...        7 min, 26.647 sec
     gradient                   ...        4 min, 44.514 sec
 * total energy  : -3716.1297459 Eh     change    :  -0.5513579E-02 Eh
   gradient norm :     0.0675601 Eh/a0  converged?    E=F G=F D=F
   time step     :     0.3660250 fs     power     :   0.1563964E-06
   step length   :     0.1158587 a0     speed     :   0.7656548E-02

........................................................................
.............................. CYCLE   30 ..............................
........................................................................

 iter      E             dE          RMSdq      gap      omega  full diag
   1  -3771.5542093 -0.377155E+04  0.902E-03   10.77       0.0  T
   2  -3771.5542323 -0.229719E-04  0.504E-03   10.77       1.0  T
   3  -3771.5542323 -0.266700E-07  0.135E-03   10.77       1.2  T
   4  -3771.5542330 -0.715675E-06  0.307E-04   10.77       5.5  T
   5  -3771.5542331 -0.142399E-06  0.130E-04   10.77      12.9  T
     SCC iter.                  ...        6 min, 13.980 sec
     gradient                   ...        4 min, 42.923 sec
 * total energy  : -3716.1344651 Eh     change    :  -0.4719263E-02 Eh
   gradient norm :     0.0757138 Eh/a0  converged?    E=F G=F D=F
   time step     :     0.4026275 fs     power     :   0.1192572E-06
   step length   :     0.1289839 a0     speed     :   0.7749027E-02

........................................................................
.............................. CYCLE   31 ..............................
........................................................................

 iter      E             dE          RMSdq      gap      omega  full diag
   1  -3771.6964959 -0.377170E+04  0.842E-03   10.78       0.0  T
   2  -3771.6965065 -0.106622E-04  0.474E-03   10.78       1.0  T
   3  -3771.6965068 -0.288522E-06  0.877E-04   10.78       1.9  T
   4  -3771.6965071 -0.223618E-06  0.202E-04   10.78       8.3  T
     SCC iter.                  ...        4 min, 58.299 sec
     gradient                   ...        4 min, 44.133 sec
 * total energy  : -3716.1392966 Eh     change    :  -0.4831410E-02 Eh
   gradient norm :     0.0820717 Eh/a0  converged?    E=F G=F D=F
   time step     :     0.4428903 fs     power     :   0.1192174E-06
   step length   :     0.1408692 a0     speed     :   0.7693698E-02

........................................................................
.............................. CYCLE   32 ..............................
........................................................................

 iter      E             dE          RMSdq      gap      omega  full diag
   1  -3771.7863235 -0.377179E+04  0.776E-03   10.78       0.0  T
   2  -3771.7863263 -0.279476E-05  0.454E-03   10.78       1.0  T
   3  -3771.7863262  0.109307E-06  0.621E-04   10.78       2.7  T
   4  -3771.7863268 -0.659395E-06  0.187E-04   10.78       9.0  T
     SCC iter.                  ...        4 min, 57.053 sec
     gradient                   ...        4 min, 44.121 sec
 * total energy  : -3716.1451618 Eh     change    :  -0.5865273E-02 Eh
   gradient norm :     0.0782116 Eh/a0  converged?    E=F G=F D=F
   time step     :     0.4871793 fs     power     :   0.1380063E-06
   step length   :     0.1547787 a0     speed     :   0.7684886E-02

........................................................................
.............................. CYCLE   33 ..............................
........................................................................

 iter      E             dE          RMSdq      gap      omega  full diag
   1  -3771.8088280 -0.377181E+04  0.773E-03   10.80       0.0  T
   2  -3771.8088382 -0.102221E-04  0.484E-03   10.80       1.0  T
   3  -3771.8088368  0.136329E-05  0.112E-03   10.80       1.5  T
   4  -3771.8088393 -0.253030E-05  0.222E-04   10.80       7.6  T
   5  -3771.8088394 -0.324012E-07  0.124E-04   10.80      13.6  T
   6  -3771.8088394 -0.682485E-08  0.514E-05   10.80      32.7  T
     SCC iter.                  ...        7 min, 28.177 sec
     gradient                   ...        4 min, 44.890 sec
 * total energy  : -3716.1519602 Eh     change    :  -0.6798368E-02 Eh
   gradient norm :     0.0655525 Eh/a0  converged?    E=F G=F D=F
   time step     :     0.5358972 fs     power     :   0.1399981E-06
   step length   :     0.1731236 a0     speed     :   0.7814295E-02

........................................................................
.............................. CYCLE   34 ..............................
........................................................................

 iter      E             dE          RMSdq      gap      omega  full diag
   1  -3771.7665041 -0.377177E+04  0.832E-03   10.81       0.0  T
   2  -3771.7665339 -0.298479E-04  0.542E-03   10.81       1.0  T
   3  -3771.7665333  0.594491E-06  0.166E-03   10.81       1.0  T
   4  -3771.7665356 -0.229742E-05  0.394E-04   10.81       4.3  T
   5  -3771.7665358 -0.210242E-06  0.154E-04   10.81      10.9  T
   6  -3771.7665359 -0.147861E-07  0.792E-05   10.81      21.2  T
     SCC iter.                  ...        7 min, 22.565 sec
     gradient                   ...        4 min, 44.573 sec
 * total energy  : -3716.1585068 Eh     change    :  -0.6546620E-02 Eh
   gradient norm :     0.0580946 Eh/a0  converged?    E=F G=F D=F
   time step     :     0.5894869 fs     power     :   0.1101583E-06
   step length   :     0.1951989 a0     speed     :   0.8009739E-02

........................................................................
.............................. CYCLE   35 ..............................
........................................................................

 iter      E             dE          RMSdq      gap      omega  full diag
   1  -3771.6971845 -0.377170E+04  0.886E-03   10.82       0.0  T
   2  -3771.6972197 -0.351394E-04  0.569E-03   10.82       1.0  T
   3  -3771.6972196  0.683558E-07  0.161E-03   10.82       1.0  T
   4  -3771.6972211 -0.153394E-05  0.494E-04   10.82       3.4  T
   5  -3771.6972214 -0.295624E-06  0.173E-04   10.82       9.7  T
   6  -3771.6972214 -0.151276E-07  0.756E-05   10.82      22.2  T
     SCC iter.                  ...        7 min, 25.493 sec
     gradient                   ...        4 min, 44.398 sec
 * total energy  : -3716.1642142 Eh     change    :  -0.5707372E-02 Eh
   gradient norm :     0.0638018 Eh/a0  converged?    E=F G=F D=F
   time step     :     0.6484356 fs     power     :   0.8289252E-07
   step length   :     0.2168704 a0     speed     :   0.8090000E-02

........................................................................
.............................. CYCLE   36 ..............................
........................................................................

 iter      E             dE          RMSdq      gap      omega  full diag
   1  -3771.6628004 -0.377166E+04  0.986E-03   10.84       0.0  T
   2  -3771.6628164 -0.160028E-04  0.593E-03   10.84       1.0  T
   3  -3771.6628172 -0.785673E-06  0.917E-04   10.84       1.8  T
   4  -3771.6628176 -0.443299E-06  0.323E-04   10.84       5.2  T
     SCC iter.                  ...        4 min, 57.580 sec
     gradient                   ...        4 min, 44.274 sec
 * total energy  : -3716.1701877 Eh     change    :  -0.5973512E-02 Eh
   gradient norm :     0.0638726 Eh/a0  converged?    E=F G=F D=F
   time step     :     0.7132792 fs     power     :   0.8508510E-07
   step length   :     0.2374737 a0     speed     :   0.8053249E-02

........................................................................
.............................. CYCLE   37 ..............................
........................................................................

 iter      E             dE          RMSdq      gap      omega  full diag
   1  -3771.7102109 -0.377171E+04  0.119E-02   10.87       0.0  T
   2  -3771.7102190 -0.808114E-05  0.689E-03   10.87       1.0  T
   3  -3771.7102188  0.113143E-06  0.122E-03   10.87       1.4  T
   4  -3771.7102208 -0.198305E-05  0.350E-04   10.87       4.8  T
   5  -3771.7102208 -0.160048E-07  0.125E-04   10.87      13.4  T
   6  -3771.7102209 -0.665568E-08  0.350E-05   10.87      48.0  T
     SCC iter.                  ...        7 min, 20.749 sec
     gradient                   ...        4 min, 44.322 sec
 * total energy  : -3716.1767417 Eh     change    :  -0.6553987E-02 Eh
   gradient norm :     0.0524008 Eh/a0  converged?    E=F G=F D=F
   time step     :     0.7846071 fs     power     :   0.7907617E-07
   step length   :     0.2623684 a0     speed     :   0.8088620E-02

........................................................................
.............................. CYCLE   38 ..............................
........................................................................

 iter      E             dE          RMSdq      gap      omega  full diag
   1  -3771.8393575 -0.377184E+04  0.132E-02   10.90       0.0  T
   2  -3771.8393806 -0.231225E-04  0.762E-03   10.90       1.0  T
   3  -3771.8393796  0.105462E-05  0.170E-03   10.90       1.0  T
   4  -3771.8393829 -0.328744E-05  0.362E-04   10.90       4.7  T
   5  -3771.8393830 -0.105123E-06  0.181E-04   10.90       9.3  T
   6  -3771.8393830 -0.991167E-08  0.602E-05   10.90      27.9  T
     SCC iter.                  ...        7 min, 29.542 sec
     gradient                   ...        4 min, 47.688 sec
 * total energy  : -3716.1821958 Eh     change    :  -0.5454121E-02 Eh
   gradient norm :     0.0536155 Eh/a0  converged?    E=F G=F D=F
   time step     :     0.8630678 fs     power     :   0.4550975E-07
   step length   :     0.2901231 a0     speed     :   0.8131159E-02

........................................................................
.............................. CYCLE   39 ..............................
........................................................................

 iter      E             dE          RMSdq      gap      omega  full diag
   1  -3771.9747314 -0.377197E+04  0.119E-02   10.92       0.0  T
   2  -3771.9747458 -0.144070E-04  0.689E-03   10.92       1.0  T
   3  -3771.9747462 -0.401441E-06  0.102E-03   10.92       1.6  T
   4  -3771.9747470 -0.754118E-06  0.277E-04   10.92       6.1  T
   5  -3771.9747470 -0.490154E-07  0.145E-04   10.92      11.6  T
     SCC iter.                  ...        6 min,  6.664 sec
     gradient                   ...        4 min, 44.128 sec
 * total energy  : -3716.1871226 Eh     change    :  -0.4926824E-02 Eh
   gradient norm :     0.0583626 Eh/a0  converged?    E=F G=F D=F
   time step     :     0.9493746 fs     power     :   0.4123372E-07
   step length   :     0.3134563 a0     speed     :   0.7986463E-02

........................................................................
.............................. CYCLE   40 ..............................
........................................................................

 iter      E             dE          RMSdq      gap      omega  full diag
   1  -3772.0455865 -0.377205E+04  0.115E-02   10.94       0.0  T
   2  -3772.0456016 -0.151168E-04  0.689E-03   10.95       1.0  T
   3  -3772.0455998  0.181065E-05  0.156E-03   10.94       1.1  T
   4  -3772.0456042 -0.435989E-05  0.334E-04   10.95       5.0  T
   5  -3772.0456042 -0.350728E-07  0.178E-04   10.95       9.5  T
   6  -3772.0456042 -0.156001E-07  0.666E-05   10.95      25.3  T
     SCC iter.                  ...        7 min, 19.540 sec
     gradient                   ...        4 min, 45.255 sec
 * total energy  : -3716.1929253 Eh     change    :  -0.5802667E-02 Eh
   gradient norm :     0.0497916 Eh/a0  converged?    E=F G=F D=F
   time step     :     1.0443120 fs     power     :   0.4337299E-07
   step length   :     0.3409753 a0     speed     :   0.7897829E-02

........................................................................
.............................. CYCLE   41 ..............................
........................................................................

 iter      E             dE          RMSdq      gap      omega  full diag
   1  -3772.0669606 -0.377207E+04  0.125E-02   10.97       0.0  T
   2  -3772.0669911 -0.304644E-04  0.775E-03   10.97       1.0  T
   3  -3772.0669892  0.191166E-05  0.176E-03   10.97       1.0  T
   4  -3772.0669941 -0.493028E-05  0.423E-04   10.98       4.0  T
   5  -3772.0669943 -0.160550E-06  0.227E-04   10.98       7.4  T
   6  -3772.0669943 -0.336322E-07  0.103E-04   10.98      16.3  T
     SCC iter.                  ...        7 min, 35.343 sec
     gradient                   ...        4 min, 45.865 sec
 * total energy  : -3716.1979082 Eh     change    :  -0.4982939E-02 Eh
   gradient norm :     0.0501973 Eh/a0  converged?    E=F G=F D=F
   time step     :     1.1487432 fs     power     :   0.2142986E-07
   step length   :     0.3731901 a0     speed     :   0.7858185E-02

........................................................................
.............................. CYCLE   42 ..............................
........................................................................

 iter      E             dE          RMSdq      gap      omega  full diag
   1  -3772.1326875 -0.377213E+04  0.140E-02   11.00       0.0  T
   2  -3772.1326957 -0.824404E-05  0.817E-03   11.00       1.0  T
   3  -3772.1326961 -0.368381E-06  0.984E-04   11.01       1.7  T
   4  -3772.1326972 -0.110799E-05  0.325E-04   11.01       5.2  T
   5  -3772.1326972 -0.318660E-07  0.162E-04   11.01      10.4  T
     SCC iter.                  ...        6 min,  8.657 sec
     gradient                   ...        4 min, 44.483 sec
 * total energy  : -3716.2019555 Eh     change    :  -0.4047272E-02 Eh
   gradient norm :     0.0471232 Eh/a0  converged?    E=F G=F D=F
   time step     :     1.2500000 fs     power     :   0.8666766E-08
   step length   :     0.3970677 a0     speed     :   0.7683687E-02
 * RMSD in coord.:     0.0593905 a0     energy gain  -0.1099230E+00 Eh

........................................................................
.............................. CYCLE   43 ..............................
........................................................................

 iter      E             dE          RMSdq      gap      omega  full diag
   1  -3772.1463529 -0.377215E+04  0.237E-03   11.01       0.0  T
   2  -3772.1463532 -0.265628E-06  0.137E-03   11.01       1.2  T
   3  -3772.1463532  0.587306E-08  0.201E-04   11.01       8.4  T
   4  -3772.1463532 -0.538107E-07  0.568E-05   11.01      29.6  T
     SCC iter.                  ...        4 min, 55.415 sec
     gradient                   ...        4 min, 45.273 sec
 * total energy  : -3716.2025261 Eh     change    :  -0.5705483E-03 Eh
   gradient norm :     0.0474535 Eh/a0  converged?    E=F G=F D=F
   time step     :     0.2500000 fs     power     :   0.2600557E-07
   step length   :     0.0727295 a0     speed     :   0.7036967E-02

........................................................................
.............................. CYCLE   44 ..............................
........................................................................

 iter      E             dE          RMSdq      gap      omega  full diag
   1  -3772.1594500 -0.377216E+04  0.226E-03   11.02       0.0  T
   2  -3772.1594505 -0.521603E-06  0.133E-03   11.02       1.3  T
   3  -3772.1594505  0.220884E-07  0.239E-04   11.02       7.0  T
   4  -3772.1594506 -0.690561E-07  0.505E-05   11.02      33.3  T
     SCC iter.                  ...        4 min, 59.786 sec
     gradient                   ...        4 min, 45.675 sec
 * total energy  : -3716.2033633 Eh     change    :  -0.8372441E-03 Eh
   gradient norm :     0.0440985 Eh/a0  converged?    E=F G=F D=F
   time step     :     0.2500000 fs     power     :   0.4014793E-07
   step length   :     0.0676201 a0     speed     :   0.6542607E-02

........................................................................
.............................. CYCLE   45 ..............................
........................................................................

 iter      E             dE          RMSdq      gap      omega  full diag
   1  -3772.1703420 -0.377217E+04  0.241E-03   11.02       0.0  T
   2  -3772.1703428 -0.825860E-06  0.145E-03   11.02       1.2  T
   3  -3772.1703428  0.118839E-07  0.265E-04   11.02       6.3  T
   4  -3772.1703429 -0.726131E-07  0.609E-05   11.02      27.6  T
     SCC iter.                  ...        5 min,  1.700 sec
     gradient                   ...        4 min, 45.845 sec
 * total energy  : -3716.2043478 Eh     change    :  -0.9844926E-03 Eh
   gradient norm :     0.0381209 Eh/a0  converged?    E=F G=F D=F
   time step     :     0.2500000 fs     power     :   0.4649556E-07
   step length   :     0.0638718 a0     speed     :   0.6179944E-02

........................................................................
.............................. CYCLE   46 ..............................
........................................................................

 iter      E             dE          RMSdq      gap      omega  full diag
   1  -3772.1773118 -0.377218E+04  0.265E-03   11.03       0.0  T
   2  -3772.1773128 -0.100798E-05  0.161E-03   11.03       1.0  T
   3  -3772.1773128 -0.584032E-08  0.273E-04   11.03       6.2  T
   4  -3772.1773129 -0.750506E-07  0.720E-05   11.03      23.4  T
     SCC iter.                  ...        5 min,  2.059 sec
     gradient                   ...        4 min, 45.975 sec
 * total energy  : -3716.2053219 Eh     change    :  -0.9741356E-03 Eh
   gradient norm :     0.0311631 Eh/a0  converged?    E=F G=F D=F
   time step     :     0.2500000 fs     power     :   0.4410902E-07
   step length   :     0.0611179 a0     speed     :   0.5913482E-02

........................................................................
.............................. CYCLE   47 ..............................
........................................................................

 iter      E             dE          RMSdq      gap      omega  full diag
   1  -3772.1786401 -0.377218E+04  0.284E-03   11.03       0.0  T
   2  -3772.1786411 -0.984466E-06  0.172E-03   11.03       1.0  T
   3  -3772.1786411 -0.222735E-07  0.265E-04   11.03       6.3  T
   4  -3772.1786412 -0.787527E-07  0.805E-05   11.03      20.9  T
     SCC iter.                  ...        5 min,  1.473 sec
     gradient                   ...        4 min, 44.782 sec
 * total energy  : -3716.2061514 Eh     change    :  -0.8294313E-03 Eh
   gradient norm :     0.0256098 Eh/a0  converged?    E=F G=F D=F
   time step     :     0.2500000 fs     power     :   0.3521224E-07
   step length   :     0.0589042 a0     speed     :   0.5699295E-02

........................................................................
.............................. CYCLE   48 ..............................
........................................................................

 iter      E             dE          RMSdq      gap      omega  full diag
   1  -3772.1723867 -0.377217E+04  0.317E-03   11.04       0.0  T
   2  -3772.1723877 -0.954669E-06  0.191E-03   11.04       1.0  T
   3  -3772.1723877 -0.274504E-07  0.285E-04   11.04       5.9  T
   4  -3772.1723878 -0.112796E-06  0.953E-05   11.04      17.7  T
     SCC iter.                  ...        4 min, 59.418 sec
     gradient                   ...        4 min, 48.915 sec
 * total energy  : -3716.2068241 Eh     change    :  -0.6727073E-03 Eh
   gradient norm :     0.0239542 Eh/a0  converged?    E=F G=F D=F
   time step     :     0.2750000 fs     power     :   0.2296061E-07
   step length   :     0.0624094 a0     speed     :   0.5489499E-02

........................................................................
.............................. CYCLE   49 ..............................
........................................................................

 iter      E             dE          RMSdq      gap      omega  full diag
   1  -3772.1576096 -0.377216E+04  0.327E-03   11.04       0.0  T
   2  -3772.1576104 -0.831153E-06  0.193E-03   11.04       1.0  T
   3  -3772.1576104 -0.439786E-08  0.316E-04   11.04       5.3  T
   4  -3772.1576106 -0.162998E-06  0.102E-04   11.04      16.4  T
     SCC iter.                  ...        4 min, 54.775 sec
     gradient                   ...        4 min, 45.063 sec
 * total energy  : -3716.2073225 Eh     change    :  -0.4984412E-03 Eh
   gradient norm :     0.0267690 Eh/a0  converged?    E=F G=F D=F
   time step     :     0.3025000 fs     power     :   0.1372299E-07
   step length   :     0.0652135 a0     speed     :   0.5214675E-02

........................................................................
.............................. CYCLE   50 ..............................
........................................................................

 iter      E             dE          RMSdq      gap      omega  full diag
   1  -3772.1363205 -0.377214E+04  0.316E-03   11.05       0.0  T
   2  -3772.1363213 -0.816246E-06  0.183E-03   11.05       1.0  T
   3  -3772.1363213  0.156583E-07  0.336E-04   11.05       5.0  T
   4  -3772.1363214 -0.177940E-06  0.967E-05   11.05      17.4  T
     SCC iter.                  ...        4 min, 53.283 sec
     gradient                   ...        4 min, 47.475 sec
 * total energy  : -3716.2077507 Eh     change    :  -0.4282029E-03 Eh
   gradient norm :     0.0305749 Eh/a0  converged?    E=F G=F D=F
   time step     :     0.3327500 fs     power     :   0.1129244E-07
   step length   :     0.0671591 a0     speed     :   0.4882046E-02

........................................................................
.............................. CYCLE   51 ..............................
........................................................................

 iter      E             dE          RMSdq      gap      omega  full diag
   1  -3772.1119380 -0.377211E+04  0.302E-03   11.05       0.0  T
   2  -3772.1119389 -0.944594E-06  0.173E-03   11.05       1.0  T
   3  -3772.1119389  0.148830E-07  0.335E-04   11.05       5.0  T
   4  -3772.1119390 -0.143802E-06  0.831E-05   11.05      20.2  T
     SCC iter.                  ...        4 min, 58.755 sec
     gradient                   ...        4 min, 43.404 sec
 * total energy  : -3716.2082594 Eh     change    :  -0.5087065E-03 Eh
   gradient norm :     0.0324860 Eh/a0  converged?    E=F G=F D=F
   time step     :     0.3660250 fs     power     :   0.1447697E-07
   step length   :     0.0690909 a0     speed     :   0.4565885E-02

........................................................................
.............................. CYCLE   52 ..............................
........................................................................

 iter      E             dE          RMSdq      gap      omega  full diag
   1  -3772.0884628 -0.377209E+04  0.306E-03   11.06       0.0  T
   2  -3772.0884639 -0.110011E-05  0.175E-03   11.06       1.0  T
   3  -3772.0884639  0.724094E-08  0.318E-04   11.06       5.3  T
   4  -3772.0884640 -0.982895E-07  0.693E-05   11.06      24.3  T
     SCC iter.                  ...        5 min,  2.309 sec
     gradient                   ...        4 min, 43.582 sec
 * total energy  : -3716.2089510 Eh     change    :  -0.6916155E-03 Eh
   gradient norm :     0.0314469 Eh/a0  converged?    E=F G=F D=F
   time step     :     0.4026275 fs     power     :   0.1939568E-07
   step length   :     0.0718926 a0     speed     :   0.4319126E-02

........................................................................
.............................. CYCLE   53 ..............................
........................................................................

 iter      E             dE          RMSdq      gap      omega  full diag
   1  -3772.0704562 -0.377207E+04  0.334E-03   11.06       0.0  T
   2  -3772.0704573 -0.111291E-05  0.194E-03   11.06       1.0  T
   3  -3772.0704573 -0.452519E-08  0.287E-04   11.06       5.9  T
   4  -3772.0704574 -0.710043E-07  0.612E-05   11.06      27.5  T
     SCC iter.                  ...        4 min, 56.456 sec
     gradient                   ...        4 min, 43.201 sec
 * total energy  : -3716.2098195 Eh     change    :  -0.8684139E-03 Eh
   gradient norm :     0.0278658 Eh/a0  converged?    E=F G=F D=F
   time step     :     0.4428903 fs     power     :   0.2194353E-07
   step length   :     0.0761161 a0     speed     :   0.4157150E-02

........................................................................
.............................. CYCLE   54 ..............................
........................................................................

 iter      E             dE          RMSdq      gap      omega  full diag
   1  -3772.0628230 -0.377206E+04  0.374E-03   11.06       0.0  T
   2  -3772.0628239 -0.910030E-06  0.220E-03   11.06       1.0  T
   3  -3772.0628239 -0.100099E-07  0.266E-04   11.06       6.3  T
   4  -3772.0628240 -0.894679E-07  0.747E-05   11.06      22.5  T
     SCC iter.                  ...        5 min,  2.912 sec
     gradient                   ...        4 min, 44.696 sec
 * total energy  : -3716.2107453 Eh     change    :  -0.9258937E-03 Eh
   gradient norm :     0.0236757 Eh/a0  converged?    E=F G=F D=F
   time step     :     0.4871793 fs     power     :   0.1986662E-07
   step length   :     0.0817832 a0     speed     :   0.4060604E-02

........................................................................
.............................. CYCLE   55 ..............................
........................................................................

 iter      E             dE          RMSdq      gap      omega  full diag
   1  -3772.0693605 -0.377207E+04  0.399E-03   11.06       0.0  T
   2  -3772.0693613 -0.772289E-06  0.236E-03   11.06       1.0  T
   3  -3772.0693613  0.176992E-07  0.310E-04   11.06       5.4  T
   4  -3772.0693615 -0.174362E-06  0.101E-04   11.06      16.6  T
     SCC iter.                  ...        4 min, 55.951 sec
     gradient                   ...        4 min, 44.129 sec
 * total energy  : -3716.2115745 Eh     change    :  -0.8291657E-03 Eh
   gradient norm :     0.0218748 Eh/a0  converged?    E=F G=F D=F
   time step     :     0.5358972 fs     power     :   0.1438534E-07
   step length   :     0.0882027 a0     speed     :   0.3981216E-02

........................................................................
.............................. CYCLE   56 ..............................
........................................................................

 iter      E             dE          RMSdq      gap      omega  full diag
   1  -3772.0889840 -0.377209E+04  0.387E-03   11.07       0.0  T
   2  -3772.0889851 -0.117208E-05  0.228E-03   11.07       1.0  T
   3  -3772.0889851  0.201248E-07  0.372E-04   11.07       4.5  T
   4  -3772.0889853 -0.206710E-06  0.116E-04   11.07      14.6  T
     SCC iter.                  ...        4 min, 55.222 sec
     gradient                   ...        4 min, 45.163 sec
 * total energy  : -3716.2122580 Eh     change    :  -0.6834617E-03 Eh
   gradient norm :     0.0234852 Eh/a0  converged?    E=F G=F D=F
   time step     :     0.5894869 fs     power     :   0.9788245E-08
   step length   :     0.0941687 a0     speed     :   0.3864093E-02

........................................................................
.............................. CYCLE   57 ..............................
........................................................................

 iter      E             dE          RMSdq      gap      omega  full diag
   1  -3772.1140080 -0.377211E+04  0.352E-03   11.07       0.0  T
   2  -3772.1140096 -0.168649E-05  0.207E-03   11.07       1.0  T
   3  -3772.1140097 -0.235618E-07  0.393E-04   11.07       4.3  T
   4  -3772.1140098 -0.131450E-06  0.111E-04   11.07      15.2  T
     SCC iter.                  ...        4 min, 56.468 sec
     gradient                   ...        4 min, 44.261 sec
 * total energy  : -3716.2129299 Eh     change    :  -0.6719011E-03 Eh
   gradient norm :     0.0260124 Eh/a0  converged?    E=F G=F D=F
   time step     :     0.6484356 fs     power     :   0.9600601E-08
   step length   :     0.0995114 a0     speed     :   0.3712111E-02

........................................................................
.............................. CYCLE   58 ..............................
........................................................................

 iter      E             dE          RMSdq      gap      omega  full diag
   1  -3772.1339563 -0.377213E+04  0.334E-03   11.08       0.0  T
   2  -3772.1339577 -0.139485E-05  0.196E-03   11.08       1.0  T
   3  -3772.1339577 -0.476502E-07  0.334E-04   11.08       5.0  T
   4  -3772.1339578 -0.728905E-07  0.929E-05   11.08      18.1  T
     SCC iter.                  ...        4 min, 58.110 sec
     gradient                   ...        4 min, 44.052 sec
 * total energy  : -3716.2138118 Eh     change    :  -0.8819715E-03 Eh
   gradient norm :     0.0261928 Eh/a0  converged?    E=F G=F D=F
   time step     :     0.7132792 fs     power     :   0.1328997E-07
   step length   :     0.1059032 a0     speed     :   0.3591409E-02

........................................................................
.............................. CYCLE   59 ..............................
........................................................................

 iter      E             dE          RMSdq      gap      omega  full diag
   1  -3772.1392446 -0.377214E+04  0.367E-03   11.08       0.0  T
   2  -3772.1392453 -0.742709E-06  0.215E-03   11.08       1.0  T
   3  -3772.1392454 -0.654331E-07  0.283E-04   11.08       5.9  T
   4  -3772.1392455 -0.788559E-07  0.985E-05   11.08      17.1  T
     SCC iter.                  ...        4 min, 57.479 sec
     gradient                   ...        4 min, 44.014 sec
 * total energy  : -3716.2149780 Eh     change    :  -0.1166184E-02 Eh
   gradient norm :     0.0226002 Eh/a0  converged?    E=F G=F D=F
   time step     :     0.7846071 fs     power     :   0.1602714E-07
   step length   :     0.1153164 a0     speed     :   0.3555117E-02

........................................................................
.............................. CYCLE   60 ..............................
........................................................................

 iter      E             dE          RMSdq      gap      omega  full diag
   1  -3772.1244564 -0.377212E+04  0.435E-03   11.08       0.0  T
   2  -3772.1244578 -0.142390E-05  0.253E-03   11.08       1.0  T
   3  -3772.1244579 -0.878649E-07  0.403E-04   11.08       4.2  T
   4  -3772.1244580 -0.134576E-06  0.120E-04   11.08      14.0  T
     SCC iter.                  ...        4 min, 56.542 sec
     gradient                   ...        4 min, 46.138 sec
 * total energy  : -3716.2161936 Eh     change    :  -0.1215521E-02 Eh
   gradient norm :     0.0199195 Eh/a0  converged?    E=F G=F D=F
   time step     :     0.8630678 fs     power     :   0.1337430E-07
   step length   :     0.1279341 a0     speed     :   0.3585555E-02

........................................................................
.............................. CYCLE   61 ..............................
........................................................................

 iter      E             dE          RMSdq      gap      omega  full diag
   1  -3772.0949321 -0.377209E+04  0.453E-03   11.08       0.0  T
   2  -3772.0949346 -0.245740E-05  0.261E-03   11.08       1.0  T
   3  -3772.0949347 -0.100488E-06  0.497E-04   11.08       3.4  T
   4  -3772.0949348 -0.137219E-06  0.122E-04   11.08      13.8  T
     SCC iter.                  ...        4 min, 54.176 sec
     gradient                   ...        4 min, 44.762 sec
 * total energy  : -3716.2173127 Eh     change    :  -0.1119179E-02 Eh
   gradient norm :     0.0228351 Eh/a0  converged?    E=F G=F D=F
   time step     :     0.9493746 fs     power     :   0.1095701E-07
   step length   :     0.1410327 a0     speed     :   0.3593332E-02

........................................................................
.............................. CYCLE   62 ..............................
........................................................................

 iter      E             dE          RMSdq      gap      omega  full diag
   1  -3772.0688753 -0.377207E+04  0.422E-03   11.08       0.0  T
   2  -3772.0688770 -0.171799E-05  0.242E-03   11.08       1.0  T
   3  -3772.0688771 -0.953719E-07  0.437E-04   11.08       3.8  T
   4  -3772.0688772 -0.121228E-06  0.117E-04   11.08      14.3  T
     SCC iter.                  ...        4 min, 57.618 sec
     gradient                   ...        4 min, 44.983 sec
 * total energy  : -3716.2186664 Eh     change    :  -0.1353642E-02 Eh
   gradient norm :     0.0217247 Eh/a0  converged?    E=F G=F D=F
   time step     :     1.0443120 fs     power     :   0.1370281E-07
   step length   :     0.1548001 a0     speed     :   0.3585553E-02

........................................................................
.............................. CYCLE   63 ..............................
........................................................................

[...]
  3287   6 C     3288   6 C                                       1.5287514
  3287   6 C     3289   6 C                                       1.5379184
  3289   6 C     3290   6 C                                       1.5355571
  3290   6 C     3291   6 C                                       1.5264178
  3290   6 C     3292   6 C                                       1.5372883
  3292   6 C     3293   6 C                                       1.5352254
  3293   6 C     3294   6 C                                       1.5287298
  3295   6 C     3296   6 C                                       1.5338956
  3296   6 C     3297   6 C                                       1.5270685
  3296   6 C     3298   6 C                                       1.5347447
  3298   6 C     3299   6 C                                       1.5352787
  3299   6 C     3300   6 C                                       1.5281732
  3299   6 C     3301   6 C                                       1.5336087
  3301   6 C     3302   6 C                                       1.5332640
  3302   6 C     3303   6 C                                       1.5293002
  3302   6 C     3304   6 C                                       1.5357490
  3304   6 C     3305   6 C                                       1.5342718
  3305   6 C     3306   6 C                                       1.5269625
  3305   6 C     3307   6 C                                       1.5355589
  3307   6 C     3308   6 C                                       1.5341541
  3308   6 C     3309   6 C                                       1.5292079
  3310   6 C     3311   6 C                                       1.5330619
  3311   6 C     3312   6 C                                       1.5284777
  3311   6 C     3313   6 C                                       1.5353106
  3313   6 C     3314   6 C                                       1.5334777
  3314   6 C     3315   6 C                                       1.5288171
  3314   6 C     3316   6 C                                       1.5377872
  3316   6 C     3317   6 C                                       1.5324884
  3317   6 C     3318   6 C                                       1.5279612
  3317   6 C     3319   6 C                                       1.5371425
  3319   6 C     3320   6 C                                       1.5335233
  3320   6 C     3321   6 C                                       1.5279388
  3320   6 C     3322   6 C                                       1.5382481
  3322   6 C     3323   6 C                                       1.5347541
  3323   6 C     3324   6 C                                       1.5287604
  3323   6 C     3325   6 C                                       1.5381110
  3325   6 C     3326   6 C                                       1.5331754
  3326   6 C     3327   6 C                                       1.5288922
  3326   6 C     3328   6 C                                       1.5381044
  3328   6 C     3329   6 C                                       1.5338901
  3329   6 C     3330   6 C                                       1.5289160
  3329   6 C     3331   6 C                                       1.5359165
  3331   6 C     3332   6 C                                       1.5357020
  3332   6 C     3333   6 C                                       1.5250799
  3332   6 C     3334   6 C                                       1.5359624
  3334   6 C     3335   6 C                                       1.5358730
  3335   6 C     3336   6 C                                       1.5291009
  3335   6 C     3337   6 C                                       1.5327365
  3337   6 C     3338   6 C                                       1.5340173
  3338   6 C     3339   6 C                                       1.5260109
  3338   6 C     3340   6 C                                       1.5318219
  3340   6 C     3341   6 C                                       1.5380022
  3341   6 C     3342   6 C                                       1.5279274
  3341   6 C     3343   6 C                                       1.5329997
  3343   6 C     3344   6 C                                       1.5381250
  3344   6 C     3345   6 C                                       1.5281429
  3344   6 C     3346   6 C                                       1.5323801
  3346   6 C     3347   6 C                                       1.5382453
  3347   6 C     3348   6 C                                       1.5288917
  3347   6 C     3349   6 C                                       1.5332835
  3349   6 C     3350   6 C                                       1.5364435
  3350   6 C     3351   6 C                                       1.5300022
  3350   6 C     3352   6 C                                       1.5310919
  3352   6 C     3353   6 C                                       1.5276700
  3353   6 C     3354   6 C                                       1.5241085
  3265   6 C     3355   1 H                                       1.0881676
  3265   6 C     3356   1 H                                       1.0869014
  3265   6 C     3357   1 H                                       1.0887591
  3354   6 C     3358   1 H                                       1.0872252
  3354   6 C     3359   1 H                                       1.0879398
  3354   6 C     3360   1 H                                       1.0881666
  3352   6 C     3361   1 H                                       1.0904223
  3352   6 C     3362   1 H                                       1.0925106
  3349   6 C     3363   1 H                                       1.0916752
  3349   6 C     3364   1 H                                       1.0946005
  3347   6 C     3365   1 H                                       1.0938533
  3348   6 C     3366   1 H                                       1.0870992
  3348   6 C     3367   1 H                                       1.0881081
  3348   6 C     3368   1 H                                       1.0879978
  3346   6 C     3369   1 H                                       1.0914812
  3346   6 C     3370   1 H                                       1.0930096
  3343   6 C     3371   1 H                                       1.0920760
  3343   6 C     3372   1 H                                       1.0941590
  3350   6 C     3373   1 H                                       1.0955461
  3351   6 C     3374   1 H                                       1.0884829
  3351   6 C     3375   1 H                                       1.0870712
  3351   6 C     3376   1 H                                       1.0887966
  3344   6 C     3377   1 H                                       1.0936722
  3345   6 C     3378   1 H                                       1.0877478
  3345   6 C     3379   1 H                                       1.0877881
  3345   6 C     3380   1 H                                       1.0863404
  3341   6 C     3381   1 H                                       1.0940240
  3342   6 C     3382   1 H                                       1.0863816
  3342   6 C     3383   1 H                                       1.0884840
  3342   6 C     3384   1 H                                       1.0881071
  3340   6 C     3385   1 H                                       1.0925074
  3340   6 C     3386   1 H                                       1.0944174
  3338   6 C     3387   1 H                                       1.0930268
  3339   6 C     3388   1 H                                       1.0844110 (min)
  3339   6 C     3389   1 H                                       1.0872706
  3339   6 C     3390   1 H                                       1.0888743
  3337   6 C     3391   1 H                                       1.0924517
  3337   6 C     3392   1 H                                       1.0932605
  3335   6 C     3393   1 H                                       1.0946242
  3336   6 C     3394   1 H                                       1.0867008
  3336   6 C     3395   1 H                                       1.0871541
  3336   6 C     3396   1 H                                       1.0882173
  3334   6 C     3397   1 H                                       1.0938458
  3334   6 C     3398   1 H                                       1.0934894
  3332   6 C     3399   1 H                                       1.0941704
  3333   6 C     3400   1 H                                       1.0869170
  3333   6 C     3401   1 H                                       1.0867305
  3333   6 C     3402   1 H                                       1.0877933
  3331   6 C     3403   1 H                                       1.0941924
  3331   6 C     3404   1 H                                       1.0939368
  3329   6 C     3405   1 H                                       1.0938781
  3330   6 C     3406   1 H                                       1.0885340
  3330   6 C     3407   1 H                                       1.0872900
  3330   6 C     3408   1 H                                       1.0866817
  3328   6 C     3409   1 H                                       1.0925732
  3328   6 C     3410   1 H                                       1.0941977
  3326   6 C     3411   1 H                                       1.0927468
  3327   6 C     3412   1 H                                       1.0881305
  3327   6 C     3413   1 H                                       1.0888951
  3327   6 C     3414   1 H                                       1.0872013
  3325   6 C     3415   1 H                                       1.0903392
  3325   6 C     3416   1 H                                       1.0941336
  3323   6 C     3417   1 H                                       1.0931297
  3324   6 C     3418   1 H                                       1.0877632
  3324   6 C     3419   1 H                                       1.0886141
  3324   6 C     3420   1 H                                       1.0863978
  3322   6 C     3421   1 H                                       1.0913941
  3322   6 C     3422   1 H                                       1.0933481
  3320   6 C     3423   1 H                                       1.0935148
  3321   6 C     3424   1 H                                       1.0868118
  3321   6 C     3425   1 H                                       1.0877924
  3321   6 C     3426   1 H                                       1.0875971
  3319   6 C     3427   1 H                                       1.0916058
  3319   6 C     3428   1 H                                       1.0934035
  3317   6 C     3429   1 H                                       1.0941493
  3318   6 C     3430   1 H                                       1.0862257
  3318   6 C     3431   1 H                                       1.0866654
  3318   6 C     3432   1 H                                       1.0875705
  3316   6 C     3433   1 H                                       1.0897765
  3316   6 C     3434   1 H                                       1.0927466
  3314   6 C     3435   1 H                                       1.0941302
  3315   6 C     3436   1 H                                       1.0886037
  3315   6 C     3437   1 H                                       1.0874733
  3315   6 C     3438   1 H                                       1.0885378
  3313   6 C     3439   1 H                                       1.0922965
  3313   6 C     3440   1 H                                       1.0921222
  3311   6 C     3441   1 H                                       1.0950425
  3312   6 C     3442   1 H                                       1.0888427
  3312   6 C     3443   1 H                                       1.0882073
  3312   6 C     3444   1 H                                       1.0875899
  3310   6 C     3445   1 H                                       1.0898130
  3310   6 C     3446   1 H                                       1.0908998
  3308   6 C     3447   1 H                                       1.0952444
  3309   6 C     3448   1 H                                       1.0887745
  3309   6 C     3449   1 H                                       1.0877455
  3309   6 C     3450   1 H                                       1.0880343
  3307   6 C     3451   1 H                                       1.0921330
  3307   6 C     3452   1 H                                       1.0933598
  3305   6 C     3453   1 H                                       1.0924060
  3306   6 C     3454   1 H                                       1.0887408
  3306   6 C     3455   1 H                                       1.0872302
  3306   6 C     3456   1 H                                       1.0876952
  3304   6 C     3457   1 H                                       1.0925188
  3304   6 C     3458   1 H                                       1.0939427
  3302   6 C     3459   1 H                                       1.0935853
  3303   6 C     3460   1 H                                       1.0886870
  3303   6 C     3461   1 H                                       1.0881322
  3303   6 C     3462   1 H                                       1.0864578
  3301   6 C     3463   1 H                                       1.0912693
  3301   6 C     3464   1 H                                       1.0939550
  3299   6 C     3465   1 H                                       1.0929296
  3300   6 C     3466   1 H                                       1.0872226
  3300   6 C     3467   1 H                                       1.0883559
  3300   6 C     3468   1 H                                       1.0883841
  3298   6 C     3469   1 H                                       1.0913905
  3298   6 C     3470   1 H                                       1.0926551
  3296   6 C     3471   1 H                                       1.0957471
  3297   6 C     3472   1 H                                       1.0873767
  3297   6 C     3473   1 H                                       1.0887154
  3297   6 C     3474   1 H                                       1.0866915
  3295   6 C     3475   1 H                                       1.0901566
  3295   6 C     3476   1 H                                       1.0925560
  3293   6 C     3477   1 H                                       1.0942656
  3294   6 C     3478   1 H                                       1.0874473
  3294   6 C     3479   1 H                                       1.0886361
  3294   6 C     3480   1 H                                       1.0885028
  3292   6 C     3481   1 H                                       1.0934468
  3292   6 C     3482   1 H                                       1.0931928
  3290   6 C     3483   1 H                                       1.0933529
  3291   6 C     3484   1 H                                       1.0889808
  3291   6 C     3485   1 H                                       1.0858485
  3291   6 C     3486   1 H                                       1.0876600
  3289   6 C     3487   1 H                                       1.0942952
  3289   6 C     3488   1 H                                       1.0934997
  3287   6 C     3489   1 H                                       1.0906920
  3288   6 C     3490   1 H                                       1.0880368
  3288   6 C     3491   1 H                                       1.0887148
  3288   6 C     3492   1 H                                       1.0865699
  3286   6 C     3493   1 H                                       1.0916423
  3286   6 C     3494   1 H                                       1.0941914
  3284   6 C     3495   1 H                                       1.0918884
  3285   6 C     3496   1 H                                       1.0866148
  3285   6 C     3497   1 H                                       1.0884186
  3285   6 C     3498   1 H                                       1.0886972
  3283   6 C     3499   1 H                                       1.0913531
  3283   6 C     3500   1 H                                       1.0928295
  3281   6 C     3501   1 H                                       1.0920252
  3282   6 C     3502   1 H                                       1.0886012
  3282   6 C     3503   1 H                                       1.0870718
  3282   6 C     3504   1 H                                       1.0883070
  3280   6 C     3505   1 H                                       1.0937812
  3280   6 C     3506   1 H                                       1.0942825
  3278   6 C     3507   1 H                                       1.0933398
  3279   6 C     3508   1 H                                       1.0877593
  3279   6 C     3509   1 H                                       1.0861710
  3279   6 C     3510   1 H                                       1.0864923
  3277   6 C     3511   1 H                                       1.0935139
  3277   6 C     3512   1 H                                       1.0938602
  3275   6 C     3513   1 H                                       1.0941267
  3276   6 C     3514   1 H                                       1.0862462
  3276   6 C     3515   1 H                                       1.0879546
  3276   6 C     3516   1 H                                       1.0883350
  3274   6 C     3517   1 H                                       1.0906829
  3274   6 C     3518   1 H                                       1.0922874
  3272   6 C     3519   1 H                                       1.0939209
  3273   6 C     3520   1 H                                       1.0865661
  3273   6 C     3521   1 H                                       1.0872835
  3273   6 C     3522   1 H                                       1.0883595
  3271   6 C     3523   1 H                                       1.0921430
  3271   6 C     3524   1 H                                       1.0923722
  3269   6 C     3525   1 H                                       1.0933683
  3270   6 C     3526   1 H                                       1.0872692
  3270   6 C     3527   1 H                                       1.0883616
  3270   6 C     3528   1 H                                       1.0886993
  3268   6 C     3529   1 H                                       1.0924441
  3268   6 C     3530   1 H                                       1.0934814
  3266   6 C     3531   1 H                                       1.0954906
  3267   6 C     3532   1 H                                       1.0881070
  3267   6 C     3533   1 H                                       1.0879053
  3267   6 C     3534   1 H                                       1.0882144
  3353   6 C     3535   1 H                                       1.0913507
  3353   6 C     3536   1 H                                       1.0937035

 * 2 distinct bonds (by element types)

   Z      Z             #   av. dist./Å        max./Å        min./Å
   1 H    6 C        2366     1.0903189     1.0973163     1.0844110
   6 C    6 C        1117     1.5323950     1.5399398     1.5234044


optimized geometry written to: xtbopt.xyz


           -------------------------------------------------
          | TOTAL ENERGY            -3716.283821297788 Eh   |
          | GRADIENT NORM               0.000718948865 Eh/α |
          | HOMO-LUMO GAP              11.175377974850 eV   |
           -------------------------------------------------

------------------------------------------------------------------------
 * finished run on 2024/06/25 at 16:32:12.399     
------------------------------------------------------------------------
 total:
 * wall-time:     4 d,  7 h, 12 min, 53.773 sec
 *  cpu-time:    22 d,  8 h, 34 min, 42.156 sec
 * ratio c/w:     5.199 speedup
 SCF:
 * wall-time:     0 d,  0 h,  9 min,  4.802 sec
 *  cpu-time:     0 d,  0 h, 46 min, 39.112 sec
 * ratio c/w:     5.138 speedup
 ANC optimizer:
 * wall-time:     4 d,  7 h,  2 min, 21.325 sec
 *  cpu-time:    22 d,  7 h, 46 min, 18.292 sec
 * ratio c/w:     5.200 speedup

