3864
 energy: -5104.259606421449 gnorm: 0.000785886081 xtb: 6.6.1 (8d0f1dd)
C           58.01745626961897       43.75365421296206       65.11407570909047
C           58.24989621226495       42.42335249521224       64.78327527549655
C           59.30260071878553       42.12758514769126       63.92776078012516
C           60.10456508024669       43.13136340810160       63.41467888633657
C           59.85552066991870       44.45243444366166       63.73853180572297
C           58.81037897868710       44.75985282754424       64.59301120002570
C           57.40046681390040       41.31354213573127       65.35058687208119
C           57.72886464414280       41.11884838700339       66.83344175291562
C           55.90423721232966       41.59377936416173       65.14065285368723
C           55.05557797532500       40.31219929220139       65.11566639249857
C           53.62225627537539       40.59902270662856       65.48357042116767
C           52.91501044763067       41.62361976163726       64.86385681012680
C           51.59173669939246       41.86159797810205       65.18575428639710
C           50.94826579706776       41.08048168062097       66.13041572549670
C           51.64454488329892       40.06527337949634       66.76101573533114
C           52.97000393137507       39.83060146089908       66.43998643644849
C           55.13523863916622       39.64421428544228       63.73443345488705
C           54.43138450691939       38.27398855376389       63.68692170251861
C           55.23978747927625       37.27420011673355       62.90005875339166
C           55.59298914557404       36.04836812304610       63.44753780500069
C           56.33405997157184       35.13174044942407       62.72163301365913
C           56.72496404310357       35.42535836306503       61.42750223175956
C           56.38098641655183       36.64546370927870       60.86987499700717
C           55.65056818055910       37.56226538070015       61.60290559860451
C           53.02226647291047       38.39867301974742       63.08906808967811
C           52.18713207964274       37.11145612157112       63.26519219324301
C           51.00183115488251       37.38490744920544       64.15641812896746
C           50.88988091484938       36.76743375947023       65.39449093129848
C           49.81913262762046       37.03669574061311       66.23002352820328
C           48.84375132513870       37.93676795222521       65.83940659346621
C           48.94509469438335       38.56141704369788       64.60789754506312
C           50.01332774765915       38.28628831604270       63.77500364034177
C           51.75103636602038       36.53935558025726       61.90970388658230
C           51.08267185314575       35.16661996503755       62.04628814197787
C           52.07184408631901       34.14712754194486       62.55498843627370
C           53.17345321422962       33.77359507625430       61.79320600679959
C           54.06167553706975       32.81926786027244       62.25280732739557
C           53.87326499777017       32.22933023535732       63.49108835101111
C           52.78453150343094       32.59711896693539       64.26247332650948
C           51.89021366306581       33.54308847149832       63.79274974115399
C           50.49992077315139       34.67693193519623       60.70987232686443
C           49.20846197115466       35.37832689613180       60.26008885927305
C           48.89744162906657       34.98984102477143       58.83460728084148
C           48.80737632117086       35.95687797997450       57.84171095107965
C           48.48761983150408       35.61322900244722       56.53943689692736
C           48.26247596500661       34.28955969556357       56.20600356049034
C           48.36223694361911       33.31366422338149       57.18302022795056
C           48.67398278505312       33.66186771658302       58.48489838482708
C           48.02266667537984       35.04181643788700       61.17762806668919
C           46.68734071928356       35.56817370365665       60.63164028088526
C           46.72848511149756       37.04945651023093       60.35710848543588
C           47.15241075380261       37.95026351049430       61.32677331948582
C           47.20120124869034       39.30628141662582       61.05790296104546
C           46.81748775750942       39.78539150131142       59.81673129854946
C           46.36742606529654       38.90165142520769       58.85138809981976
C           46.32618553490587       37.54446038637438       59.12206610628255
C           45.54300699912930       35.23552650452197       61.60203509484271
C           44.16151935169101       35.41608136453975       60.95356160903164
C           43.07356761077935       35.56545880328364       61.98708811728743
C           42.94794966499744       34.66166423225265       63.03580589671639
C           41.92683631067222       34.78489377304395       63.96074624136511
C           41.00636151842691       35.81286340927969       63.85027974762843
C           41.11992142177856       36.71682012027122       62.80978125340349
C           42.14452040379830       36.59391455345179       61.88877759468099
C           43.83546207408190       34.22844306699347       60.03437099170779
C           42.60386030834820       34.46504560276406       59.14582591469988
C           42.08624456248527       33.13341627732842       58.66077274633250
C           42.79281968847655       32.37029704380516       57.73713335708698
C           42.30786249238688       31.14757260645601       57.30912227672165
C           41.11128673366833       30.65852568183892       57.80590497274149
C           40.40577235977420       31.40287157922047       58.73571085312818
C           40.89002595107942       32.62940619058644       59.15579790325949
C           42.91182276360590       35.40637185203315       57.97325963386437
C           41.68426685752381       35.57671829374596       57.06934291360913
C           40.54478378202754       36.21759650243701       57.81797013310537
C           40.68502348364837       37.47255538364360       58.39886992727641
C           39.64148747273637       38.05380907648966       59.09275195383545
C           38.43232926391127       37.39030606671820       59.21379789170081
C           38.27453476010165       36.14694537758286       58.62668342386633
C           39.32353788890549       35.56664435128501       57.93456535002971
C           41.99673163337714       36.36711080534266       55.78707839189438
C           41.08512524534404       35.89522259931796       54.64155272653782
C           40.87221332669278       36.95639851313685       53.59545546117288
C           41.94585288073067       37.56737968765750       52.95818601888108
C           41.73239536954941       38.51895766575623       51.97820361827545
C           40.44388960875172       38.88254120425774       51.62566862365378
C           39.36667697509452       38.28643116939847       52.25720367388972
C           39.58321047709868       37.32736839282296       53.23087730934187
C           41.68438750532491       34.63719771605734       53.99697364180900
C           40.70264624989466       33.92220156022367       53.06496062581504
C           39.47489910943455       33.47359458377979       53.81871306414401
C           39.56867548947785       32.69951105293838       54.96999588697998
C           38.43304165696867       32.30738876767520       55.65536125914436
C           37.17918632923976       32.67386262724446       55.19656106214479
C           37.07166489169750       33.42983686550581       54.04200396168247
C           38.21017672437100       33.82451521994033       53.36234405902232
C           41.34613471178418       32.71230739621060       52.36602010109591
C           42.33736304439529       33.09810676255527       51.25916534682338
C           43.65343589788909       33.61182893166237       51.78670422696540
C           44.42616446670731       32.86042822757644       52.66556700076028
C           45.63984940018781       33.33640597935725       53.12797516500600
C           46.10642445294551       34.57107861064512       52.71052518375478
C           45.36051326109933       35.31860495347149       51.81619042484851
C           44.14720530914514       34.83852690979201       51.35729848004829
C           42.62992553199932       31.90613392194418       50.32859259336882
C           41.52133231852850       31.63149989272216       49.30158752800583
C           41.67931151986525       30.24224688302306       48.73668273870114
C           40.63553830455614       29.32825428863164       48.79235820077195
C           40.77474303125560       28.05477258468716       48.26769912427230
C           41.96886656912807       27.67229584764507       47.68208856088551
C           43.02010639060060       28.57221973691320       47.62666315152292
C           42.87506416399670       29.84469940414215       48.14664172108861
C           41.54061384591929       32.66428623411990       48.16590646714687
C           40.22277812714854       32.69261024239348       47.37975230141524
C           39.08341575442329       33.13630761823808       48.26255363250898
C           38.02633164238456       32.27781359232043       48.53656432659328
C           36.97217216650476       32.67958925498781       49.33838737605785
C           36.95818103101183       33.95330350853944       49.87911432888774
C           38.00742761242950       34.81739284286169       49.61591328072407
C           39.05999504824490       34.41099212162664       48.81729352718641
C           40.35904657777069       33.61663563684894       46.16211608423215
C           39.06187214666522       33.70250812975474       45.34757990525648
C           38.70705390801923       32.36538500759625       44.74996706928668
C           37.50899412561834       31.74582364886479       45.08393746976410
C           37.17408015169030       30.51128830237106       44.55667271109136
C           38.03978623703880       29.86826744464409       43.68833622678059
C           39.23712074033998       30.47402212216440       43.34827217405785
C           39.56268977409344       31.71274227115737       43.86993636724232
C           39.16604850864957       34.79333630170891       44.27295298813768
C           37.81517544286938       35.08067179918685       43.59702341130509
C           36.74870111430776       35.37088621710450       44.62230606503510
C           36.89893890952249       36.39259877202251       45.55314276726151
C           35.92132367934514       36.63563556510996       46.49980060830784
C           34.76959606930399       35.86853168621166       46.52765331793059
C           34.60584755033768       34.85204050652307       45.60262978541152
C           35.59004702254201       34.60547608919136       44.66154116701384
C           37.96926732442202       36.25489244775820       42.62029643922627
C           36.67213371511090       36.63112647183966       41.89126282131062
C           36.15648563300289       35.48494461557883       41.05910538631170
C           34.90142262448191       34.94180797124157       41.30287145658327
C           34.41998579011087       33.89218737726281       40.54001602917065
C           35.18924859727940       33.36705269067637       39.51556688360000
C           36.43920882697049       33.90314120866925       39.25802248344073
C           36.91346612724850       34.95325681558788       40.02142356070765
C           36.90447328137564       37.86941521829359       41.01232362258589
C           35.59051797617713       38.44678980170693       40.46626204223497
H           57.66318424701497       40.39052781873935       64.82203231706698
H           55.54338553351408       42.24327448244902       65.94095849789257
H           55.77393334020940       42.12613760733755       64.19667450557660
H           55.46201070998706       39.61235456472793       65.85423714103678
H           54.68847749594266       40.31125540647611       62.99522480112203
H           56.18845025415464       39.51882084506333       63.47332494335745
H           54.32933428758700       37.90064471650393       64.71143674820586
H           52.51352417786342       39.23005404636408       63.57942386696505
H           53.11377633470924       38.64020220998564       62.02862774680132
H           52.81132216031335       36.35288346089588       63.74949859176701
H           52.63318044702575       36.44019294718983       61.27366840252012
H           50.27460274039711       35.24997095014992       62.77955769000694
H           51.25451959876310       34.80497394054030       59.93033914461927
H           50.30566186364921       33.60518964345558       60.79833128702940
H           49.36143937082235       36.46142308503867       60.29098513222021
H           47.94739595978561       33.95735623773492       61.28863140187558
H           48.20169082106548       35.46020206811142       62.16908363969246
H           46.49490289791687       35.05437502487406       59.68437159411985
H           45.65414697793889       34.20411381992415       61.94334647578540
H           45.61517558231878       35.88549553840978       62.47747477816615
H           44.19057141395214       36.33229839723791       60.35654416434399
H           41.82159808167797       34.92476151896106       59.76046877571492
H           43.22986317472856       36.37490674503118       58.35875927654078
H           43.73269710728840       34.99668851252695       57.38110398704927
H           41.36378022457117       34.57187753492799       56.77561441976012
H           41.84994003091156       37.43361003068744       55.96663542130776
H           43.03931678798634       36.21418814567709       55.50220655665088
H           40.10787442958843       35.64297634616672       55.07058254951489
H           42.56854122332620       34.92632904347045       53.43107398541981
H           42.00568271980723       33.94712175068494       54.77875075222333
H           40.38113241070324       34.62832636233416       52.29025351900874
H           41.83402770607044       32.08171823792801       53.11083359323383
H           40.54307237698301       32.12169226562290       51.91756489173999
H           41.87305256575257       33.89369916191931       50.66770800693658
H           43.56253303663129       32.09677238463107       49.79405587470249
H           42.77844373734688       31.01004953636212       50.93550171175551
H           40.55099868233901       31.69139781481209       49.80548665752910
H           41.72667537204002       33.65771685696146       48.57443963647371
H           42.35555881641712       32.42119685113887       47.48330788627253
H           40.01114644946027       31.67793737821634       47.02170244590303
H           40.62569582601789       34.62024672133283       46.49958358864880
H           41.16806978873563       33.24199604478556       45.53344521738168
H           38.25918822146487       33.99064311442558       46.03512483272754
H           39.53507149634662       35.70680144622964       44.74385606015277
H           39.89115631768959       34.49811472107749       43.51187707346618
H           37.50903647696308       34.19219215917490       43.03139341238145
H           38.31177994990247       37.12765436700630       43.18018691298363
H           38.73166800153337       35.99324715956772       41.88434245096163
H           57.20959698196184       44.00450425829152       65.78671813088162
H           58.61615870190248       45.79049209412014       64.85239025821404
H           60.47622960528224       45.23741100742920       63.33535150961441
H           60.92821075030422       42.87373280633636       62.76312861652676
H           59.50088875226955       41.09877840183965       63.65976368005345
H           53.40038039985730       42.24719763702581       64.12747413290485
H           51.05973968267879       42.66314275183738       64.69588463206213
H           49.91285391245934       41.26317459965357       66.37850805074874
H           51.15362464454544       39.45258253874257       67.50348633380671
H           53.50433129620285       39.03607868894765       66.94362667394290
H           55.29205283417136       35.80464197210080       64.45783303294117
H           56.60571801615520       34.18705804177833       63.17039894559494
H           57.29989686543541       34.70964997765250       60.85700109731447
H           56.68874674161103       36.88294374181411       59.86178076449347
H           55.40764374192262       38.52084625118451       61.16738251362610
H           51.65202724017423       36.06743830623699       65.71050454379368
H           49.74956214784001       36.54500980014033       67.19117118075120
H           48.00921513046639       38.15696792014462       66.48956434047757
H           48.18319086298691       39.26458621631394       64.30293806285484
H           50.07915227807221       38.78241136004397       62.81798468762015
H           51.05789595360572       37.23183297493321       61.43342151279150
H           53.34259550763472       34.22343242205898       60.82609506631897
H           54.90410070570068       32.53342855616759       61.63929982186293
H           54.56859623197636       31.48494631405813       63.85236053377650
H           52.62887607717670       32.14119779031552       65.23036582499455
H           51.03624548391461       33.81769070941706       64.39711360512055
H           48.97580703992494       36.99451071873533       58.08919232877827
H           48.41059826603362       36.38611606528422       55.78909926949900
H           48.01010132150205       34.01268575753967       55.19402373417454
H           48.19359349192538       32.27601403332957       56.93118427052313
H           48.73818552532760       32.88857424741571       59.23661401866570
H           47.45742280558887       37.59517735823941       62.30083864834966
H           47.54167226090414       39.99500660662572       61.81669075713265
H           46.88593857369238       40.84297765919533       59.60778269813336
H           46.05630368760166       39.26989232543354       57.88426959030053
H           45.98911302827477       36.85498784543803       58.36024610923616
H           43.65323184485374       33.84919928572072       63.13450461588518
H           41.84573285194149       34.07333299243451       64.77078254703491
H           40.20894696909565       35.91140360565416       64.57263165363857
H           40.40079804997762       37.51805685894697       62.71891060235255
H           42.21940199172809       37.30317803740441       61.07693548485436
H           44.69407323959587       34.00581508690649       59.39897398332601
H           43.65175220253734       33.34922910033385       60.65800453950030
H           43.73028725366684       32.73265437225807       57.34235586315632
H           42.86522031610824       30.56908149360402       56.58579913295875
H           40.73155091362396       29.70406239811314       57.47007720068661
H           39.47378401409321       31.02715689043900       59.13552010081158
H           40.33036111797747       33.20827519197064       59.87819120676632
H           41.61778987278736       38.00996234032630       58.30753930002827
H           39.77363984031321       39.03096835266735       59.53308724906060
H           37.61329709212123       37.83807124405741       59.76054381213827
H           37.33108584222502       35.62436048659910       58.70890387041175
H           39.19112416658962       34.59241539708494       57.48135250944414
H           42.95625617376641       37.29553880935841       53.22575948027336
H           42.57777054408027       38.97048436090293       51.48020164230869
H           40.27493494572950       39.62128536170538       50.85531455015301
H           38.35589946599129       38.56640961999838       51.99143614968080
H           38.73873601330857       36.85543475172540       53.71722113349418
H           40.53374755579166       32.39451738558969       55.34864208060945
H           38.53063478770665       31.71493157091321       56.55442546248013
H           36.29218552456407       32.36955508644653       55.73417731899917
H           36.09636544501104       33.71463660269544       53.67233417796966
H           38.11783749629391       34.41207973208815       52.45985617446441
H           44.07456616529006       31.89474329857334       52.99896287085114
H           46.22057045815988       32.73734446574522       53.81546773338092
H           47.04605666190292       34.95378852922391       53.08163292834759
H           45.71772132394706       36.27711841310474       51.47333969957576
H           43.56522456691252       35.43556256194950       50.66940778607686
H           39.70110359254082       29.61543968524850       49.25535335156274
H           39.95010265790042       27.35754584791767       48.31833789553480
H           42.08077090791941       26.67770639137446       47.27468021391033
H           43.95907154957105       28.27894922238388       47.17846745140860
H           43.70969663072621       30.52883101646418       48.10009786889039
H           38.02557390524039       31.28396340062984       48.10847530855450
H           36.15752766834434       31.99720591515219       49.53926984372303
H           36.13144007188168       34.26803799300804       50.50014726891401
H           38.00456174769889       35.81448335554560       50.03379629431578
H           39.86286831599047       35.10358919329813       48.61474479589256
H           36.83178805939892       32.23873021723288       45.76825433934420
H           36.23637482332484       30.04566990938203       44.82744016422212
H           37.78274208577528       28.90054147180329       43.28100545746883
H           39.92267309222776       29.97656716389088       42.67638004395591
H           40.50028257935479       32.16630882533494       43.58493945690848
H           37.79049116787295       37.00055054851718       45.55342304734595
H           36.06001526450931       37.42691791754841       47.22136226271763
H           34.00407264411798       36.05771119715020       47.26702013022322
H           33.71055499401601       34.24521665730762       45.61701548889933
H           35.45959503971996       33.80310966527617       43.94759724712907
H           37.89103189956226       35.35426312307692       39.80212867503386
H           37.04933162337914       33.49800353593323       38.46300364674154
H           34.81505666124384       32.54574805277652       38.92117725130978
H           33.44103798074960       33.48125852281382       40.74540971489925
H           34.29548772815328       35.34451621258949       42.10345977507529
H           57.52652501375189       42.02959930584223       67.39287366138947
H           57.13168721960241       40.31521284029406       67.25814826551805
H           58.78068115195607       40.86838433811971       66.95786268982901
H           35.91733360776482       36.88257021512769       42.64530393671283
H           37.40624012495958       38.63399639158335       41.60755164029901
H           37.55707397005663       37.60244303005876       40.18057180229813
C           35.83005457466835       39.36636157955158       39.25627354505392
C           34.86228936526658       39.19117683457706       41.55733781084089
C           33.65860128063941       38.71910348468172       42.06308286434962
C           32.99195246511280       39.40206653062645       43.06655349835974
C           33.51734268655304       40.57768917183326       43.57369402004151
C           34.71556933435762       41.06095892034281       43.07565789076440
C           35.38294272970108       40.36928809225298       42.08169433177308
H           33.23587307715722       37.80588658108368       41.66627061032190
H           32.05728186514209       39.01647523615383       43.44985085742845
H           32.99655058023881       41.11525131966023       44.35307574227496
H           35.12613135438995       41.98033489520290       43.46661465049993
H           36.32130555368235       40.74812418046344       41.70166074203452
C           36.06642087598973       38.57869590185440       37.96253338490864
H           34.95434289615896       40.00521955043503       39.11767217523543
H           36.68621835590181       40.01725495414716       39.43902655843396
C           36.30147575480334       39.50889373214898       36.80731507526392
C           35.23973776823600       40.18169659169816       36.21387038974589
C           35.45358593749485       41.04690009430730       35.15568420934054
C           36.73634637897607       41.25633169535560       34.67569243027283
C           37.80146813883999       40.59537517087554       35.26320165029436
C           37.58316139221149       39.72985111383827       36.32110513520706
H           34.23468081941681       40.01809211887020       36.57771976658151
H           34.61542741513021       41.55552449501469       34.69892210637979
H           36.90386141881797       41.93157304589177       33.84857312306207
H           38.80602959599683       40.74846091675224       34.89411033226475
H           38.41837655566081       39.20851777992025       36.76418394629523
H           34.95977548564466       37.61326642707483       40.13623673351245
H           36.92827120515349       37.91978039004606       38.07786449325975
H           35.19096085601571       37.95567882618545       37.76115461012557
C           32.67561855956097       46.28075186106946       40.65632441717504
C           32.53847188499476       45.08344256782456       39.96523052658362
C           31.89550623707666       45.10078315350085       38.73277183898119
C           31.40206491869040       46.28060279650875       38.20612622030898
C           31.53851905735281       47.46649645300393       38.90770037503248
C           32.17641937478423       47.46146057075133       40.13570493769650
C           33.08178228556464       43.80355901088287       40.54880423164959
C           31.95254355902728       42.80637316061119       40.81839509747362
C           34.14163532885777       43.17344842408193       39.63523684136056
C           35.23555295535680       44.16891117593720       39.23250831597437
C           35.87702645137078       44.83206552350983       40.42292544073961
C           36.00831771811679       46.21351823055524       40.45929377692185
C           36.65734176901074       46.83771190212212       41.50834694832395
C           37.15264106682174       46.09057263008526       42.56194772661455
C           36.99995264449723       44.71553955287784       42.55390771655440
C           36.38542131137969       44.09275606080643       41.48300927099043
C           36.30782102379130       43.47482065059449       38.37938721337613
C           37.26433277038310       44.48164153375370       37.72802655825209
C           36.53674037862753       45.40427318381902       36.78354932501782
C           36.61467328771266       46.78240126192459       36.94085024189966
C           35.95924804520521       47.63756516325927       36.07251983322972
C           35.21861820189253       47.12582086838392       35.02190999008229
C           35.14793439888359       45.75436341771378       34.84313951047645
C           35.80270322367971       44.90335653711540       35.71445910643483
C           38.41135571254966       43.76518055377701       36.98652025495293
C           39.70841265026034       43.73411707822225       37.80189124679338
C           39.54062811464310       43.02113348578740       39.11944687112120
C           39.71740540002514       43.70682851168003       40.31291152719561
C           39.61615871149594       43.05783463253790       41.52994561078730
C           39.34515307961848       41.70272171648087       41.57030036173158
C           39.16843784517471       41.00552128887707       40.38644226304049
C           39.25830478179580       41.66050036994115       39.17197748753865
C           40.84496673677253       43.05669862370956       37.02214491685550
C           41.43755204430976       43.86602908989398       35.85786370379106
C           42.42937533449225       42.97553860256509       35.14844289084834
C           43.63202922996207       42.61208111746409       35.74538169849463
C           44.51034673451842       41.75435796317728       35.10961069695283
C           44.19983473762508       41.23369468279295       33.86498889702985
C           43.00742631792351       41.58992199598644       33.25848346803298
C           42.13296953453694       42.45431548112750       33.89562846395729
C           42.08220590832980       45.16812189474962       36.34102545556051
C           42.77182304531373       45.93870898542224       35.21055922955683
C           41.81739451299665       46.26434038258193       34.09183549516212
C           42.09821565821189       45.86420643073032       32.79158577033918
C           41.23662905687723       46.16865446852678       31.75215456165273
C           40.07327110935174       46.87744765452018       31.99919202589023
C           39.78282695751751       47.28357114251164       33.29099096990915
C           40.64969063446785       46.98339156600786       34.32562714303760
C           43.39527515963932       47.22660060124503       35.76271700954170
C           44.40861661404238       47.84205602647677       34.79627688233835
C           45.56754773300746       46.92243960324082       34.49386902250032
C           46.10540708288115       46.91714175280740       33.21128807885702
C           47.16156367785847       46.08641720812289       32.88124574675174
C           47.69705495218622       45.23463185022167       33.83214530341508
C           47.17797200731611       45.23606431041901       35.11520709071056
C           46.12866803065636       46.07601461824145       35.44280247253533
C           44.90157955787954       49.19598316491459       35.34321535997450
C           43.93672737138610       50.32883953996078       34.95407753834134
C           44.14265430382699       50.66865178547889       33.49890021641125
C           45.29642167969688       51.31408807496506       33.06629020093213
C           45.49389927177499       51.58977338871337       31.72579858300148