      -----------------------------------------------------------      
     |                   =====================                   |     
     |                           x T B                           |     
     |                   =====================                   |     
     |                         S. Grimme                         |     
     |          Mulliken Center for Theoretical Chemistry        |     
     |                    University of Bonn                     |     
      -----------------------------------------------------------      

   * xtb version 6.6.1 (8d0f1dd) compiled by 'stahn@M-Bot' on 2023-08-01

   xtb is free software: you can redistribute it and/or modify it under
   the terms of the GNU Lesser General Public License as published by
   the Free Software Foundation, either version 3 of the License, or
   (at your option) any later version.
   
   xtb is distributed in the hope that it will be useful,
   but WITHOUT ANY WARRANTY; without even the implied warranty of
   MERCHANTABILITY or FITNESS FOR A PARTICULAR PURPOSE.  See the
   GNU Lesser General Public License for more details.
   
   Cite this work as:
   * C. Bannwarth, E. Caldeweyher, S. Ehlert, A. Hansen, P. Pracht,
     J. Seibert, S. Spicher, S. Grimme, WIREs Comput. Mol. Sci., 2020, 11,
     e01493. DOI: 10.1002/wcms.1493
   
   for GFN2-xTB:
   * C. Bannwarth, S. Ehlert and S. Grimme., J. Chem. Theory Comput., 2019,
     15, 1652-1671. DOI: 10.1021/acs.jctc.8b01176
   for GFN1-xTB:
   * S. Grimme, C. Bannwarth, P. Shushkov, J. Chem. Theory Comput., 2017,
     13, 1989-2009. DOI: 10.1021/acs.jctc.7b00118
   for GFN0-xTB:
   * P. Pracht, E. Caldeweyher, S. Ehlert, S. Grimme, ChemRxiv, 2019, preprint.
     DOI: 10.26434/chemrxiv.8326202.v1
   for GFN-FF:
   * S. Spicher and S. Grimme, Angew. Chem. Int. Ed., 2020, 59, 15665-15673.
     DOI: 10.1002/anie.202004239
   
   for ALPB and GBSA implicit solvation:
   * S. Ehlert, M. Stahn, S. Spicher, S. Grimme, J. Chem. Theory Comput.,
     2021, 17, 4250-4261. DOI: 10.1021/acs.jctc.1c00471
   
   for DFT-D4:
   * E. Caldeweyher, C. Bannwarth and S. Grimme, J. Chem. Phys., 2017,
     147, 034112. DOI: 10.1063/1.4993215
   * E. Caldeweyher, S. Ehlert, A. Hansen, H. Neugebauer, S. Spicher,
     C. Bannwarth and S. Grimme, J. Chem. Phys., 2019, 150, 154122.
     DOI: 10.1063/1.5090222
   * E. Caldeweyher, J.-M. Mewes, S. Ehlert and S. Grimme, Phys. Chem. Chem. Phys.
     2020, 22, 8499-8512. DOI: 10.1039/D0CP00502A
   
   for sTDA-xTB:
   * S. Grimme and C. Bannwarth, J. Chem. Phys., 2016, 145, 054103.
     DOI: 10.1063/1.4959605
   
   in the mass-spec context:
   * V. Asgeirsson, C. Bauer and S. Grimme, Chem. Sci., 2017, 8, 4879.
     DOI: 10.1039/c7sc00601b
   * J. Koopman and S. Grimme, ACS Omega 2019, 4, 12, 15120-15133.
     DOI: 10.1021/acsomega.9b02011
   
   for metadynamics refer to:
   * S. Grimme, J. Chem. Theory Comput., 2019, 155, 2847-2862
     DOI: 10.1021/acs.jctc.9b00143
   
   for SPH calculations refer to:
   * S. Spicher and S. Grimme, J. Chem. Theory Comput., 2021, 17, 1701-1714
     DOI: 10.1021/acs.jctc.0c01306
   
   with help from (in alphabetical order)
   P. Atkinson, C. Bannwarth, F. Bohle, G. Brandenburg, E. Caldeweyher
   M. Checinski, S. Dohm, S. Ehlert, S. Ehrlich, I. Gerasimov, C. Hölzer
   A. Katbashev, J. Koopman, C. Lavigne, S. Lehtola, F. März, M. Müller,
   F. Musil, H. Neugebauer, J. Pisarek, C. Plett, P. Pracht, F. Pultar,
   J. Seibert, P. Shushkov, S. Spicher, M. Stahn, M. Steiner, T. Strunk,
   J. Stückrath, T. Rose, and J. Unsleber
   
 * started run on 2024/10/04 at 02:55:41.152     

           -------------------------------------------------
          |                Calculation Setup                |
           -------------------------------------------------

          program call               : /home/abt-grimme/AK-bin/xtb input.xyz --input input.inp --opt
          hostname                   : boar110.thch.uni-bonn.de
          coordinate file            : input.xyz
          omp threads                :                     8

   ID    Z sym.   atoms
    1    6 C      1-120, 363-482, 725-844, 1087-1206, 1449-1568, 1811-1930,
                  2173-2292, 2535-2654, 2897-3016
    2    1 H      121-362, 483-724, 845-1086, 1207-1448, 1569-1810,
                  1931-2172, 2293-2534, 2655-2896, 3017-3258

molecular fragmentation (1/2 indicates fragments):
111111111111111111111111111111111111111111111111111111111111111111111111
111111111111111111111111111111111111111111111111111111111111111111111111
111111111111111111111111111111111111111111111111111111111111111111111111
111111111111111111111111111111111111111111111111111111111111111111111111
111111111111111111111111111111111111111111111111111111111111111111111111
112222222222222222222222222222222222222222222222222222222222222222222222
222222222222222222222222222222222222222222222222222222222222222222222222
222222222222222222222222222222222222222222222222222222222222222222222222
222222222222222222222222222222222222222222222222222222222222222222222222
222222222222222222222222222222222222222222222222222222222222222222222222
222222222222222222222222222222222222222222222222222222222222222222222222
222222222222222222222222222222222222222222222222222222222222222222222222
222222222222222222222222222222222222222222222222222222222222222222222222
222222222222222222222222222222222222222222222222222222222222222222222222
222222222222222222222222222222222222222222222222222222222222222222222222
222222222222222222222222222222222222222222222222222222222222222222222222
222222222222222222222222222222222222222222222222222222222222222222222222
222222222222222222222222222222222222222222222222222222222222222222222222
222222222222222222222222222222222222222222222222222222222222222222222222
222222222222222222222222222222222222222222222222222222222222222222222222
222222222222222222222222222222222222222222222222222222222222222222222222
222222222222222222222222222222222222222222222222222222222222222222222222
222222222222222222222222222222222222222222222222222222222222222222222222
222222222222222222222222222222222222222222222222222222222222222222222222
222222222222222222222222222222222222222222222222222222222222222222222222
222222222222222222222222222222222222222222222222222222222222222222222222
222222222222222222222222222222222222222222222222222222222222222222222222
222222222222222222222222222222222222222222222222222222222222222222222222
222222222222222222222222222222222222222222222222222222222222222222222222
222222222222222222222222222222222222222222222222222222222222222222222222
222222222222222222222222222222222222222222222222222222222222222222222222
222222222222222222222222222222222222222222222222222222222222222222222222
222222222222222222222222222222222222222222222222222222222222222222222222
222222222222222222222222222222222222222222222222222222222222222222222222
222222222222222222222222222222222222222222222222222222222222222222222222
222222222222222222222222222222222222222222222222222222222222222222222222
222222222222222222222222222222222222222222222222222222222222222222222222
222222222222222222222222222222222222222222222222222222222222222222222222
222222222222222222222222222222222222222222222222222222222222222222222222
222222222222222222222222222222222222222222222222222222222222222222222222
222222222222222222222222222222222222222222222222222222222222222222222222
222222222222222222222222222222222222222222222222222222222222222222222222
222222222222222222222222222222222222222222222222222222222222222222222222
222222222222222222222222222222222222222222222222222222222222222222222222
222222222222222222222222222222222222222222222222222222222222222222222222
222222222222222222
# atoms in fragment 1/2:   362  2896
 fragment masses (1/2) :     1685.21    13481.68
CMA distance (Bohr)    :  23.346
constraining FC (au)   :  0.0500

           -------------------------------------------------
          |                 G F N 2 - x T B                 |
           -------------------------------------------------

        Reference                      10.1021/acs.jctc.8b01176
      * Hamiltonian:
        H0-scaling (s, p, d)           1.850000    2.230000    2.230000
        zeta-weighting                 0.500000
      * Dispersion:
        s8                             2.700000
        a1                             0.520000
        a2                             5.000000
        s9                             5.000000
      * Repulsion:
        kExp                           1.500000    1.000000
        rExp                           1.000000
      * Coulomb:
        alpha                          2.000000
        third order                    shell-resolved
        anisotropic                    true
        a3                             3.000000
        a5                             4.000000
        cn-shift                       1.200000
        cn-exp                         4.000000
        max-rad                        5.000000


          ...................................................
          :                      SETUP                      :
          :.................................................:
          :  # basis functions                6498          :
          :  # atomic orbitals                6498          :
          :  # shells                         4338          :
          :  # electrons                      6498          :
          :  max. iterations                   250          :
          :  Hamiltonian                  GFN2-xTB          :
          :  restarted?                      false          :
          :  GBSA solvation                  false          :
          :  PC potential                    false          :
          :  electronic temp.          300.0000000     K    :
          :  accuracy                    1.0000000          :
          :  -> integral cutoff          0.2500000E+02      :
          :  -> integral neglect         0.1000000E-07      :
          :  -> SCF convergence          0.1000000E-05 Eh   :
          :  -> wf. convergence          0.1000000E-03 e    :
          :  Broyden damping             0.4000000          :
          ...................................................

 iter      E             dE          RMSdq      gap      omega  full diag
   1  -3473.4096779 -0.347341E+04  0.244E+00   11.35       0.0  T
   2  -3478.5220008 -0.511232E+01  0.135E+00   11.48       1.0  T
   3  -3478.7250746 -0.203074E+00  0.599E-01   11.46       1.0  T
   4  -3478.7456044 -0.205298E-01  0.757E-02   11.49       1.0  T
   5  -3478.7465756 -0.971276E-03  0.393E-02   11.50       1.0  T
   6  -3478.7467845 -0.208910E-03  0.639E-03   11.50       1.0  T
   7  -3478.7468009 -0.163980E-04  0.128E-03   11.50       1.4  T
   8  -3478.7468021 -0.113648E-05  0.402E-04   11.50       4.4  T
   9  -3478.7468022 -0.727996E-07  0.142E-04   11.50      12.3  T
  10  -3478.7468022 -0.376667E-08  0.440E-05   11.50      39.8  T

   *** convergence criteria satisfied after 10 iterations ***

         #    Occupation            Energy/Eh            Energy/eV
      -------------------------------------------------------------
         1        2.0000           -0.6247350             -16.9999
       ...           ...                  ...                  ...
      3243        2.0000           -0.4017383             -10.9319
      3244        2.0000           -0.4016239             -10.9287
      3245        2.0000           -0.4014386             -10.9237
      3246        2.0000           -0.4012967             -10.9198
      3247        2.0000           -0.4010740             -10.9138
      3248        2.0000           -0.4010433             -10.9129
      3249        2.0000           -0.4009540             -10.9105 (HOMO)
      3250                          0.0216945               0.5903 (LUMO)
      3251                          0.0218859               0.5955
      3252                          0.0221137               0.6017
      3253                          0.0221517               0.6028
      3254                          0.0237686               0.6468
       ...                                ...                  ...
      6498                          0.3832023              10.4275
      -------------------------------------------------------------
                  HL-Gap            0.4226485 Eh           11.5009 eV
             Fermi-level           -0.1896298 Eh           -5.1601 eV

 SCC (total)                   0 d,  0 h, 13 min, 42.004 sec
 SCC setup                      ...        0 min,  0.433 sec (  0.053%)
 Dispersion                     ...        0 min,  3.622 sec (  0.441%)
 classical contributions        ...        0 min,  0.136 sec (  0.016%)
 integral evaluation            ...        0 min,  6.294 sec (  0.766%)
 iterations                     ...        9 min, 21.810 sec ( 68.346%)
 molecular gradient             ...        4 min,  1.531 sec ( 29.383%)
 printout                       ...        0 min,  8.178 sec (  0.995%)

         :::::::::::::::::::::::::::::::::::::::::::::::::::::
         ::                     SUMMARY                     ::
         :::::::::::::::::::::::::::::::::::::::::::::::::::::
         :: total energy           -3427.501196483677 Eh    ::
         :: gradient norm              0.018325365733 Eh/a0 ::
         :: HOMO-LUMO gap             11.500850948914 eV    ::
         ::.................................................::
         :: SCC energy             -3478.746802154263 Eh    ::
         :: -> isotropic ES            0.418949226904 Eh    ::
         :: -> anisotropic ES          1.118901624395 Eh    ::
         :: -> anisotropic XC          1.945491630358 Eh    ::
         :: -> dispersion             -4.040545267146 Eh    ::
         :: repulsion energy          50.608438324708 Eh    ::
         :: add. restraining           0.000000000000 Eh    ::
         :: total charge              -0.000000000015 e     ::
         :::::::::::::::::::::::::::::::::::::::::::::::::::::

      ----------------------------------------------------------- 
     |              Fast Inertial Relaxation Engine              |
      ----------------------------------------------------------- 

          ...................................................
          :                      SETUP                      :
          :.................................................:
          :   energy convergence        0.5000000E-05 Eh    :
          :   grad. convergence         0.1000000E-02 Eh/a0 :
          :   optimization log               true           :
          :   writing optlog all                1     steps :
          :   Hessian reset                    20     steps :
          :   time step scaling                 5     steps :
          :   maximium step len.        1.0000000     a0    :
          :   initial time step         0.2500000     fs    :
          :   maximum time step         1.2500000     fs    :
          :   power reset thr           0.0000000     au    :
          :   alpha parameter           0.1000000           :
          :   BFGS update                   false           :
          :   preconditioning               false           :
          ...................................................

........................................................................
.............................. CYCLE    1 ..............................
........................................................................

 iter      E             dE          RMSdq      gap      omega  full diag
   1  -3478.7503773 -0.347875E+04  0.266E-04   11.50       0.0  T
   2  -3478.7503774 -0.279210E-07  0.151E-04   11.50      11.6  T
   3  -3478.7503774 -0.701220E-09  0.486E-05   11.50      36.0  T
     SCC iter.                  ...        2 min, 55.951 sec
     gradient                   ...        3 min, 55.298 sec
 * total energy  : -3427.5012343 Eh     change    :  -0.3778184E-04 Eh
   gradient norm :     0.0168602 Eh/a0  converged?    E=F G=F D=F
   time step     :     0.2500000 fs     power     :   0.1921485E-08
   step length   :     0.0021477 a0     speed     :   0.2078009E-03

........................................................................
.............................. CYCLE    2 ..............................
........................................................................

 iter      E             dE          RMSdq      gap      omega  full diag
   1  -3478.7555806 -0.347876E+04  0.385E-04   11.50       0.0  T
   2  -3478.7555807 -0.588075E-07  0.219E-04   11.50       8.0  T
   3  -3478.7555807 -0.123646E-08  0.704E-05   11.50      24.9  T
     SCC iter.                  ...        2 min, 56.027 sec
     gradient                   ...        3 min, 56.367 sec
 * total energy  : -3427.5012838 Eh     change    :  -0.4953698E-04 Eh
   gradient norm :     0.0147543 Eh/a0  converged?    E=F G=F D=F
   time step     :     0.2500000 fs     power     :   0.2451864E-08
   step length   :     0.0031355 a0     speed     :   0.3033756E-03

........................................................................
.............................. CYCLE    3 ..............................
........................................................................

 iter      E             dE          RMSdq      gap      omega  full diag
   1  -3478.7621831 -0.347876E+04  0.489E-04   11.50       0.0  T
   2  -3478.7621832 -0.944615E-07  0.279E-04   11.50       6.3  T
   3  -3478.7621832 -0.209138E-08  0.891E-05   11.50      19.7  T
     SCC iter.                  ...        2 min, 55.967 sec
     gradient                   ...        3 min, 57.978 sec
 * total energy  : -3427.5013374 Eh     change    :  -0.5355489E-04 Eh
   gradient norm :     0.0121276 Eh/a0  converged?    E=F G=F D=F
   time step     :     0.2500000 fs     power     :   0.2559058E-08
   step length   :     0.0039988 a0     speed     :   0.3869100E-03

........................................................................
.............................. CYCLE    4 ..............................
........................................................................

 iter      E             dE          RMSdq      gap      omega  full diag
   1  -3478.7698892 -0.347877E+04  0.574E-04   11.50       0.0  T
   2  -3478.7698893 -0.128053E-06  0.327E-04   11.50       5.4  T
   3  -3478.7698893 -0.289356E-08  0.104E-04   11.50      16.9  T
     SCC iter.                  ...        2 min, 54.120 sec
     gradient                   ...        3 min, 58.277 sec
 * total energy  : -3427.5013869 Eh     change    :  -0.4956939E-04 Eh
   gradient norm :     0.0091726 Eh/a0  converged?    E=F G=F D=F
   time step     :     0.2500000 fs     power     :   0.2240077E-08
   step length   :     0.0047046 a0     speed     :   0.4551907E-03

........................................................................
.............................. CYCLE    5 ..............................
........................................................................

 iter      E             dE          RMSdq      gap      omega  full diag
   1  -3478.7783329 -0.347878E+04  0.634E-04   11.50       0.0  T
   2  -3478.7783330 -0.152763E-06  0.362E-04   11.50       4.8  T
   3  -3478.7783330 -0.349064E-08  0.113E-04   11.50      15.6  T
     SCC iter.                  ...        2 min, 56.806 sec
     gradient                   ...        3 min, 55.341 sec
 * total energy  : -3427.5014254 Eh     change    :  -0.3844870E-04 Eh
   gradient norm :     0.0062458 Eh/a0  converged?    E=F G=F D=F
   time step     :     0.2500000 fs     power     :   0.1570846E-08
   step length   :     0.0052241 a0     speed     :   0.5054609E-03

........................................................................
.............................. CYCLE    6 ..............................
........................................................................

 iter      E             dE          RMSdq      gap      omega  full diag
   1  -3478.7879504 -0.347879E+04  0.736E-04   11.50       0.0  T
   2  -3478.7879506 -0.195876E-06  0.420E-04   11.50       4.2  T
   3  -3478.7879506 -0.440514E-08  0.126E-04   11.50      13.9  T
     SCC iter.                  ...        2 min, 52.784 sec
     gradient                   ...        3 min, 57.510 sec
 * total energy  : -3427.5014496 Eh     change    :  -0.2420562E-04 Eh
   gradient norm :     0.0041611 Eh/a0  converged?    E=F G=F D=F
   time step     :     0.2750000 fs     power     :   0.6110566E-09
   step length   :     0.0061098 a0     speed     :   0.5374161E-03

........................................................................
.............................. CYCLE    7 ..............................
........................................................................

 iter      E             dE          RMSdq      gap      omega  full diag
   1  -3478.7977290 -0.347880E+04  0.786E-04   11.50       0.0  T
   2  -3478.7977292 -0.196921E-06  0.451E-04   11.50       3.9  T
   3  -3478.7977292 -0.474256E-08  0.124E-04   11.50      14.2  T
     SCC iter.                  ...        2 min, 53.215 sec
     gradient                   ...        3 min, 55.409 sec
 * total energy  : -3427.5014544 Eh     change    :  -0.4777359E-05 Eh
   gradient norm :     0.0051006 Eh/a0  converged?    E=T G=F D=F
   time step     :     0.3025000 fs     power     :  -0.3238438E-09
   step length   :     0.0066243 a0     speed     :   0.5296977E-03

........................................................................
.............................. CYCLE    8 ..............................
........................................................................
 * reset velocities

 iter      E             dE          RMSdq      gap      omega  full diag
   1  -3478.7976098 -0.347880E+04  0.136E-05   11.50       0.0  T
   2  -3478.7976098 -0.900400E-10  0.725E-06   11.50     241.7  T
   3  -3478.7976098  0.200089E-10  0.324E-06   11.50     541.0  T
     SCC iter.                  ...        2 min, 51.848 sec
     gradient                   ...        3 min, 55.956 sec
 * total energy  : -3427.5014549 Eh     change    :  -0.5564657E-06 Eh
   gradient norm :     0.0050411 Eh/a0  converged?    E=T G=F D=T
   time step     :     0.1512500 fs     power     :   0.4838262E-10
   step length   :     0.0001094 a0     speed     :   0.1749596E-04

........................................................................
.............................. CYCLE    9 ..............................
........................................................................

 iter      E             dE          RMSdq      gap      omega  full diag
   1  -3478.7973731 -0.347880E+04  0.273E-05   11.50       0.0  T
   2  -3478.7973731 -0.227374E-09  0.159E-05   11.50     109.9  T
   3  -3478.7973731 -0.309228E-10  0.382E-06   11.50     458.8  T
     SCC iter.                  ...        2 min, 55.386 sec
     gradient                   ...        3 min, 55.098 sec
 * total energy  : -3427.5014560 Eh     change    :  -0.1085142E-05 Eh
   gradient norm :     0.0049291 Eh/a0  converged?    E=T G=F D=T
   time step     :     0.1512500 fs     power     :   0.9405098E-10
   step length   :     0.0002175 a0     speed     :   0.3478768E-04

........................................................................
.............................. CYCLE   10 ..............................
........................................................................

 iter      E             dE          RMSdq      gap      omega  full diag
   1  -3478.7970244 -0.347880E+04  0.402E-05   11.50       0.0  T
   2  -3478.7970244 -0.367436E-09  0.234E-05   11.50      74.9  T
   3  -3478.7970244 -0.331966E-10  0.564E-06   11.50     310.6  T
     SCC iter.                  ...        2 min, 51.564 sec
     gradient                   ...        3 min, 55.436 sec
 * total energy  : -3427.5014576 Eh     change    :  -0.1563822E-05 Eh
   gradient norm :     0.0047659 Eh/a0  converged?    E=T G=F D=T
   time step     :     0.1512500 fs     power     :   0.1350782E-09
   step length   :     0.0003232 a0     speed     :   0.5169351E-04

........................................................................
.............................. CYCLE   11 ..............................
........................................................................

 iter      E             dE          RMSdq      gap      omega  full diag
   1  -3478.7965713 -0.347880E+04  0.527E-05   11.50       0.0  T
   2  -3478.7965713 -0.607088E-09  0.307E-05   11.50      57.1  T
   3  -3478.7965713 -0.536602E-10  0.736E-06   11.50     238.2  T
     SCC iter.                  ...        2 min, 48.499 sec
     gradient                   ...        3 min, 55.326 sec
 * total energy  : -3427.5014595 Eh     change    :  -0.1978191E-05 Eh
   gradient norm :     0.0045569 Eh/a0  converged?    E=T G=F D=T
   time step     :     0.1512500 fs     power     :   0.1698256E-09
   step length   :     0.0004254 a0     speed     :   0.6803356E-04

........................................................................
.............................. CYCLE   12 ..............................
........................................................................

 iter      E             dE          RMSdq      gap      omega  full diag
   1  -3478.7960247 -0.347880E+04  0.649E-05   11.50       0.0  T
   2  -3478.7960247 -0.998625E-09  0.379E-05   11.50      46.3  T
   3  -3478.7960247 -0.336513E-10  0.888E-06   11.50     197.3  T
     SCC iter.                  ...        2 min, 47.896 sec
     gradient                   ...        3 min, 56.426 sec
 * total energy  : -3427.5014619 Eh     change    :  -0.2318473E-05 Eh
   gradient norm :     0.0043084 Eh/a0  converged?    E=T G=F D=T
   time step     :     0.1512500 fs     power     :   0.1970363E-09
   step length   :     0.0005230 a0     speed     :   0.8364087E-04

........................................................................
.............................. CYCLE   13 ..............................
........................................................................

 iter      E             dE          RMSdq      gap      omega  full diag
   1  -3478.7953983 -0.347880E+04  0.755E-05   11.50       0.0  T
   2  -3478.7953983 -0.129194E-08  0.441E-05   11.50      39.7  T
   3  -3478.7953983 -0.345608E-10  0.103E-05   11.50     170.9  T
     SCC iter.                  ...        2 min, 51.702 sec
     gradient                   ...        3 min, 57.742 sec
 * total energy  : -3427.5014644 Eh     change    :  -0.2518385E-05 Eh
   gradient norm :     0.0040300 Eh/a0  converged?    E=T G=F D=T
   time step     :     0.1512500 fs     power     :   0.2159805E-09
   step length   :     0.0006150 a0     speed     :   0.9836141E-04

........................................................................
.............................. CYCLE   14 ..............................
........................................................................

 iter      E             dE          RMSdq      gap      omega  full diag
   1  -3478.7946318 -0.347879E+04  0.951E-05   11.50       0.0  T
   2  -3478.7946318 -0.207092E-08  0.556E-05   11.50      31.5  T
   3  -3478.7946318 -0.786713E-10  0.127E-05   11.50     138.3  T
     SCC iter.                  ...        2 min, 53.497 sec
     gradient                   ...        3 min, 58.672 sec
 * total energy  : -3427.5014674 Eh     change    :  -0.2990339E-05 Eh
   gradient norm :     0.0037020 Eh/a0  converged?    E=T G=F D=T
   time step     :     0.1663750 fs     power     :   0.2270986E-09
   step length   :     0.0007802 a0     speed     :   0.1134351E-03

........................................................................
.............................. CYCLE   15 ..............................
........................................................................

 iter      E             dE          RMSdq      gap      omega  full diag
   1  -3478.7937255 -0.347879E+04  0.117E-04   11.50       0.0  T
   2  -3478.7937255 -0.289356E-08  0.687E-05   11.50      25.5  T
   3  -3478.7937255 -0.977707E-10  0.152E-05   11.50     115.6  T
     SCC iter.                  ...        2 min, 50.936 sec
     gradient                   ...        3 min, 55.730 sec
 * total energy  : -3427.5014707 Eh     change    :  -0.3362662E-05 Eh
   gradient norm :     0.0033383 Eh/a0  converged?    E=T G=F D=T
   time step     :     0.1830125 fs     power     :   0.2282343E-09
   step length   :     0.0009722 a0     speed     :   0.1285006E-03

........................................................................
.............................. CYCLE   16 ..............................
........................................................................

 iter      E             dE          RMSdq      gap      omega  full diag
   1  -3478.7926989 -0.347879E+04  0.142E-04   11.50       0.0  T
   2  -3478.7926989 -0.396585E-08  0.831E-05   11.50      21.1  T
   3  -3478.7926989 -0.110049E-09  0.175E-05   11.50     100.2  T
     SCC iter.                  ...        3 min,  2.147 sec
     gradient                   ...        3 min, 56.731 sec
 * total energy  : -3427.5014743 Eh     change    :  -0.3596138E-05 Eh
   gradient norm :     0.0029723 Eh/a0  converged?    E=T G=F D=F
   time step     :     0.2013138 fs     power     :   0.2183030E-09
   step length   :     0.0011907 a0     speed     :   0.1430639E-03

........................................................................
.............................. CYCLE   17 ..............................
........................................................................

 iter      E             dE          RMSdq      gap      omega  full diag
   1  -3478.7916054 -0.347879E+04  0.167E-04   11.50       0.0  T
   2  -3478.7916054 -0.500177E-08  0.982E-05   11.50      17.8  T
   3  -3478.7916054 -0.109594E-09  0.192E-05   11.50      91.1  T
     SCC iter.                  ...        2 min, 48.677 sec
     gradient                   ...        3 min, 55.360 sec
 * total energy  : -3427.5014780 Eh     change    :  -0.3697075E-05 Eh
   gradient norm :     0.0026645 Eh/a0  converged?    E=T G=F D=F
   time step     :     0.2214451 fs     power     :   0.1985633E-09
   step length   :     0.0014325 a0     speed     :   0.1564724E-03

........................................................................
.............................. CYCLE   18 ..............................
........................................................................

 iter      E             dE          RMSdq      gap      omega  full diag
   1  -3478.7905485 -0.347879E+04  0.192E-04   11.50       0.0  T
   2  -3478.7905485 -0.546424E-08  0.113E-04   11.50      15.5  T
   3  -3478.7905485 -0.127784E-09  0.197E-05   11.50      88.7  T
     SCC iter.                  ...        2 min, 51.952 sec
     gradient                   ...        3 min, 55.540 sec
 * total energy  : -3427.5014817 Eh     change    :  -0.3655566E-05 Eh
   gradient norm :     0.0024895 Eh/a0  converged?    E=T G=F D=F
   time step     :     0.2435896 fs     power     :   0.1738379E-09
   step length   :     0.0016910 a0     speed     :   0.1679205E-03

........................................................................
.............................. CYCLE   19 ..............................
........................................................................

 iter      E             dE          RMSdq      gap      omega  full diag
   1  -3478.7896906 -0.347879E+04  0.214E-04   11.50       0.0  T
   2  -3478.7896906 -0.521004E-08  0.126E-04   11.50      13.9  T
   3  -3478.7896906 -0.877662E-10  0.186E-05   11.50      94.3  T
     SCC iter.                  ...        2 min, 54.157 sec
     gradient                   ...        3 min, 56.597 sec
 * total energy  : -3427.5014852 Eh     change    :  -0.3545762E-05 Eh
   gradient norm :     0.0024782 Eh/a0  converged?    E=T G=F D=F
   time step     :     0.2679486 fs     power     :   0.1524324E-09
   step length   :     0.0019573 a0     speed     :   0.1766924E-03

........................................................................
.............................. CYCLE   20 ..............................
........................................................................

 iter      E             dE          RMSdq      gap      omega  full diag
   1  -3478.7892344 -0.347879E+04  0.233E-04   11.50       0.0  T
   2  -3478.7892344 -0.416503E-08  0.137E-04   11.50      12.7  T
   3  -3478.7892344 -0.673026E-10  0.162E-05   11.50     108.0  T
     SCC iter.                  ...        2 min, 52.588 sec
     gradient                   ...        4 min,  3.286 sec
 * total energy  : -3427.5014888 Eh     change    :  -0.3618918E-05 Eh
   gradient norm :     0.0025563 Eh/a0  converged?    E=T G=F D=F
   time step     :     0.2947435 fs     power     :   0.1420565E-09
   step length   :     0.0022291 a0     speed     :   0.1829340E-03
 * RMSD in coord.:     0.0005621 a0     energy gain  -0.2923617E-03 Eh

........................................................................
.............................. CYCLE   21 ..............................
........................................................................

 iter      E             dE          RMSdq      gap      omega  full diag
   1  -3478.7893143 -0.347879E+04  0.191E-04   11.50       0.0  T
   2  -3478.7893143 -0.165937E-08  0.113E-04   11.50      15.6  T
   3  -3478.7893143 -0.668479E-10  0.110E-05   11.50     158.9  T
     SCC iter.                  ...        2 min, 52.115 sec
     gradient                   ...        3 min, 56.383 sec
 * total energy  : -3427.5014919 Eh     change    :  -0.3026154E-05 Eh
   gradient norm :     0.0025809 Eh/a0  converged?    E=T G=F D=F
   time step     :     0.2500000 fs     power     :   0.1477018E-09
   step length   :     0.0019102 a0     speed     :   0.1848240E-03

........................................................................
.............................. CYCLE   22 ..............................
........................................................................

 iter      E             dE          RMSdq      gap      omega  full diag
   1  -3478.7898550 -0.347879E+04  0.186E-04   11.50       0.0  T
   2  -3478.7898550 -0.142336E-08  0.109E-04   11.50      16.0  T
   3  -3478.7898550 -0.441105E-10  0.109E-05   11.50     160.1  T
     SCC iter.                  ...        2 min, 53.520 sec
     gradient                   ...        4 min,  2.839 sec
 * total energy  : -3427.5014950 Eh     change    :  -0.3178204E-05 Eh
   gradient norm :     0.0024960 Eh/a0  converged?    E=T G=F D=F
   time step     :     0.2500000 fs     power     :   0.1577274E-09
   step length   :     0.0019331 a0     speed     :   0.1870416E-03

........................................................................
.............................. CYCLE   23 ..............................
........................................................................

 iter      E             dE          RMSdq      gap      omega  full diag
   1  -3478.7908154 -0.347879E+04  0.186E-04   11.50       0.0  T
   2  -3478.7908154 -0.184900E-08  0.108E-04   11.50      16.2  T
   3  -3478.7908154 -0.936780E-10  0.121E-05   11.50     144.9  T
     SCC iter.                  ...        3 min,  0.104 sec
     gradient                   ...        3 min, 55.196 sec
 * total energy  : -3427.5014984 Eh     change    :  -0.3308912E-05 Eh
   gradient norm :     0.0022871 Eh/a0  converged?    E=T G=F D=F
   time step     :     0.2500000 fs     power     :   0.1639549E-09
   step length   :     0.0019672 a0     speed     :   0.1903407E-03

........................................................................
.............................. CYCLE   24 ..............................
........................................................................

 iter      E             dE          RMSdq      gap      omega  full diag
   1  -3478.7921267 -0.347879E+04  0.188E-04   11.50       0.0  T
   2  -3478.7921267 -0.275395E-08  0.109E-04   11.50      16.1  T
   3  -3478.7921267 -0.586624E-10  0.140E-05   11.50     124.9  T
     SCC iter.                  ...        2 min, 56.589 sec
     gradient                   ...        3 min, 57.015 sec
 * total energy  : -3427.5015016 Eh     change    :  -0.3275600E-05 Eh
   gradient norm :     0.0019767 Eh/a0  converged?    E=T G=F D=F
   time step     :     0.2500000 fs     power     :   0.1602311E-09
   step length   :     0.0020120 a0     speed     :   0.1946727E-03

........................................................................
.............................. CYCLE   25 ..............................
........................................................................

 iter      E             dE          RMSdq      gap      omega  full diag
   1  -3478.7936933 -0.347879E+04  0.191E-04   11.50       0.0  T
   2  -3478.7936933 -0.382033E-08  0.110E-04   11.50      16.0  T
   3  -3478.7936933 -0.109139E-09  0.162E-05   11.50     108.3  T
     SCC iter.                  ...        2 min, 51.732 sec
     gradient                   ...        3 min, 55.113 sec
 * total energy  : -3427.5015047 Eh     change    :  -0.3033205E-05 Eh
   gradient norm :     0.0016264 Eh/a0  converged?    E=T G=F D=F
   time step     :     0.2500000 fs     power     :   0.1442801E-09
   step length   :     0.0020618 a0     speed     :   0.1994909E-03

........................................................................
.............................. CYCLE   26 ..............................
........................................................................

 iter      E             dE          RMSdq      gap      omega  full diag
   1  -3478.7955616 -0.347880E+04  0.210E-04   11.50       0.0  T
   2  -3478.7955616 -0.556429E-08  0.121E-04   11.50      14.5  T
   3  -3478.7955616 -0.124601E-09  0.196E-05   11.50      89.5  T
     SCC iter.                  ...        2 min, 54.212 sec
     gradient                   ...        3 min, 55.665 sec
 * total energy  : -3427.5015075 Eh     change    :  -0.2823916E-05 Eh
   gradient norm :     0.0013328 Eh/a0  converged?    E=T G=F D=F
   time step     :     0.2750000 fs     power     :   0.1156199E-09
   step length   :     0.0023272 a0     speed     :   0.2046950E-03

........................................................................
.............................. CYCLE   27 ..............................
........................................................................

 iter      E             dE          RMSdq      gap      omega  full diag
   1  -3478.7975171 -0.347880E+04  0.223E-04   11.50       0.0  T
   2  -3478.7975171 -0.621549E-08  0.128E-04   11.50      13.7  T
   3  -3478.7975171 -0.266937E-09  0.206E-05   11.50      85.0  T
     SCC iter.                  ...        2 min, 54.825 sec
     gradient                   ...        3 min, 55.919 sec
 * total energy  : -3427.5015099 Eh     change    :  -0.2373367E-05 Eh
   gradient norm :     0.0013090 Eh/a0  converged?    E=T G=F D=F
   time step     :     0.3025000 fs     power     :   0.8297578E-10
   step length   :     0.0026011 a0     speed     :   0.2079895E-03

........................................................................
.............................. CYCLE   28 ..............................
........................................................................

 iter      E             dE          RMSdq      gap      omega  full diag
   1  -3478.7991938 -0.347880E+04  0.220E-04   11.50       0.0  T
   2  -3478.7991938 -0.476848E-08  0.126E-04   11.50      13.9  T
   3  -3478.7991938 -0.145974E-09  0.175E-05   11.50     100.2  T
     SCC iter.                  ...        2 min, 51.209 sec
     gradient                   ...        3 min, 55.393 sec
 * total energy  : -3427.5015119 Eh     change    :  -0.2004510E-05 Eh
   gradient norm :     0.0015321 Eh/a0  converged?    E=T G=F D=F
   time step     :     0.3327500 fs     power     :   0.6272512E-10
   step length   :     0.0028333 a0     speed     :   0.2059603E-03

........................................................................
.............................. CYCLE   29 ..............................
........................................................................

 iter      E             dE          RMSdq      gap      omega  full diag
   1  -3478.8002684 -0.347880E+04  0.207E-04   11.50       0.0  T
   2  -3478.8002684 -0.226692E-08  0.120E-04   11.50      14.6  T
   3  -3478.8002684 -0.137334E-09  0.121E-05   11.50     145.3  T
     SCC iter.                  ...        2 min, 55.576 sec
     gradient                   ...        3 min, 55.137 sec
 * total energy  : -3427.5015139 Eh     change    :  -0.2019689E-05 Eh
   gradient norm :     0.0017284 Eh/a0  converged?    E=T G=F D=F
   time step     :     0.3660250 fs     power     :   0.6238422E-10
   step length   :     0.0030288 a0     speed     :   0.2001600E-03

........................................................................
.............................. CYCLE   30 ..............................
........................................................................

 iter      E             dE          RMSdq      gap      omega  full diag
   1  -3478.8005334 -0.347880E+04  0.196E-04   11.50       0.0  T
   2  -3478.8005334 -0.106047E-08  0.114E-04   11.50      15.3  T
   3  -3478.8005334 -0.144155E-09  0.928E-06   11.50     188.9  T
     SCC iter.                  ...        2 min, 53.890 sec
     gradient                   ...        3 min, 55.517 sec
 * total energy  : -3427.5015164 Eh     change    :  -0.2500157E-05 Eh
   gradient norm :     0.0017204 Eh/a0  converged?    E=T G=F D=F
   time step     :     0.4026275 fs     power     :   0.7396844E-10
   step length   :     0.0032501 a0     speed     :   0.1952605E-03

........................................................................
.............................. CYCLE   31 ..............................
........................................................................

 iter      E             dE          RMSdq      gap      omega  full diag
   1  -3478.7999079 -0.347880E+04  0.196E-04   11.50       0.0  T
   2  -3478.7999079 -0.270666E-08  0.115E-04   11.50      15.2  T
   3  -3478.7999079 -0.153250E-09  0.120E-05   11.50     146.2  T
     SCC iter.                  ...        2 min, 52.894 sec
     gradient                   ...        4 min,  0.052 sec
 * total energy  : -3427.5015194 Eh     change    :  -0.3045761E-05 Eh
   gradient norm :     0.0014886 Eh/a0  converged?    E=T G=F D=F
   time step     :     0.4428903 fs     power     :   0.8150854E-10
   step length   :     0.0035499 a0     speed     :   0.1938814E-03

........................................................................
.............................. CYCLE   32 ..............................
........................................................................

 iter      E             dE          RMSdq      gap      omega  full diag
   1  -3478.7985283 -0.347880E+04  0.206E-04   11.50       0.0  T
   2  -3478.7985283 -0.611590E-08  0.122E-04   11.50      14.4  T
   3  -3478.7985283 -0.103682E-09  0.190E-05   11.50      92.4  T
     SCC iter.                  ...        2 min, 52.183 sec
     gradient                   ...        4 min,  0.670 sec
 * total energy  : -3427.5015227 Eh     change    :  -0.3235511E-05 Eh
   gradient norm :     0.0012430 Eh/a0  converged?    E=T G=F D=F
   time step     :     0.4871793 fs     power     :   0.7375690E-10
   step length   :     0.0039429 a0     speed     :   0.1957657E-03

........................................................................
.............................. CYCLE   33 ..............................
........................................................................

 iter      E             dE          RMSdq      gap      omega  full diag
   1  -3478.7969516 -0.347880E+04  0.204E-04   11.50       0.0  T
   2  -3478.7969516 -0.725731E-08  0.121E-04   11.50      14.5  T
   3  -3478.7969516 -0.267846E-09  0.213E-05   11.50      82.4  T
     SCC iter.                  ...        2 min, 53.279 sec
     gradient                   ...        4 min,  2.528 sec
 * total energy  : -3427.5015257 Eh     change    :  -0.3039756E-05 Eh
   gradient norm :     0.0013398 Eh/a0  converged?    E=T G=F D=F
   time step     :     0.5358972 fs     power     :   0.6014406E-10
   step length   :     0.0043846 a0     speed     :   0.1979100E-03

........................................................................
.............................. CYCLE   34 ..............................
........................................................................

 iter      E             dE          RMSdq      gap      omega  full diag
   1  -3478.7960730 -0.347880E+04  0.188E-04   11.50       0.0  T
   2  -3478.7960730 -0.315458E-08  0.112E-04   11.50      15.7  T
   3  -3478.7960730 -0.149157E-09  0.115E-05   11.50     152.0  T
     SCC iter.                  ...        2 min, 50.112 sec
     gradient                   ...        4 min,  2.457 sec
 * total energy  : -3427.5015289 Eh     change    :  -0.3207255E-05 Eh
   gradient norm :     0.0015432 Eh/a0  converged?    E=T G=F D=F
   time step     :     0.5894869 fs     power     :   0.6320166E-10
   step length   :     0.0048100 a0     speed     :   0.1973724E-03

........................................................................
.............................. CYCLE   35 ..............................
........................................................................

 iter      E             dE          RMSdq      gap      omega  full diag
   1  -3478.7965398 -0.347880E+04  0.205E-04   11.50       0.0  T
   2  -3478.7965398 -0.105319E-08  0.120E-04   11.50      14.6  T
   3  -3478.7965398 -0.118689E-09  0.736E-06   11.50     238.1  T
     SCC iter.                  ...        2 min, 54.978 sec
     gradient                   ...        3 min, 55.239 sec
 * total energy  : -3427.5015331 Eh     change    :  -0.4170817E-05 Eh
   gradient norm :     0.0014278 Eh/a0  converged?    E=T G=F D=F
   time step     :     0.6484356 fs     power     :   0.7847452E-10
   step length   :     0.0053175 a0     speed     :   0.1983614E-03

........................................................................
.............................. CYCLE   36 ..............................
........................................................................

 iter      E             dE          RMSdq      gap      omega  full diag
   1  -3478.7984652 -0.347880E+04  0.265E-04   11.50       0.0  T
   2  -3478.7984652 -0.727778E-08  0.153E-04   11.50      11.4  T
   3  -3478.7984652 -0.140062E-09  0.216E-05   11.50      81.3  T
     SCC iter.                  ...        2 min, 52.288 sec
     gradient                   ...        3 min, 55.996 sec
 * total energy  : -3427.5015380 Eh     change    :  -0.4883735E-05 Eh
   gradient norm :     0.0010914 Eh/a0  converged?    E=T G=F D=F
   time step     :     0.7132792 fs     power     :   0.7798089E-10
   step length   :     0.0060227 a0     speed     :   0.2042428E-03

........................................................................
.............................. CYCLE   37 ..............................
........................................................................

 iter      E             dE          RMSdq      gap      omega  full diag
   1  -3478.8009002 -0.347880E+04  0.294E-04   11.50       0.0  T
   2  -3478.8009002 -0.119294E-07  0.171E-04   11.50      10.2  T
   3  -3478.8009002 -0.371529E-09  0.291E-05   11.50      60.2  T
     SCC iter.                  ...        2 min, 50.695 sec
     gradient                   ...        3 min, 55.370 sec
 * total energy  : -3427.5015426 Eh     change    :  -0.4638346E-05 Eh
   gradient norm :     0.0012148 Eh/a0  converged?    E=T G=F D=F
   time step     :     0.7846071 fs     power     :   0.6275926E-10
   step length   :     0.0068766 a0     speed     :   0.2120015E-03

........................................................................
.............................. CYCLE   38 ..............................
........................................................................

 iter      E             dE          RMSdq      gap      omega  full diag
   1  -3478.8019611 -0.347880E+04  0.262E-04   11.50       0.0  T
   2  -3478.8019611 -0.555656E-08  0.154E-04   11.50      11.4  T
   3  -3478.8019611 -0.291038E-09  0.213E-05   11.50      82.3  T
     SCC iter.                  ...        2 min, 54.864 sec
     gradient                   ...        3 min, 55.539 sec
 * total energy  : -3427.5015476 Eh     change    :  -0.5031631E-05 Eh
   gradient norm :     0.0013023 Eh/a0  converged?    E=F G=F D=F
   time step     :     0.8630678 fs     power     :   0.6839111E-10
   step length   :     0.0076899 a0     speed     :   0.2155213E-03

........................................................................
.............................. CYCLE   39 ..............................
........................................................................

 iter      E             dE          RMSdq      gap      omega  full diag
   1  -3478.8009249 -0.347880E+04  0.286E-04   11.50       0.0  T
   2  -3478.8009249 -0.937189E-08  0.167E-04   11.50      10.5  T
   3  -3478.8009249 -0.424734E-09  0.285E-05   11.50      61.5  T
     SCC iter.                  ...        2 min, 54.568 sec
     gradient                   ...        3 min, 54.987 sec
 * total energy  : -3427.5015536 Eh     change    :  -0.5987419E-05 Eh
   gradient norm :     0.0010241 Eh/a0  converged?    E=F G=F D=F
   time step     :     0.9493746 fs     power     :   0.7094485E-10
   step length   :     0.0086933 a0     speed     :   0.2214953E-03

........................................................................
.............................. CYCLE   40 ..............................
........................................................................

 iter      E             dE          RMSdq      gap      omega  full diag
   1  -3478.7994794 -0.347880E+04  0.306E-04   11.50       0.0  T
   2  -3478.7994794 -0.976297E-08  0.178E-04   11.50       9.8  T
   3  -3478.7994794 -0.361069E-09  0.255E-05   11.50      68.7  T
     SCC iter.                  ...        2 min, 54.734 sec
     gradient                   ...        3 min, 56.001 sec
 * total energy  : -3427.5015596 Eh     change    :  -0.5974428E-05 Eh
   gradient norm :     0.0012561 Eh/a0  converged?    E=F G=F D=F
   time step     :     1.0443120 fs     power     :   0.6241305E-10
   step length   :     0.0099233 a0     speed     :   0.2298471E-03

........................................................................
.............................. CYCLE   41 ..............................
........................................................................

 iter      E             dE          RMSdq      gap      omega  full diag
   1  -3478.8005160 -0.347880E+04  0.315E-04   11.50       0.0  T
   2  -3478.8005160 -0.523960E-08  0.184E-04   11.50       9.5  T
   3  -3478.8005160 -0.307864E-09  0.144E-05   11.50     122.1  T
     SCC iter.                  ...        2 min, 51.786 sec
     gradient                   ...        3 min, 55.579 sec
 * total energy  : -3427.5015670 Eh     change    :  -0.7379713E-05 Eh
   gradient norm :     0.0011072 Eh/a0  converged?    E=F G=F D=F
   time step     :     1.1487432 fs     power     :   0.7707364E-10
   step length   :     0.0111961 a0     speed     :   0.2357539E-03

........................................................................
.............................. CYCLE   42 ..............................
........................................................................

 iter      E             dE          RMSdq      gap      omega  full diag
   1  -3478.8029481 -0.347880E+04  0.383E-04   11.50       0.0  T
   2  -3478.8029481 -0.180034E-07  0.223E-04   11.50       7.9  T
   3  -3478.8029481 -0.580258E-09  0.324E-05   11.50      54.1  T
     SCC iter.                  ...        2 min, 54.523 sec
     gradient                   ...        3 min, 54.937 sec
 * total energy  : -3427.5015751 Eh     change    :  -0.8114570E-05 Eh
   gradient norm :     0.0011745 Eh/a0  converged?    E=F G=F D=F
   time step     :     1.2500000 fs     power     :   0.7067775E-10
   step length   :     0.0127752 a0     speed     :   0.2472134E-03
 * RMSD in coord.:     0.0016590 a0     energy gain  -0.8625266E-04 Eh

........................................................................
.............................. CYCLE   43 ..............................
........................................................................

 iter      E             dE          RMSdq      gap      omega  full diag
   1  -3478.8029998 -0.347880E+04  0.600E-05   11.50       0.0  T
   2  -3478.8029998 -0.109594E-09  0.354E-05   11.50      49.5  T
   3  -3478.8029998 -0.300133E-10  0.209E-06   11.50     837.0  T
     SCC iter.                  ...        2 min, 51.711 sec
     gradient                   ...        3 min, 56.870 sec
 * total energy  : -3427.5015767 Eh     change    :  -0.1584827E-05 Eh
   gradient norm :     0.0011920 Eh/a0  converged?    E=T G=F D=F
   time step     :     0.2500000 fs     power     :   0.8119695E-10
   step length   :     0.0024607 a0     speed     :   0.2380834E-03

........................................................................
.............................. CYCLE   44 ..............................
........................................................................

 iter      E             dE          RMSdq      gap      omega  full diag
   1  -3478.8026585 -0.347880E+04  0.597E-05   11.50       0.0  T
   2  -3478.8026585 -0.342425E-09  0.349E-05   11.50      50.3  T
   3  -3478.8026585  0.136424E-11  0.452E-06   11.50     387.8  T
     SCC iter.                  ...        2 min, 55.238 sec
     gradient                   ...        3 min, 57.505 sec
 * total energy  : -3427.5015784 Eh     change    :  -0.1720595E-05 Eh
   gradient norm :     0.0011059 Eh/a0  converged?    E=T G=F D=F
   time step     :     0.2500000 fs     power     :   0.8971706E-10
   step length   :     0.0023946 a0     speed     :   0.2316894E-03

........................................................................
.............................. CYCLE   45 ..............................
........................................................................

 iter      E             dE          RMSdq      gap      omega  full diag
   1  -3478.8020132 -0.347880E+04  0.696E-05   11.50       0.0  T
   2  -3478.8020132 -0.845375E-09  0.404E-05   11.50      43.3  T
   3  -3478.8020132  0.295586E-10  0.787E-06   11.50     222.6  T
     SCC iter.                  ...        2 min, 51.446 sec
     gradient                   ...        3 min, 55.379 sec
 * total energy  : -3427.5015802 Eh     change    :  -0.1788701E-05 Eh
   gradient norm :     0.0009680 Eh/a0  converged?    E=T G=T D=F
   time step     :     0.2500000 fs     power     :   0.9214877E-10
   step length   :     0.0023610 a0     speed     :   0.2284378E-03

   *** GEOMETRY OPTIMIZATION CONVERGED AFTER 45 CYCLES ***

------------------------------------------------------------------------
 total energy gain   :        -0.0003837 Eh       -0.2408 kcal/mol
 total RMSD          :         0.0020103 a0        0.0011 Å
 total power (kW/mol):        -0.0223873 (step)   -0.0001 (real)
------------------------------------------------------------------------

 FIRE (total)                  0 d,  5 h, 21 min, 59.987 sec
 setup                          ...        0 min,  0.120 sec (  0.001%)
 velocities                     ...        0 min,  0.003 sec (  0.000%)
 propagation                    ...        0 min,  0.006 sec (  0.000%)
 singlepoint calculation        ...      321 min, 59.042 sec ( 99.995%)
 log and printout               ...        0 min,  0.737 sec (  0.004%)
 preconditioner                 ...        0 min,  0.000 sec (  0.000%)
 model hessian                  ...        0 min,  0.000 sec (  0.000%)
 hessian update                 ...        0 min,  0.000 sec (  0.000%)

================
 final structure:
================
3258
 xtb: 6.6.1 (8d0f1dd)
C          118.56069459320095      110.27253233174935      117.99420833980638
C          118.41673279968478      111.26848019964378      116.85134860087389
C          117.08769280633169      112.01376137570713      116.90255793331046
C          116.94823599523239      113.01434980200855      115.75895314426060
C          115.62772493264387      113.77433849814655      115.82923571061319
C          115.45756563987324      114.75667435387614      114.67402373532899
C          114.14884671270322      115.53286583716856      114.78607599729096
C          113.91875575698938      116.46731206100786      113.60221626213944
C          112.62242630069275      117.25821660215863      113.75371503463622
C          112.33319893705928      118.14015006042436      112.54336152243789
C          111.06765036031148      118.97128139794830      112.73180756274444
C          110.74467267116302      119.82585844426769      111.50991391335697
C          109.56021097222929      120.75429147525172      111.76346822878544
C          109.25313487294997      121.65175706558608      110.56741964236706
C          108.06379521737604      122.57855914821144      110.81009399213623
C          108.34737531862002      123.69609506238982      111.80998663593559
C          107.16081118193061      124.64834016210899      111.93877364353817
C          107.35305255673721      125.65501245147107      113.06993572230822
C          106.15018359831777      126.58450350437590      113.20792628062271
C          106.28010134951599      127.59873461251811      114.34699866341097
C          106.53215460837637      126.98994701427702      115.72886838439852
C          105.48345685544852      125.96432554936051      116.15105839972914
C          105.80278971231833      125.33338068998215      117.50500563642537
C          104.76676450381611      124.27842899397895      117.88603645315449
C          105.15120084957118      123.51224815219062      119.15026663452484
C          104.15708661090984      122.40388821961724      119.50300609813993
C          102.82756072089578      122.93676252146528      120.03094289318048
C          101.81614625029700      121.82367482404705      120.29607879138887
C          100.51022727775218      122.37968507191162      120.85885348606331
C           99.40313528540506      121.33094572209281      120.93242663744570
C           98.08716443743096      121.93772203522529      121.41695191980403
C           96.89251705778636      121.01571540053224      121.18489561611597
C           95.58481306593127      121.67638314195831      121.61784207271160
C           94.33108337816897      120.89024372791815      121.22607556539761
C           94.09873134299082      120.75699658917350      119.71877274134340
C           93.80250863019430      122.08192988017568      119.01771815239728
C           93.94086294159028      121.99316714452219      117.49758324857160
C           92.89655991687314      121.10273966196115      116.82723051873899
C           93.06560878715204      121.11224769801404      115.30915620964851
C           91.94893108126078      120.39314278219557      114.55335994023085
C           91.96057372133610      118.87410694748537      114.71682943651361
C           90.93718852957728      118.21909391708759      113.79008915276201
C           91.04287149205476      116.69600328213674      113.75685306293065
C           90.08607351938782      116.09140691942099      112.72946474692647
C           90.35990666396138      114.61166762174186      112.47045593720800
C           89.44816003247578      114.05003509420874      111.37950217097530
C           89.80150961917819      112.62084132275875      110.96155525753362
C           91.12455956212298      112.54102287428724      110.20299110410122
C           91.44728754277405      111.12403246465028      109.73287050847230
C           92.84391702767306      111.00867658572166      109.11716854371544
C           93.94560062699149      111.18094473091251      110.16011599948826
C           95.35800543291161      110.95611199429476      109.62494911648574
C           95.80929644640547      112.00111329747291      108.60143468668039
C           97.33438801057785      112.05515196494009      108.53642905361313
C           97.89934522212053      112.91269307199727      107.40348321099270
C           97.60828660480836      112.40114098124641      105.98893844160675
C           97.90210711885729      110.91764748984509      105.76850070113059
C           99.36633572110563      110.54195677552531      105.97939081858395
C           99.59216292895357      109.02978683036434      105.97871416502248
C           99.11359323685876      108.35805447288986      107.26467696283420
C           99.52995737049748      106.89162613446105      107.33600640474963
C           99.16487356498699      106.25895164713127      108.67573995503760
C           99.69944570227005      104.83429302862676      108.80616190405456
C           99.54133221897999      104.29677184090401      110.22514971952479
C          100.13331344943336      102.90129027076912      110.40865530220182
C          100.14225585015748      102.50224146540000      111.88161801257047
C          100.65277734081661      101.08500176258102      112.12729326961950
C          100.72038997047596      100.78950363201237      113.62427220774225
C          101.11955816331077       99.35553988208461      113.96735449651938
C          100.11886659676978       98.28465314101454      113.52477576479767
C           98.69352317380751       98.45596926214901      114.04904741147328
C           98.56430192961983       98.33501642543818      115.56533811978083
C           97.10786574071182       98.48762533406403      116.00082407168935
C           96.88474425724806       98.32363439763363      117.50436909438156
C           97.61263961082324       99.37421997620649      118.34013664893639
C           97.15566237051485       99.37862188955974      119.79680388350646
C           97.98924489628726      100.33794760817246      120.64465574736579
C           97.44946712686436      100.50496659674631      122.06543507666508
C           96.21032923815262      101.39925302491582      122.16095070730151
C           96.50021302487083      102.86713449456543      121.80786277178815
C           95.84338620250959      103.33129240269734      120.50697372387110
C           96.37396918574711      104.69849633032037      120.08051057990110
C           95.64744737539328      105.27801754350696      118.86740240571962
C           96.41353719560948      106.46433422103736      118.28759238262460
C           95.71426422827315      107.12148935546459      117.09974581172126
C           96.58789301991546      108.20921651060749      116.47692480779786
C           95.87426120264948      108.99003765188286      115.37659393551144
C           96.77701912633820      110.06265826158688      114.77086100642391
C           96.02924417897690      111.01722908567331      113.84203536114408
C           96.91011788048561      112.19018607485984      113.41283609881474
C           96.11675687001818      113.34738854550218      112.80824182475419
C           97.00398298643627      114.56997913685160      112.58340876108973
C           96.31540837026675      115.70654823318199      111.83025230740084
C           95.14086146031507      116.33229504558933      112.58152578823311
C           94.67238865969317      117.63677870365743      111.92812363112662
C           95.52767244744462      118.83698762550544      112.33317449940122
C           95.19234366723813      120.07940406481555      111.51008761032163
C           95.83400400811594      121.36343501593836      112.04369097317702
C           97.35067916018843      121.29557090277029      112.23151589862775
C           98.12092456876627      121.04397577426414      110.93744376087739
C           99.63322789783186      120.95141218669863      111.15110408157538
C          100.02794794544469      119.80146278434046      112.07675827594780
C          101.50518075140577      119.43233410534593      111.98065051050341
C          101.86413006964705      118.35410692496275      113.00050807794462
C          103.28552054372867      117.83114828386300      112.82691187892135
C          103.59851162216007      116.68618215923394      113.78755309506984
C          105.01318584270277      116.15844455647665      113.57010818433905
C          105.33600393897109      114.89133231084779      114.35698181833099
C          105.27340618957689      115.06356986048375      115.87229085265685
C          105.91018725059207      113.87075416150596      116.58266209111351
C          105.71624069285515      113.88353626400757      118.09864876165462
C          104.29269927946791      113.51303656993836      118.50269497942787
C          104.11528980503600      113.41655053475850      120.01546574119999
C          102.69475534465731      113.00291009535196      120.40326896419786
C          102.40165699632266      111.52947515396637      120.12285510731938
C          100.92675982929995      111.20328199203745      120.33907594692646
C          100.57852942841922      109.73399854946470      120.10345704190955
C          100.74805769924546      109.29226017420038      118.65007381910193
C          100.01136631738059      107.99022586687732      118.33939319078101
C          100.53445750767783      106.79876072602019      119.12997179932148
H           98.94857632195534      108.12304559539307      118.55154624694075
H          100.10995011165659      107.77884940539325      117.27149554420714
H          100.35281624847613      110.07289892293656      117.99550145679177
H          101.80715973374575      109.16525546353981      118.41784497682976
H          101.19607731847441      109.11242685223152      120.75468869157170
H           99.53550794824096      109.58124140056297      120.38783161496920
H          100.65479851187081      111.47090234189409      121.36323534531719
H          100.32323130907481      111.82275367648921      119.67024448931167
H          102.67358350172006      111.29220092683934      119.09418367092944
H          103.01461598653961      110.90755524519147      120.78001270138222
H          102.53830205101524      113.19583621083989      121.46727535708666
H          101.98429791220906      113.62408902620871      119.85166343404588
H          104.82765343192644      112.69576921191903      120.42445132751811
H          104.33763579114904      114.39048150086080      120.45865652195934
H          103.59056524638137      114.25518470851337      118.11772238339766
H          104.04322710739403      112.55576576114201      118.04276921676150
H          106.40652211351734      113.16642291720383      118.54839074588199
H          105.96543462356918      114.87051527307716      118.49179605285792
H          105.48395287547125      112.94776541289171      116.18213220109888
H          106.97928137087551      113.85896028628389      116.35419412130146
H          105.79989775218449      115.97670557175314      116.15813819864853
H          104.23328608317641      115.16883353798322      116.18177210661050
H          104.63884626263102      114.10278061621729      114.06238166753343
H          106.34302872037918      114.56535085652769      114.08245143092442
H          105.13853817189361      115.93640805640254      112.50782342575282
H          105.73061369788920      116.93884710986241      113.82781950634460
H          103.48334582484628      117.03364872942701      114.81602787795202
H          102.87992810180890      115.87816659116694      113.62824692245071
H          103.41128421123130      117.47600271058090      111.80098793978993
H          103.99839191069536      118.64404105116988      112.98235433026437
H          101.74391635026768      118.75738810596781      114.00873277879869
H          101.16588650349536      117.52045192253898      112.89641548263366
H          101.72132552022028      119.06785518085449      110.97333096150128
H          102.12234735118280      120.31758005370651      112.14946517710351
H           99.80470336407252      120.06973398615237      113.11042540462017
H           99.43369241511252      118.91849519905101      111.82784475010980
H          100.11254157680796      120.80501146478507      110.17989558582862
H          100.00516407977508      121.89358607511677      111.56040795823772
H           97.77866253257190      120.11263762423764      110.48182104949720
H           97.91192427335226      121.85433501784638      110.23468814050696
H           97.68782621208545      122.24232002299073      112.66217504551071
H           97.57787758318130      120.50989352053348      112.95034428139830
H           95.59125872368335      122.18226238550496      111.36198247698809
H           95.38293040483815      121.60064143098489      113.01079216808164
H           95.49370347473963      119.91608866853146      110.47321864968831
H           94.10814643185859      120.21967434538095      111.50928858882732
H           95.36591904825023      119.05006672159082      113.39272078100079
H           96.58191547911481      118.58860371878414      112.20410530697914
H           94.69811295218295      117.51914148176564      110.84201063354831
H           93.63633257719306      117.83679434667344      112.20746766273419
H           94.31251697221794      115.62120106561697      112.60122094185597
H           95.42956892537802      116.53058516647660      113.61702071378564
H           97.06094575251686      116.47805015018302      111.62647457060642
H           95.95917856972008      115.33387746315850      110.86724489710602
H           97.35736576278697      114.94160895675338      113.54918372889254
H           97.88107239785847      114.26189226430081      112.00875477213980
H           95.68014068243944      113.03580898130893      111.85807151133805
H           95.29859707115028      113.61045266116066      113.48218246775784
H           97.45192799231098      112.55896946611378      114.28642891810976
H           97.65599059687109      111.84377830985423      112.69326178420184
H           95.66750921615096      110.48005246747144      112.96238755445485
H           95.15411788807261      111.40614863299045      114.36809721604067
H           97.21393181999755      110.64552584136079      115.58421878977704
H           97.60110924765013      109.59298265444662      114.22801416901439
H           95.53713830325572      108.30422891305955      114.59817922503115
H           94.99184017712307      109.46823234854536      115.80360165172424
H           96.89468437436575      108.90681647087466      117.26125859758693
H           97.49515949376638      107.75491470153148      116.07272558551730
H           95.48049351145629      106.36374489346339      116.34742270196467
H           94.76815606371521      107.55638555089948      117.43091397887842
H           96.55887781692164      107.21068476116447      119.07295510303304
H           97.40156654973273      106.12109885116601      117.97079417395037
H           95.54486633900255      104.50826794682624      118.10067711327355
H           94.64229538104040      105.59205481981785      119.15680760988961
H           96.28957117752125      105.39551716852816      120.91674726249802
H           97.43699552144010      104.60246268260512      119.84330851360271
H           96.04048731889084      102.60624034514446      119.71407549536521
H           94.76063510426546      103.38265224485245      120.64310974432881
H           96.15472052973762      103.51682988616973      122.61445617733010
H           97.57913018295780      103.01030539360069      121.72705077491334
H           95.42699025553367      101.01219223749253      121.50769604796385
H           95.83084483350291      101.33708320909386      123.18282356465676
H           97.20960944394619       99.51822362511717      122.46939656673517
H           98.23328455570503      100.93397213890184      122.69431428307976
H           99.01276037049008       99.95760025170833      120.69867135416153
H           98.03216760270851      101.31124009698364      120.15447285707778
H           96.10326409499164       99.66623167142095      119.83849961572838
H           97.23517899569747       98.36977889031978      120.21030367258052
H           98.68738219601565       99.18634932989396      118.30604914967680
H           97.42994206321447      100.36189001243430      117.91292013070999
H           95.81189705050572       98.39734401474075      117.70160992486150
H           97.20725819225423       97.32709922519403      117.81258548552169
H           96.74572257241471       99.47237693725583      115.69394414349712
H           96.50406232417157       97.74190858408787      115.47609110032984
H           98.93587555429478       97.35769173943585      115.88356752425562
H           99.17334465685840       99.10077232723414      116.04622955049746
H           98.29411409204211       99.41894720031704      113.72644171660988
H           98.07447303296765       97.67983591340509      113.59073525357699
H          100.08015982770755       98.25864303093616      112.43349262025201
H          100.49109704793943       97.31100755907649      113.85670108249184
H          102.08289616486771       99.13688322434804      113.49961352762578
H          101.26160882989835       99.28850219845354      115.04826978663199
H          101.45102143196694      101.46495889632848      114.07877438645386
H           99.75377615311375      101.01270261380823      114.07537708040832
H           99.98501812503808      100.37564362219113      111.63508202180577
H          101.64619266886923      100.97047282343706      111.68722065364162
H          100.77352440167697      103.20687693305803      112.42948651042316
H           99.12725804407378      102.58652989540032      112.28022609942549
H           99.55757668679030      102.17421109759221      109.83032727004191
H          101.15699114430575      102.88924761017984      110.02754144903845
H          100.04385940454888      104.97769834793689      110.91648194024376
H           98.48223463571075      104.28174340575254      110.49256017195043
H           99.18317962615585      104.17848085734197      108.10087489230608
H          100.75890502647087      104.82956332058971      108.53905110948240
H           99.58563468439861      106.87202614265404      109.47637414167487
H           98.07951196080472      106.25975779847597      108.80099892177138
H           99.05557501808170      106.33482004706048      106.52437710448135
H          100.61199912698611      106.82289718972025      107.19715122432576
H           99.54007486934977      108.88611379759645      108.12196557094131
H           98.02683836996660      108.42692299092069      107.34515266697866
H           99.07999869738846      108.58256400216726      105.12331598707156
H          100.66216785081727      108.83439069345447      105.86529931686142
H           99.96701923560538      110.99827620076658      105.18833935960788
H           99.71948860287507      110.94160410080704      106.93126780578638
H           97.27236285719880      110.33046042755659      106.43575976981698
H           97.62217052087169      110.65730777512699      104.74460376347784
H           96.55792002796991      112.57933246997736      105.75283000387117
H           98.19839292356792      112.99175727402923      105.28264838984700
H           97.50206124128373      113.92670096711912      107.48747707106197
H           98.98105407040170      112.98493401676342      107.54138702000417
H           97.69873603854857      112.45733606298199      109.48584240694474
H           97.72086042458255      111.03862415629284      108.45152693269173
H           95.40114002386663      111.75457778902025      107.62134372949660
H           95.42593863759258      112.98505855277462      108.88408997439797
H           96.04780633460319      110.98128809866208      110.47271400522098
H           95.42944893094176      109.95991368137062      109.18199314106150
H           93.89474161667728      112.18619754928950      110.58201748414717
H           93.76308470604071      110.47442023714058      110.97351597551997
H           92.94623067367890      110.02348112847386      108.65472191960082
H           92.95361431264068      111.75861551212459      108.33138710987333
H           91.37475714994888      110.43779491103084      110.58078648759387
H           90.70175007070209      110.81418215291140      108.99644381871906
H           91.08463063636781      113.20583309655844      109.33670160603891
H           91.92447622690743      112.89085085418547      110.85423719120003
H           89.85335216144040      111.98564573287436      111.84918819520716
H           89.00310276000288      112.23211962088469      110.32448852408464
H           88.41637432619399      114.07216869393649      111.73829279320948
H           89.50274509980683      114.69732666422715      110.50053834627209
H           91.40283639189965      114.50361678623064      112.16831910517173
H           90.22063352164156      114.04215390040072      113.39212182483372
H           89.05537935185697      116.22292144300131      113.06601346331689
H           90.19428179594517      116.63434203541766      111.78673546458540
H           92.06713647123884      116.41756000282325      113.49763541215988
H           90.83173215059176      116.28666915506813      114.74697635506683
H           89.92980999695848      118.50856378115790      114.09769614647720
H           91.08884608433317      118.59981683487999      112.77598565824512
H           92.95702667588114      118.49569064222572      114.47781819761414
H           91.74142866705481      118.60405673064132      115.75112828996487
H           90.98235624145966      120.78592630775762      114.87732144791926
H           92.05521150760261      120.62373628260332      113.48973639914649
H           93.09432934978464      122.15164669297232      114.97060704662077
H           94.02515767749038      120.65798546884074      115.04889045499961
H           92.98889236868901      120.08296914077447      117.20139072038677
H           91.89790045586355      121.46522982125323      117.08186114432749
H           93.85626162495296      123.00063684314280      117.08091689161832
H           94.93954163668646      121.62162637672695      117.25361465162928
H           92.79576496297788      122.41765237395363      119.27637280654082
H           94.50250442243669      122.84135040876991      119.36944475462371
H           94.97512638536290      120.30300991887877      119.25640118054554
H           93.26144966337691      120.07375277770795      119.56474066826651
H           94.40091477884627      119.88682421292710      121.65434616179394
H           93.46186061540172      121.37876265927997      121.67328271449651
H           95.59287883242942      121.79520345170155      122.70418407287420
H           95.53608339844018      122.67856271619326      121.18800009369258
H           96.84790839676498      120.77820669235682      120.12101211250703
H           97.03106949870507      120.07880449618681      121.72957196310269
H           98.16435859675062      122.18355185379077      122.47835564001056
H           97.91179599360738      122.87192346626091      120.87660490520808
H           99.25526998939431      120.90523424323410      119.93724946343104
H           99.70564881412282      120.51914474895786      121.59782907539349
[...]
  3011   6 C     3012   6 C                                       1.5270717
  3012   6 C     3013   6 C                                       1.5272406
  3013   6 C     3014   6 C                                       1.5261495
  3014   6 C     3015   6 C                                       1.5258379
  3015   6 C     3016   6 C                                       1.5234778
  3015   6 C     3017   1 H                                       1.0927529
  3015   6 C     3018   1 H                                       1.0925139
  3014   6 C     3019   1 H                                       1.0919974
  3014   6 C     3020   1 H                                       1.0930115
  3013   6 C     3021   1 H                                       1.0935093
  3013   6 C     3022   1 H                                       1.0924783
  3012   6 C     3023   1 H                                       1.0928176
  3012   6 C     3024   1 H                                       1.0910769
  3011   6 C     3025   1 H                                       1.0914718
  3011   6 C     3026   1 H                                       1.0931124
  3010   6 C     3027   1 H                                       1.0939858
  3010   6 C     3028   1 H                                       1.0931911
  3009   6 C     3029   1 H                                       1.0912112
  3009   6 C     3030   1 H                                       1.0926685
  3008   6 C     3031   1 H                                       1.0926409
  3008   6 C     3032   1 H                                       1.0930074
  3007   6 C     3033   1 H                                       1.0925387
  3007   6 C     3034   1 H                                       1.0930144
  3006   6 C     3035   1 H                                       1.0920812
  3006   6 C     3036   1 H                                       1.0935972
  3005   6 C     3037   1 H                                       1.0925652
  3005   6 C     3038   1 H                                       1.0924800
  3004   6 C     3039   1 H                                       1.0921522
  3004   6 C     3040   1 H                                       1.0920957
  3003   6 C     3041   1 H                                       1.0917496
  3003   6 C     3042   1 H                                       1.0916806
  3002   6 C     3043   1 H                                       1.0931711
  3002   6 C     3044   1 H                                       1.0910165
  3001   6 C     3045   1 H                                       1.0918550
  3001   6 C     3046   1 H                                       1.0934762
  3000   6 C     3047   1 H                                       1.0930644
  3000   6 C     3048   1 H                                       1.0915764
  2999   6 C     3049   1 H                                       1.0928669
  2999   6 C     3050   1 H                                       1.0922912
  2998   6 C     3051   1 H                                       1.0920423
  2998   6 C     3052   1 H                                       1.0923379
  2997   6 C     3053   1 H                                       1.0926179
  2997   6 C     3054   1 H                                       1.0924304
  2996   6 C     3055   1 H                                       1.0919553
  2996   6 C     3056   1 H                                       1.0930960
  2995   6 C     3057   1 H                                       1.0928702
  2995   6 C     3058   1 H                                       1.0928406
  2994   6 C     3059   1 H                                       1.0921430
  2994   6 C     3060   1 H                                       1.0918949
  2993   6 C     3061   1 H                                       1.0923063
  2993   6 C     3062   1 H                                       1.0929335
  2992   6 C     3063   1 H                                       1.0918454
  2992   6 C     3064   1 H                                       1.0922628
  2991   6 C     3065   1 H                                       1.0927192
  2991   6 C     3066   1 H                                       1.0919671
  2990   6 C     3067   1 H                                       1.0917681
  2990   6 C     3068   1 H                                       1.0927344
  2989   6 C     3069   1 H                                       1.0935067
  2989   6 C     3070   1 H                                       1.0913799
  2988   6 C     3071   1 H                                       1.0932980
  2988   6 C     3072   1 H                                       1.0931770
  2987   6 C     3073   1 H                                       1.0915487
  2987   6 C     3074   1 H                                       1.0934963
  2986   6 C     3075   1 H                                       1.0929277
  2986   6 C     3076   1 H                                       1.0900067
  2985   6 C     3077   1 H                                       1.0933450
  2985   6 C     3078   1 H                                       1.0932501
  2984   6 C     3079   1 H                                       1.0931687
  2984   6 C     3080   1 H                                       1.0924359
  2983   6 C     3081   1 H                                       1.0903280
  2983   6 C     3082   1 H                                       1.0931670
  2982   6 C     3083   1 H                                       1.0928322
  2982   6 C     3084   1 H                                       1.0925064
  2981   6 C     3085   1 H                                       1.0930099
  2981   6 C     3086   1 H                                       1.0915859
  2980   6 C     3087   1 H                                       1.0921415
  2980   6 C     3088   1 H                                       1.0916489
  2979   6 C     3089   1 H                                       1.0923307
  2979   6 C     3090   1 H                                       1.0923572
  2978   6 C     3091   1 H                                       1.0904100
  2978   6 C     3092   1 H                                       1.0912926
  2977   6 C     3093   1 H                                       1.0924675
  2977   6 C     3094   1 H                                       1.0909845
  2976   6 C     3095   1 H                                       1.0915792
  2976   6 C     3096   1 H                                       1.0925381
  2975   6 C     3097   1 H                                       1.0933273
  2975   6 C     3098   1 H                                       1.0925129
  2974   6 C     3099   1 H                                       1.0926447
  2974   6 C     3100   1 H                                       1.0921566
  2973   6 C     3101   1 H                                       1.0918173
  2973   6 C     3102   1 H                                       1.0921349
  2972   6 C     3103   1 H                                       1.0906024
  2972   6 C     3104   1 H                                       1.0933091
  2971   6 C     3105   1 H                                       1.0933926
  2971   6 C     3106   1 H                                       1.0906357
  2970   6 C     3107   1 H                                       1.0928049
  2970   6 C     3108   1 H                                       1.0933036
  2969   6 C     3109   1 H                                       1.0892278
  2969   6 C     3110   1 H                                       1.0932968
  2968   6 C     3111   1 H                                       1.0919968
  2968   6 C     3112   1 H                                       1.0898349
  2967   6 C     3113   1 H                                       1.0922803
  2967   6 C     3114   1 H                                       1.0935163
  2966   6 C     3115   1 H                                       1.0921944
  2966   6 C     3116   1 H                                       1.0911537
  2965   6 C     3117   1 H                                       1.0928541
  2965   6 C     3118   1 H                                       1.0926816
  2964   6 C     3119   1 H                                       1.0922363
  2964   6 C     3120   1 H                                       1.0915225
  2963   6 C     3121   1 H                                       1.0932168
  2963   6 C     3122   1 H                                       1.0913002
  2962   6 C     3123   1 H                                       1.0917347
  2962   6 C     3124   1 H                                       1.0923330
  2961   6 C     3125   1 H                                       1.0919092
  2961   6 C     3126   1 H                                       1.0926456
  2960   6 C     3127   1 H                                       1.0934231
  2960   6 C     3128   1 H                                       1.0914935
  2959   6 C     3129   1 H                                       1.0906718
  2959   6 C     3130   1 H                                       1.0929307
  2958   6 C     3131   1 H                                       1.0941140
  2958   6 C     3132   1 H                                       1.0920192
  2957   6 C     3133   1 H                                       1.0907727
  2957   6 C     3134   1 H                                       1.0930131
  2956   6 C     3135   1 H                                       1.0937361
  2956   6 C     3136   1 H                                       1.0904033
  2955   6 C     3137   1 H                                       1.0935648
  2955   6 C     3138   1 H                                       1.0936100
  2954   6 C     3139   1 H                                       1.0895234
  2954   6 C     3140   1 H                                       1.0932815
  2953   6 C     3141   1 H                                       1.0934451
  2953   6 C     3142   1 H                                       1.0913996
  2952   6 C     3143   1 H                                       1.0923769
  2952   6 C     3144   1 H                                       1.0931635
  2951   6 C     3145   1 H                                       1.0935413
  2951   6 C     3146   1 H                                       1.0917349
  2950   6 C     3147   1 H                                       1.0929023
  2950   6 C     3148   1 H                                       1.0917379
  2949   6 C     3149   1 H                                       1.0914111
  2949   6 C     3150   1 H                                       1.0923564
  2948   6 C     3151   1 H                                       1.0932804
  2948   6 C     3152   1 H                                       1.0918179
  2947   6 C     3153   1 H                                       1.0917752
  2947   6 C     3154   1 H                                       1.0934096
  2946   6 C     3155   1 H                                       1.0919633
  2946   6 C     3156   1 H                                       1.0914204
  2945   6 C     3157   1 H                                       1.0927651
  2945   6 C     3158   1 H                                       1.0931827
  2944   6 C     3159   1 H                                       1.0921964
  2944   6 C     3160   1 H                                       1.0914012
  2943   6 C     3161   1 H                                       1.0930000
  2943   6 C     3162   1 H                                       1.0932002
  2942   6 C     3163   1 H                                       1.0930662
  2942   6 C     3164   1 H                                       1.0928107
  2941   6 C     3165   1 H                                       1.0909051
  2941   6 C     3166   1 H                                       1.0924482
  2940   6 C     3167   1 H                                       1.0924611
  2940   6 C     3168   1 H                                       1.0925735
  2939   6 C     3169   1 H                                       1.0922864
  2939   6 C     3170   1 H                                       1.0920054
  2938   6 C     3171   1 H                                       1.0923242
  2938   6 C     3172   1 H                                       1.0927104
  2937   6 C     3173   1 H                                       1.0917699
  2937   6 C     3174   1 H                                       1.0920941
  2936   6 C     3175   1 H                                       1.0926176
  2936   6 C     3176   1 H                                       1.0923913
  2935   6 C     3177   1 H                                       1.0910991
  2935   6 C     3178   1 H                                       1.0928109
  2934   6 C     3179   1 H                                       1.0926232
  2934   6 C     3180   1 H                                       1.0919298
  2933   6 C     3181   1 H                                       1.0911720
  2933   6 C     3182   1 H                                       1.0934344
  2932   6 C     3183   1 H                                       1.0926694
  2932   6 C     3184   1 H                                       1.0918071
  2931   6 C     3185   1 H                                       1.0928909
  2931   6 C     3186   1 H                                       1.0934083
  2930   6 C     3187   1 H                                       1.0930472
  2930   6 C     3188   1 H                                       1.0923200
  2929   6 C     3189   1 H                                       1.0929808
  2929   6 C     3190   1 H                                       1.0914905
  2928   6 C     3191   1 H                                       1.0928415
  2928   6 C     3192   1 H                                       1.0931066
  2927   6 C     3193   1 H                                       1.0932121
  2927   6 C     3194   1 H                                       1.0921034
  2926   6 C     3195   1 H                                       1.0902175
  2926   6 C     3196   1 H                                       1.0925348
  2925   6 C     3197   1 H                                       1.0925771
  2925   6 C     3198   1 H                                       1.0927107
  2924   6 C     3199   1 H                                       1.0926500
  2924   6 C     3200   1 H                                       1.0914891
  2923   6 C     3201   1 H                                       1.0919589
  2923   6 C     3202   1 H                                       1.0923877
  2922   6 C     3203   1 H                                       1.0926893
  2922   6 C     3204   1 H                                       1.0930483
  2921   6 C     3205   1 H                                       1.0910149
  2921   6 C     3206   1 H                                       1.0920711
  2920   6 C     3207   1 H                                       1.0929410
  2920   6 C     3208   1 H                                       1.0932316
  2919   6 C     3209   1 H                                       1.0930002
  2919   6 C     3210   1 H                                       1.0912792
  2918   6 C     3211   1 H                                       1.0923937
  2918   6 C     3212   1 H                                       1.0925693
  2917   6 C     3213   1 H                                       1.0930139
  2917   6 C     3214   1 H                                       1.0921199
  2916   6 C     3215   1 H                                       1.0920355
  2916   6 C     3216   1 H                                       1.0921724
  2915   6 C     3217   1 H                                       1.0930922
  2915   6 C     3218   1 H                                       1.0932551
  2914   6 C     3219   1 H                                       1.0923627
  2914   6 C     3220   1 H                                       1.0918852
  2913   6 C     3221   1 H                                       1.0933204
  2913   6 C     3222   1 H                                       1.0931089
  2912   6 C     3223   1 H                                       1.0914048
  2912   6 C     3224   1 H                                       1.0917540
  2911   6 C     3225   1 H                                       1.0936290
  2911   6 C     3226   1 H                                       1.0929998
  2910   6 C     3227   1 H                                       1.0913579
  2910   6 C     3228   1 H                                       1.0930851
  2909   6 C     3229   1 H                                       1.0929468
  2909   6 C     3230   1 H                                       1.0911263
  2908   6 C     3231   1 H                                       1.0932235
  2908   6 C     3232   1 H                                       1.0931836
  2907   6 C     3233   1 H                                       1.0913588
  2907   6 C     3234   1 H                                       1.0917390
  2906   6 C     3235   1 H                                       1.0933200
  2906   6 C     3236   1 H                                       1.0929018
  2905   6 C     3237   1 H                                       1.0929909
  2905   6 C     3238   1 H                                       1.0917230
  2904   6 C     3239   1 H                                       1.0918627
  2904   6 C     3240   1 H                                       1.0910204
  2903   6 C     3241   1 H                                       1.0930448
  2903   6 C     3242   1 H                                       1.0921510
  2902   6 C     3243   1 H                                       1.0914869
  2902   6 C     3244   1 H                                       1.0929594
  2901   6 C     3245   1 H                                       1.0926957
  2901   6 C     3246   1 H                                       1.0915290
  2900   6 C     3247   1 H                                       1.0927158
  2900   6 C     3248   1 H                                       1.0935791
  2899   6 C     3249   1 H                                       1.0934038
  2899   6 C     3250   1 H                                       1.0922014
  2898   6 C     3251   1 H                                       1.0911491
  2898   6 C     3252   1 H                                       1.0925669
  2897   6 C     3253   1 H                                       1.0876562
  2897   6 C     3254   1 H                                       1.0881347
  2897   6 C     3255   1 H                                       1.0876451
  3016   6 C     3256   1 H                                       1.0877839
  3016   6 C     3257   1 H                                       1.0878580
  3016   6 C     3258   1 H                                       1.0875819

 * 2 distinct bonds (by element types)

   Z      Z             #   av. dist./Å        max./Å        min./Å
   1 H    6 C        2178     1.0922760     1.0942528     1.0861970
   6 C    6 C        1071     1.5275370     1.5373289     1.5225730


optimized geometry written to: xtbopt.xyz


           -------------------------------------------------
          | TOTAL ENERGY            -3427.501580192279 Eh   |
          | GRADIENT NORM               0.000968681624 Eh/α |
          | HOMO-LUMO GAP              11.499268900053 eV   |
           -------------------------------------------------

------------------------------------------------------------------------
 * finished run on 2024/10/04 at 08:39:17.550     
------------------------------------------------------------------------
 total:
 * wall-time:     0 d,  5 h, 43 min, 36.397 sec
 *  cpu-time:     1 d,  6 h,  2 min, 46.536 sec
 * ratio c/w:     5.247 speedup
 SCF:
 * wall-time:     0 d,  0 h, 13 min, 42.135 sec
 *  cpu-time:     0 d,  1 h, 27 min,  8.488 sec
 * ratio c/w:     6.360 speedup
 ANC optimizer:
 * wall-time:     0 d,  5 h, 29 min,  8.726 sec
 *  cpu-time:     1 d,  4 h, 34 min, 35.932 sec
 * ratio c/w:     5.209 speedup

