      -----------------------------------------------------------      
     |                   =====================                   |     
     |                           x T B                           |     
     |                   =====================                   |     
     |                         S. Grimme                         |     
     |          Mulliken Center for Theoretical Chemistry        |     
     |                    University of Bonn                     |     
      -----------------------------------------------------------      

   * xtb version 6.6.1 (8d0f1dd) compiled by 'stahn@M-Bot' on 2023-08-01

   xtb is free software: you can redistribute it and/or modify it under
   the terms of the GNU Lesser General Public License as published by
   the Free Software Foundation, either version 3 of the License, or
   (at your option) any later version.
   
   xtb is distributed in the hope that it will be useful,
   but WITHOUT ANY WARRANTY; without even the implied warranty of
   MERCHANTABILITY or FITNESS FOR A PARTICULAR PURPOSE.  See the
   GNU Lesser General Public License for more details.
   
   Cite this work as:
   * C. Bannwarth, E. Caldeweyher, S. Ehlert, A. Hansen, P. Pracht,
     J. Seibert, S. Spicher, S. Grimme, WIREs Comput. Mol. Sci., 2020, 11,
     e01493. DOI: 10.1002/wcms.1493
   
   for GFN2-xTB:
   * C. Bannwarth, S. Ehlert and S. Grimme., J. Chem. Theory Comput., 2019,
     15, 1652-1671. DOI: 10.1021/acs.jctc.8b01176
   for GFN1-xTB:
   * S. Grimme, C. Bannwarth, P. Shushkov, J. Chem. Theory Comput., 2017,
     13, 1989-2009. DOI: 10.1021/acs.jctc.7b00118
   for GFN0-xTB:
   * P. Pracht, E. Caldeweyher, S. Ehlert, S. Grimme, ChemRxiv, 2019, preprint.
     DOI: 10.26434/chemrxiv.8326202.v1
   for GFN-FF:
   * S. Spicher and S. Grimme, Angew. Chem. Int. Ed., 2020, 59, 15665-15673.
     DOI: 10.1002/anie.202004239
   
   for ALPB and GBSA implicit solvation:
   * S. Ehlert, M. Stahn, S. Spicher, S. Grimme, J. Chem. Theory Comput.,
     2021, 17, 4250-4261. DOI: 10.1021/acs.jctc.1c00471
   
   for DFT-D4:
   * E. Caldeweyher, C. Bannwarth and S. Grimme, J. Chem. Phys., 2017,
     147, 034112. DOI: 10.1063/1.4993215
   * E. Caldeweyher, S. Ehlert, A. Hansen, H. Neugebauer, S. Spicher,
     C. Bannwarth and S. Grimme, J. Chem. Phys., 2019, 150, 154122.
     DOI: 10.1063/1.5090222
   * E. Caldeweyher, J.-M. Mewes, S. Ehlert and S. Grimme, Phys. Chem. Chem. Phys.
     2020, 22, 8499-8512. DOI: 10.1039/D0CP00502A
   
   for sTDA-xTB:
   * S. Grimme and C. Bannwarth, J. Chem. Phys., 2016, 145, 054103.
     DOI: 10.1063/1.4959605
   
   in the mass-spec context:
   * V. Asgeirsson, C. Bauer and S. Grimme, Chem. Sci., 2017, 8, 4879.
     DOI: 10.1039/c7sc00601b
   * J. Koopman and S. Grimme, ACS Omega 2019, 4, 12, 15120-15133.
     DOI: 10.1021/acsomega.9b02011
   
   for metadynamics refer to:
   * S. Grimme, J. Chem. Theory Comput., 2019, 155, 2847-2862
     DOI: 10.1021/acs.jctc.9b00143
   
   for SPH calculations refer to:
   * S. Spicher and S. Grimme, J. Chem. Theory Comput., 2021, 17, 1701-1714
     DOI: 10.1021/acs.jctc.0c01306
   
   with help from (in alphabetical order)
   P. Atkinson, C. Bannwarth, F. Bohle, G. Brandenburg, E. Caldeweyher
   M. Checinski, S. Dohm, S. Ehlert, S. Ehrlich, I. Gerasimov, C. Hölzer
   A. Katbashev, J. Koopman, C. Lavigne, S. Lehtola, F. März, M. Müller,
   F. Musil, H. Neugebauer, J. Pisarek, C. Plett, P. Pracht, F. Pultar,
   J. Seibert, P. Shushkov, S. Spicher, M. Stahn, M. Steiner, T. Strunk,
   J. Stückrath, T. Rose, and J. Unsleber
   
 * started run on 2024/10/04 at 08:16:39.147     

           -------------------------------------------------
          |                Calculation Setup                |
           -------------------------------------------------

          program call               : /home/abt-grimme/AK-bin/xtb input.xyz --input input.inp --opt
          hostname                   : boar099.thch.uni-bonn.de
          coordinate file            : input.xyz
          omp threads                :                     8

   ID    Z sym.   atoms
    1    6 C      1-120, 363-482, 725-844, 1087-1206, 1449-1568, 1811-1930,
                  2173-2292, 2535-2654, 2897-3016
    2    1 H      121-362, 483-724, 845-1086, 1207-1448, 1569-1810,
                  1931-2172, 2293-2534, 2655-2896, 3017-3258

molecular fragmentation (1/2 indicates fragments):
111111111111111111111111111111111111111111111111111111111111111111111111
111111111111111111111111111111111111111111111111111111111111111111111111
111111111111111111111111111111111111111111111111111111111111111111111111
111111111111111111111111111111111111111111111111111111111111111111111111
111111111111111111111111111111111111111111111111111111111111111111111111
112222222222222222222222222222222222222222222222222222222222222222222222
222222222222222222222222222222222222222222222222222222222222222222222222
222222222222222222222222222222222222222222222222222222222222222222222222
222222222222222222222222222222222222222222222222222222222222222222222222
222222222222222222222222222222222222222222222222222222222222222222222222
222222222222222222222222222222222222222222222222222222222222222222222222
222222222222222222222222222222222222222222222222222222222222222222222222
222222222222222222222222222222222222222222222222222222222222222222222222
222222222222222222222222222222222222222222222222222222222222222222222222
222222222222222222222222222222222222222222222222222222222222222222222222
222222222222222222222222222222222222222222222222222222222222222222222222
222222222222222222222222222222222222222222222222222222222222222222222222
222222222222222222222222222222222222222222222222222222222222222222222222
222222222222222222222222222222222222222222222222222222222222222222222222
222222222222222222222222222222222222222222222222222222222222222222222222
222222222222222222222222222222222222222222222222222222222222222222222222
222222222222222222222222222222222222222222222222222222222222222222222222
222222222222222222222222222222222222222222222222222222222222222222222222
222222222222222222222222222222222222222222222222222222222222222222222222
222222222222222222222222222222222222222222222222222222222222222222222222
222222222222222222222222222222222222222222222222222222222222222222222222
222222222222222222222222222222222222222222222222222222222222222222222222
222222222222222222222222222222222222222222222222222222222222222222222222
222222222222222222222222222222222222222222222222222222222222222222222222
222222222222222222222222222222222222222222222222222222222222222222222222
222222222222222222222222222222222222222222222222222222222222222222222222
222222222222222222222222222222222222222222222222222222222222222222222222
222222222222222222222222222222222222222222222222222222222222222222222222
222222222222222222222222222222222222222222222222222222222222222222222222
222222222222222222222222222222222222222222222222222222222222222222222222
222222222222222222222222222222222222222222222222222222222222222222222222
222222222222222222222222222222222222222222222222222222222222222222222222
222222222222222222222222222222222222222222222222222222222222222222222222
222222222222222222222222222222222222222222222222222222222222222222222222
222222222222222222222222222222222222222222222222222222222222222222222222
222222222222222222222222222222222222222222222222222222222222222222222222
222222222222222222222222222222222222222222222222222222222222222222222222
222222222222222222222222222222222222222222222222222222222222222222222222
222222222222222222222222222222222222222222222222222222222222222222222222
222222222222222222222222222222222222222222222222222222222222222222222222
222222222222222222
# atoms in fragment 1/2:   362  2896
 fragment masses (1/2) :     1685.21    13481.68
CMA distance (Bohr)    :   2.825
constraining FC (au)   :  0.0500

           -------------------------------------------------
          |                 G F N 2 - x T B                 |
           -------------------------------------------------

        Reference                      10.1021/acs.jctc.8b01176
      * Hamiltonian:
        H0-scaling (s, p, d)           1.850000    2.230000    2.230000
        zeta-weighting                 0.500000
      * Dispersion:
        s8                             2.700000
        a1                             0.520000
        a2                             5.000000
        s9                             5.000000
      * Repulsion:
        kExp                           1.500000    1.000000
        rExp                           1.000000
      * Coulomb:
        alpha                          2.000000
        third order                    shell-resolved
        anisotropic                    true
        a3                             3.000000
        a5                             4.000000
        cn-shift                       1.200000
        cn-exp                         4.000000
        max-rad                        5.000000


          ...................................................
          :                      SETUP                      :
          :.................................................:
          :  # basis functions                6498          :
          :  # atomic orbitals                6498          :
          :  # shells                         4338          :
          :  # electrons                      6498          :
          :  max. iterations                   250          :
          :  Hamiltonian                  GFN2-xTB          :
          :  restarted?                      false          :
          :  GBSA solvation                  false          :
          :  PC potential                    false          :
          :  electronic temp.          300.0000000     K    :
          :  accuracy                    1.0000000          :
          :  -> integral cutoff          0.2500000E+02      :
          :  -> integral neglect         0.1000000E-07      :
          :  -> SCF convergence          0.1000000E-05 Eh   :
          :  -> wf. convergence          0.1000000E-03 e    :
          :  Broyden damping             0.4000000          :
          ...................................................

 iter      E             dE          RMSdq      gap      omega  full diag
   1  -3473.4630774 -0.347346E+04  0.243E+00   11.43       0.0  T
   2  -3478.5324421 -0.506936E+01  0.134E+00   11.53       1.0  T
   3  -3478.7369830 -0.204541E+00  0.594E-01   11.49       1.0  T
   4  -3478.7574663 -0.204832E-01  0.754E-02   11.52       1.0  T
   5  -3478.7584584 -0.992126E-03  0.392E-02   11.53       1.0  T
   6  -3478.7586714 -0.213012E-03  0.623E-03   11.53       1.0  T
   7  -3478.7586874 -0.159864E-04  0.122E-03   11.53       1.4  T
   8  -3478.7586884 -0.105463E-05  0.385E-04   11.53       4.6  T
   9  -3478.7586885 -0.616556E-07  0.141E-04   11.53      12.5  T
  10  -3478.7586885 -0.382033E-08  0.410E-05   11.53      42.8  T

   *** convergence criteria satisfied after 10 iterations ***

         #    Occupation            Energy/Eh            Energy/eV
      -------------------------------------------------------------
         1        2.0000           -0.6251735             -17.0118
       ...           ...                  ...                  ...
      3243        2.0000           -0.4019122             -10.9366
      3244        2.0000           -0.4016821             -10.9303
      3245        2.0000           -0.4013955             -10.9225
      3246        2.0000           -0.4013198             -10.9205
      3247        2.0000           -0.4012327             -10.9181
      3248        2.0000           -0.4012184             -10.9177
      3249        2.0000           -0.4011790             -10.9166 (HOMO)
      3250                          0.0224248               0.6102 (LUMO)
      3251                          0.0233979               0.6367
      3252                          0.0249698               0.6795
      3253                          0.0252396               0.6868
      3254                          0.0252856               0.6881
       ...                                ...                  ...
      6498                          0.3871408              10.5346
      -------------------------------------------------------------
                  HL-Gap            0.4236038 Eh           11.5268 eV
             Fermi-level           -0.1893771 Eh           -5.1532 eV

 SCC (total)                   0 d,  0 h, 14 min,  2.773 sec
 SCC setup                      ...        0 min,  0.441 sec (  0.052%)
 Dispersion                     ...        0 min,  3.570 sec (  0.424%)
 classical contributions        ...        0 min,  0.125 sec (  0.015%)
 integral evaluation            ...        0 min,  5.883 sec (  0.698%)
 iterations                     ...       10 min, 23.646 sec ( 73.999%)
 molecular gradient             ...        3 min, 20.654 sec ( 23.809%)
 printout                       ...        0 min,  8.454 sec (  1.003%)

         :::::::::::::::::::::::::::::::::::::::::::::::::::::
         ::                     SUMMARY                     ::
         :::::::::::::::::::::::::::::::::::::::::::::::::::::
         :: total energy           -3427.502134170566 Eh    ::
         :: gradient norm              0.018821270321 Eh/a0 ::
         :: HOMO-LUMO gap             11.526846456870 eV    ::
         ::.................................................::
         :: SCC energy             -3478.758688496809 Eh    ::
         :: -> isotropic ES            0.419738358597 Eh    ::
         :: -> anisotropic ES          1.117745452601 Eh    ::
         :: -> anisotropic XC          1.945279005990 Eh    ::
         :: -> dispersion             -4.062118938032 Eh    ::
         :: repulsion energy          50.605193105973 Eh    ::
         :: add. restraining           0.000000000000 Eh    ::
         :: total charge              -0.000000000013 e     ::
         :::::::::::::::::::::::::::::::::::::::::::::::::::::

      ----------------------------------------------------------- 
     |              Fast Inertial Relaxation Engine              |
      ----------------------------------------------------------- 

          ...................................................
          :                      SETUP                      :
          :.................................................:
          :   energy convergence        0.5000000E-05 Eh    :
          :   grad. convergence         0.1000000E-02 Eh/a0 :
          :   optimization log               true           :
          :   writing optlog all                1     steps :
          :   Hessian reset                    20     steps :
          :   time step scaling                 5     steps :
          :   maximium step len.        1.0000000     a0    :
          :   initial time step         0.2500000     fs    :
          :   maximum time step         1.2500000     fs    :
          :   power reset thr           0.0000000     au    :
          :   alpha parameter           0.1000000           :
          :   BFGS update                   false           :
          :   preconditioning               false           :
          ...................................................

........................................................................
.............................. CYCLE    1 ..............................
........................................................................

 iter      E             dE          RMSdq      gap      omega  full diag
   1  -3478.7623455 -0.347876E+04  0.268E-04   11.53       0.0  T
   2  -3478.7623456 -0.298010E-07  0.153E-04   11.53      11.4  T
   3  -3478.7623456 -0.662567E-09  0.501E-05   11.53      35.0  T
     SCC iter.                  ...        3 min,  0.088 sec
     gradient                   ...        3 min, 20.356 sec
 * total energy  : -3427.5021740 Eh     change    :  -0.3985550E-04 Eh
   gradient norm :     0.0173048 Eh/a0  converged?    E=F G=F D=F
   time step     :     0.2500000 fs     power     :   0.2025584E-08
   step length   :     0.0022058 a0     speed     :   0.2134242E-03

........................................................................
.............................. CYCLE    2 ..............................
........................................................................

 iter      E             dE          RMSdq      gap      omega  full diag
   1  -3478.7676686 -0.347877E+04  0.388E-04   11.53       0.0  T
   2  -3478.7676687 -0.626419E-07  0.222E-04   11.53       7.9  T
   3  -3478.7676687 -0.131422E-08  0.725E-05   11.53      24.2  T
     SCC iter.                  ...        3 min,  5.725 sec
     gradient                   ...        3 min, 20.792 sec
 * total energy  : -3427.5022262 Eh     change    :  -0.5220808E-04 Eh
   gradient norm :     0.0151214 Eh/a0  converged?    E=F G=F D=F
   time step     :     0.2500000 fs     power     :   0.2580769E-08
   step length   :     0.0032197 a0     speed     :   0.3115214E-03

........................................................................
.............................. CYCLE    3 ..............................
........................................................................

 iter      E             dE          RMSdq      gap      omega  full diag
   1  -3478.7744245 -0.347877E+04  0.494E-04   11.53       0.0  T
   2  -3478.7744246 -0.100765E-06  0.282E-04   11.53       6.2  T
   3  -3478.7744246 -0.222417E-08  0.919E-05   11.53      19.1  T
     SCC iter.                  ...        3 min,  0.420 sec
     gradient                   ...        3 min, 20.389 sec
 * total energy  : -3427.5022826 Eh     change    :  -0.5634332E-04 Eh
   gradient norm :     0.0123919 Eh/a0  converged?    E=F G=F D=F
   time step     :     0.2500000 fs     power     :   0.2685685E-08
   step length   :     0.0041047 a0     speed     :   0.3971478E-03

........................................................................
.............................. CYCLE    4 ..............................
........................................................................

 iter      E             dE          RMSdq      gap      omega  full diag
   1  -3478.7823121 -0.347878E+04  0.580E-04   11.53       0.0  T
   2  -3478.7823123 -0.136792E-06  0.331E-04   11.53       5.3  T
   3  -3478.7823123 -0.299042E-08  0.107E-04   11.53      16.4  T
     SCC iter.                  ...        2 min, 59.607 sec
     gradient                   ...        3 min, 21.005 sec
 * total energy  : -3427.5023344 Eh     change    :  -0.5186748E-04 Eh
   gradient norm :     0.0093075 Eh/a0  converged?    E=F G=F D=F
   time step     :     0.2500000 fs     power     :   0.2336652E-08
   step length   :     0.0048263 a0     speed     :   0.4669674E-03

........................................................................
.............................. CYCLE    5 ..............................
........................................................................

 iter      E             dE          RMSdq      gap      omega  full diag
   1  -3478.7909614 -0.347879E+04  0.640E-04   11.53       0.0  T
   2  -3478.7909615 -0.163554E-06  0.366E-04   11.53       4.8  T
   3  -3478.7909615 -0.374621E-08  0.116E-04   11.53      15.1  T
     SCC iter.                  ...        3 min,  0.255 sec
     gradient                   ...        3 min, 22.543 sec
 * total energy  : -3427.5023743 Eh     change    :  -0.3981377E-04 Eh
   gradient norm :     0.0062215 Eh/a0  converged?    E=F G=F D=F
   time step     :     0.2500000 fs     power     :   0.1613304E-08
   step length   :     0.0053550 a0     speed     :   0.5181292E-03

........................................................................
.............................. CYCLE    6 ..............................
........................................................................

 iter      E             dE          RMSdq      gap      omega  full diag
   1  -3478.8008299 -0.347880E+04  0.743E-04   11.53       0.0  T
   2  -3478.8008301 -0.210548E-06  0.426E-04   11.53       4.1  T
   3  -3478.8008301 -0.484170E-08  0.131E-04   11.53      13.4  T
     SCC iter.                  ...        2 min, 57.360 sec
     gradient                   ...        3 min, 21.461 sec
 * total energy  : -3427.5023985 Eh     change    :  -0.2428924E-04 Eh
   gradient norm :     0.0039929 Eh/a0  converged?    E=F G=F D=F
   time step     :     0.2750000 fs     power     :   0.5757953E-09
   step length   :     0.0062556 a0     speed     :   0.5502376E-03

........................................................................
.............................. CYCLE    7 ..............................
........................................................................

 iter      E             dE          RMSdq      gap      omega  full diag
   1  -3478.8108630 -0.347881E+04  0.791E-04   11.53       0.0  T
   2  -3478.8108633 -0.211848E-06  0.455E-04   11.53       3.9  T
   3  -3478.8108633 -0.510408E-08  0.128E-04   11.53      13.7  T
     SCC iter.                  ...        2 min, 59.714 sec
     gradient                   ...        3 min, 21.531 sec
 * total energy  : -3427.5024016 Eh     change    :  -0.3071089E-05 Eh
   gradient norm :     0.0050978 Eh/a0  converged?    E=T G=F D=F
   time step     :     0.3025000 fs     power     :  -0.4325186E-09
   step length   :     0.0067492 a0     speed     :   0.5396884E-03

........................................................................
.............................. CYCLE    8 ..............................
........................................................................
 * reset velocities

 iter      E             dE          RMSdq      gap      omega  full diag
   1  -3478.8107397 -0.347881E+04  0.136E-05   11.53       0.0  T
   2  -3478.8107397 -0.563887E-10  0.724E-06   11.53     242.1  T
   3  -3478.8107397 -0.500222E-10  0.332E-06   11.53     528.1  T
     SCC iter.                  ...        3 min,  0.666 sec
     gradient                   ...        3 min, 22.895 sec
 * total energy  : -3427.5024022 Eh     change    :  -0.5552897E-06 Eh
   gradient norm :     0.0050350 Eh/a0  converged?    E=T G=F D=T
   time step     :     0.1512500 fs     power     :   0.4829731E-10
   step length   :     0.0001093 a0     speed     :   0.1748640E-04

........................................................................
.............................. CYCLE    9 ..............................
........................................................................

 iter      E             dE          RMSdq      gap      omega  full diag
   1  -3478.8104948 -0.347881E+04  0.269E-05   11.53       0.0  T
   2  -3478.8104948 -0.219188E-09  0.157E-05   11.53     111.4  T
   3  -3478.8104948 -0.454747E-12  0.400E-06   11.53     437.7  T
     SCC iter.                  ...        2 min, 57.430 sec
     gradient                   ...        3 min, 22.942 sec
 * total energy  : -3427.5024033 Eh     change    :  -0.1081497E-05 Eh
   gradient norm :     0.0049187 Eh/a0  converged?    E=T G=F D=T
   time step     :     0.1512500 fs     power     :   0.9377119E-10
   step length   :     0.0002173 a0     speed     :   0.3475707E-04

........................................................................
.............................. CYCLE   10 ..............................
........................................................................

 iter      E             dE          RMSdq      gap      omega  full diag
   1  -3478.8101339 -0.347881E+04  0.395E-05   11.53       0.0  T
   2  -3478.8101339 -0.447926E-09  0.231E-05   11.53      75.9  T
   3  -3478.8101339 -0.127329E-10  0.590E-06   11.53     296.8  T
     SCC iter.                  ...        2 min, 56.652 sec
     gradient                   ...        3 min, 21.271 sec
 * total energy  : -3427.5024048 Eh     change    :  -0.1561420E-05 Eh
   gradient norm :     0.0047494 Eh/a0  converged?    E=T G=F D=T
   time step     :     0.1512500 fs     power     :   0.1344399E-09
   step length   :     0.0003228 a0     speed     :   0.5162744E-04

........................................................................
.............................. CYCLE   11 ..............................
........................................................................

 iter      E             dE          RMSdq      gap      omega  full diag
   1  -3478.8096651 -0.347881E+04  0.518E-05   11.53       0.0  T
   2  -3478.8096651 -0.702585E-09  0.303E-05   11.53      57.9  T
   3  -3478.8096651 -0.281943E-10  0.770E-06   11.53     227.4  T
     SCC iter.                  ...        2 min, 56.655 sec
     gradient                   ...        3 min, 19.498 sec
 * total energy  : -3427.5024068 Eh     change    :  -0.1969254E-05 Eh
   gradient norm :     0.0045319 Eh/a0  converged?    E=T G=F D=T
   time step     :     0.1512500 fs     power     :   0.1685939E-09
   step length   :     0.0004246 a0     speed     :   0.6791105E-04

........................................................................
.............................. CYCLE   12 ..............................
........................................................................

 iter      E             dE          RMSdq      gap      omega  full diag
   1  -3478.8090991 -0.347881E+04  0.634E-05   11.53       0.0  T
   2  -3478.8090991 -0.104455E-08  0.371E-05   11.53      47.2  T
   3  -3478.8090991 -0.732143E-10  0.933E-06   11.53     187.8  T
     SCC iter.                  ...        2 min, 56.893 sec
     gradient                   ...        3 min, 20.068 sec
 * total energy  : -3427.5024091 Eh     change    :  -0.2292722E-05 Eh
   gradient norm :     0.0042736 Eh/a0  converged?    E=T G=F D=T
   time step     :     0.1512500 fs     power     :   0.1949623E-09
   step length   :     0.0005217 a0     speed     :   0.8343311E-04

........................................................................
.............................. CYCLE   13 ..............................
........................................................................

 iter      E             dE          RMSdq      gap      omega  full diag
   1  -3478.8084500 -0.347881E+04  0.742E-05   11.53       0.0  T
   2  -3478.8084500 -0.144655E-08  0.434E-05   11.53      40.4  T
   3  -3478.8084500  0.363798E-11  0.108E-05   11.53     162.8  T
     SCC iter.                  ...        2 min, 59.171 sec
     gradient                   ...        3 min, 20.787 sec
 * total energy  : -3427.5024116 Eh     change    :  -0.2519929E-05 Eh
   gradient norm :     0.0039843 Eh/a0  converged?    E=T G=F D=T
   time step     :     0.1512500 fs     power     :   0.2128158E-09
   step length   :     0.0006130 a0     speed     :   0.9803484E-04

........................................................................
.............................. CYCLE   14 ..............................
........................................................................

 iter      E             dE          RMSdq      gap      omega  full diag
   1  -3478.8076549 -0.347881E+04  0.934E-05   11.53       0.0  T
   2  -3478.8076549 -0.217869E-08  0.547E-05   11.53      32.1  T
   3  -3478.8076549 -0.441105E-10  0.133E-05   11.53     131.5  T
     SCC iter.                  ...        2 min, 56.817 sec
     gradient                   ...        3 min, 20.230 sec
 * total energy  : -3427.5024145 Eh     change    :  -0.2941847E-05 Eh
   gradient norm :     0.0036426 Eh/a0  converged?    E=T G=F D=T
   time step     :     0.1663750 fs     power     :   0.2224164E-09
   step length   :     0.0007768 a0     speed     :   0.1129364E-03

........................................................................
.............................. CYCLE   15 ..............................
........................................................................

 iter      E             dE          RMSdq      gap      omega  full diag
   1  -3478.8067133 -0.347881E+04  0.115E-04   11.53       0.0  T
   2  -3478.8067133 -0.317777E-08  0.675E-05   11.53      26.0  T
   3  -3478.8067133 -0.105047E-09  0.160E-05   11.53     109.7  T
     SCC iter.                  ...        2 min, 58.003 sec
     gradient                   ...        3 min, 21.072 sec
 * total energy  : -3427.5024178 Eh     change    :  -0.3269029E-05 Eh
   gradient norm :     0.0032636 Eh/a0  converged?    E=T G=F D=T
   time step     :     0.1830125 fs     power     :   0.2215643E-09
   step length   :     0.0009666 a0     speed     :   0.1277530E-03

........................................................................
.............................. CYCLE   16 ..............................
........................................................................

 iter      E             dE          RMSdq      gap      omega  full diag
   1  -3478.8056447 -0.347881E+04  0.139E-04   11.53       0.0  T
   2  -3478.8056447 -0.435648E-08  0.815E-05   11.53      21.5  T
   3  -3478.8056447 -0.582077E-10  0.185E-05   11.53      94.7  T
     SCC iter.                  ...        2 min, 57.715 sec
     gradient                   ...        3 min, 20.486 sec
 * total energy  : -3427.5024213 Eh     change    :  -0.3475554E-05 Eh
   gradient norm :     0.0028839 Eh/a0  converged?    E=T G=F D=F
   time step     :     0.2013138 fs     power     :   0.2092337E-09
   step length   :     0.0011815 a0     speed     :   0.1419584E-03

........................................................................
.............................. CYCLE   17 ..............................
........................................................................

 iter      E             dE          RMSdq      gap      omega  full diag
   1  -3478.8045033 -0.347880E+04  0.163E-04   11.53       0.0  T
   2  -3478.8045033 -0.534419E-08  0.960E-05   11.53      18.2  T
   3  -3478.8045033 -0.170076E-09  0.204E-05   11.53      85.8  T
     SCC iter.                  ...        2 min, 58.289 sec
     gradient                   ...        3 min, 20.745 sec
 * total energy  : -3427.5024248 Eh     change    :  -0.3530181E-05 Eh
   gradient norm :     0.0025709 Eh/a0  converged?    E=T G=F D=F
   time step     :     0.2214451 fs     power     :   0.1869196E-09
   step length   :     0.0014176 a0     speed     :   0.1548511E-03

........................................................................
.............................. CYCLE   18 ..............................
........................................................................

 iter      E             dE          RMSdq      gap      omega  full diag
   1  -3478.8033966 -0.347880E+04  0.186E-04   11.53       0.0  T
   2  -3478.8033966 -0.596447E-08  0.110E-04   11.53      15.9  T
   3  -3478.8033966 -0.178261E-09  0.210E-05   11.53      83.3  T
     SCC iter.                  ...        3 min,  1.184 sec
     gradient                   ...        3 min, 20.112 sec
 * total energy  : -3427.5024282 Eh     change    :  -0.3395636E-05 Eh
   gradient norm :     0.0024098 Eh/a0  converged?    E=T G=F D=F
   time step     :     0.2435896 fs     power     :   0.1600560E-09
   step length   :     0.0016671 a0     speed     :   0.1655475E-03

........................................................................
.............................. CYCLE   19 ..............................
........................................................................

 iter      E             dE          RMSdq      gap      omega  full diag
   1  -3478.8024930 -0.347880E+04  0.206E-04   11.53       0.0  T
   2  -3478.8024930 -0.566388E-08  0.122E-04   11.53      14.4  T
   3  -3478.8024930 -0.147338E-09  0.198E-05   11.53      88.7  T
     SCC iter.                  ...        2 min, 57.856 sec
     gradient                   ...        3 min, 20.157 sec
 * total energy  : -3427.5024315 Eh     change    :  -0.3261032E-05 Eh
   gradient norm :     0.0024323 Eh/a0  converged?    E=T G=F D=F
   time step     :     0.2679486 fs     power     :   0.1378025E-09
   step length   :     0.0019194 a0     speed     :   0.1732718E-03

........................................................................
.............................. CYCLE   20 ..............................
........................................................................

 iter      E             dE          RMSdq      gap      omega  full diag
   1  -3478.8019991 -0.347880E+04  0.222E-04   11.53       0.0  T
   2  -3478.8019991 -0.439377E-08  0.132E-04   11.53      13.3  T
   3  -3478.8019991 -0.532054E-10  0.170E-05   11.53     103.3  T
     SCC iter.                  ...        2 min, 59.388 sec
     gradient                   ...        3 min, 20.911 sec
 * total energy  : -3427.5024348 Eh     change    :  -0.3312984E-05 Eh
   gradient norm :     0.0025529 Eh/a0  converged?    E=T G=F D=F
   time step     :     0.2947435 fs     power     :   0.1288317E-09
   step length   :     0.0021726 a0     speed     :   0.1783012E-03
 * RMSD in coord.:     0.0005606 a0     energy gain  -0.3006149E-03 Eh

........................................................................
.............................. CYCLE   21 ..............................
........................................................................

 iter      E             dE          RMSdq      gap      omega  full diag
   1  -3478.8020548 -0.347880E+04  0.181E-04   11.53       0.0  T
   2  -3478.8020548 -0.163573E-08  0.107E-04   11.53      16.4  T
   3  -3478.8020548 -0.527507E-10  0.111E-05   11.53     158.0  T
     SCC iter.                  ...        2 min, 57.771 sec
     gradient                   ...        3 min, 20.708 sec
 * total energy  : -3427.5024376 Eh     change    :  -0.2812384E-05 Eh
   gradient norm :     0.0026065 Eh/a0  converged?    E=T G=F D=F
   time step     :     0.2500000 fs     power     :   0.1372405E-09
   step length   :     0.0018530 a0     speed     :   0.1792867E-03

........................................................................
.............................. CYCLE   22 ..............................
........................................................................

 iter      E             dE          RMSdq      gap      omega  full diag
   1  -3478.8025762 -0.347880E+04  0.176E-04   11.53       0.0  T
   2  -3478.8025762 -0.132604E-08  0.103E-04   11.53      16.9  T
   3  -3478.8025762 -0.518412E-10  0.106E-05   11.53     165.0  T
     SCC iter.                  ...        3 min,  2.249 sec
     gradient                   ...        3 min, 21.589 sec
 * total energy  : -3427.5024406 Eh     change    :  -0.3025478E-05 Eh
   gradient norm :     0.0025430 Eh/a0  converged?    E=T G=F D=F
   time step     :     0.2500000 fs     power     :   0.1508235E-09
   step length   :     0.0018706 a0     speed     :   0.1809884E-03

........................................................................
.............................. CYCLE   23 ..............................
........................................................................

 iter      E             dE          RMSdq      gap      omega  full diag
   1  -3478.8035207 -0.347880E+04  0.176E-04   11.53       0.0  T
   2  -3478.8035207 -0.167529E-08  0.102E-04   11.53      17.1  T
   3  -3478.8035207 -0.604814E-10  0.116E-05   11.53     151.4  T
     SCC iter.                  ...        2 min, 55.599 sec
     gradient                   ...        3 min, 24.007 sec
 * total energy  : -3427.5024439 Eh     change    :  -0.3229401E-05 Eh
   gradient norm :     0.0023487 Eh/a0  converged?    E=T G=F D=F
   time step     :     0.2500000 fs     power     :   0.1609134E-09
   step length   :     0.0019035 a0     speed     :   0.1841692E-03

........................................................................
.............................. CYCLE   24 ..............................
........................................................................

 iter      E             dE          RMSdq      gap      omega  full diag
   1  -3478.8048206 -0.347880E+04  0.179E-04   11.53       0.0  T
   2  -3478.8048206 -0.254067E-08  0.103E-04   11.53      16.9  T
   3  -3478.8048206  0.159162E-10  0.134E-05   11.53     130.7  T
     SCC iter.                  ...        3 min,  2.704 sec
     gradient                   ...        3 min, 21.462 sec
 * total energy  : -3427.5024471 Eh     change    :  -0.3266221E-05 Eh
   gradient norm :     0.0020448 Eh/a0  converged?    E=T G=F D=F
   time step     :     0.2500000 fs     power     :   0.1609269E-09
   step length   :     0.0019505 a0     speed     :   0.1887181E-03

........................................................................
.............................. CYCLE   25 ..............................
........................................................................

 iter      E             dE          RMSdq      gap      omega  full diag
   1  -3478.8063834 -0.347881E+04  0.183E-04   11.53       0.0  T
   2  -3478.8063834 -0.350838E-08  0.105E-04   11.53      16.7  T
   3  -3478.8063834 -0.582077E-10  0.155E-05   11.53     112.7  T
     SCC iter.                  ...        2 min, 57.746 sec
     gradient                   ...        3 min, 20.165 sec
 * total energy  : -3427.5024502 Eh     change    :  -0.3088347E-05 Eh
   gradient norm :     0.0016882 Eh/a0  converged?    E=T G=F D=F
   time step     :     0.2500000 fs     power     :   0.1481063E-09
   step length   :     0.0020052 a0     speed     :   0.1940183E-03

........................................................................
.............................. CYCLE   26 ..............................
........................................................................

 iter      E             dE          RMSdq      gap      omega  full diag
   1  -3478.8082648 -0.347881E+04  0.204E-04   11.53       0.0  T
   2  -3478.8082648 -0.536784E-08  0.117E-04   11.53      15.0  T
   3  -3478.8082648 -0.845830E-10  0.191E-05   11.53      92.0  T
     SCC iter.                  ...        3 min,  2.407 sec
     gradient                   ...        3 min, 20.558 sec
 * total energy  : -3427.5024531 Eh     change    :  -0.2926039E-05 Eh
   gradient norm :     0.0013638 Eh/a0  converged?    E=T G=F D=F
   time step     :     0.2750000 fs     power     :   0.1214951E-09
   step length   :     0.0022738 a0     speed     :   0.2000065E-03

........................................................................
.............................. CYCLE   27 ..............................
........................................................................

 iter      E             dE          RMSdq      gap      omega  full diag
   1  -3478.8102694 -0.347881E+04  0.219E-04   11.52       0.0  T
   2  -3478.8102694 -0.620639E-08  0.125E-04   11.52      14.0  T
   3  -3478.8102694 -0.179170E-09  0.205E-05   11.52      85.6  T
     SCC iter.                  ...        2 min, 56.188 sec
     gradient                   ...        3 min, 20.085 sec
 * total energy  : -3427.5024556 Eh     change    :  -0.2482402E-05 Eh
   gradient norm :     0.0012932 Eh/a0  converged?    E=T G=F D=F
   time step     :     0.3025000 fs     power     :   0.8860457E-10
   step length   :     0.0025585 a0     speed     :   0.2045884E-03

........................................................................
.............................. CYCLE   28 ..............................
........................................................................

 iter      E             dE          RMSdq      gap      omega  full diag
   1  -3478.8120338 -0.347881E+04  0.220E-04   11.52       0.0  T
   2  -3478.8120338 -0.504042E-08  0.126E-04   11.52      13.9  T
   3  -3478.8120338 -0.155069E-09  0.177E-05   11.52      98.8  T
     SCC iter.                  ...        2 min, 59.163 sec
     gradient                   ...        3 min, 19.602 sec
 * total energy  : -3427.5024577 Eh     change    :  -0.2091348E-05 Eh
   gradient norm :     0.0015036 Eh/a0  converged?    E=T G=F D=F
   time step     :     0.3327500 fs     power     :   0.6604568E-10
   step length   :     0.0028077 a0     speed     :   0.2041054E-03

........................................................................
.............................. CYCLE   29 ..............................
........................................................................

 iter      E             dE          RMSdq      gap      omega  full diag
   1  -3478.8132133 -0.347881E+04  0.209E-04   11.52       0.0  T
   2  -3478.8132133 -0.246291E-08  0.121E-04   11.52      14.5  T
   3  -3478.8132133 -0.226464E-09  0.122E-05   11.52     144.0  T
     SCC iter.                  ...        3 min,  0.498 sec
     gradient                   ...        3 min, 21.188 sec
 * total energy  : -3427.5024598 Eh     change    :  -0.2062953E-05 Eh
   gradient norm :     0.0017173 Eh/a0  converged?    E=T G=F D=F
   time step     :     0.3660250 fs     power     :   0.6360164E-10
   step length   :     0.0030142 a0     speed     :   0.1991931E-03

........................................................................
.............................. CYCLE   30 ..............................
........................................................................

 iter      E             dE          RMSdq      gap      omega  full diag
   1  -3478.8135824 -0.347881E+04  0.199E-04   11.52       0.0  T
   2  -3478.8135824 -0.111140E-08  0.116E-04   11.52      15.1  T
   3  -3478.8135824 -0.141426E-09  0.881E-06   11.52     198.8  T
     SCC iter.                  ...        3 min,  6.649 sec
     gradient                   ...        3 min, 19.935 sec
 * total energy  : -3427.5024623 Eh     change    :  -0.2500022E-05 Eh
   gradient norm :     0.0017302 Eh/a0  converged?    E=T G=F D=F
   time step     :     0.4026275 fs     power     :   0.7465575E-10
   step length   :     0.0032397 a0     speed     :   0.1946345E-03

........................................................................
.............................. CYCLE   31 ..............................
........................................................................

 iter      E             dE          RMSdq      gap      omega  full diag
   1  -3478.8130412 -0.347881E+04  0.199E-04   11.52       0.0  T
   2  -3478.8130412 -0.244108E-08  0.117E-04   11.52      15.0  T
   3  -3478.8130412 -0.116415E-09  0.111E-05   11.52     157.6  T
     SCC iter.                  ...        2 min, 59.624 sec
     gradient                   ...        3 min, 20.567 sec
 * total energy  : -3427.5024653 Eh     change    :  -0.3073427E-05 Eh
   gradient norm :     0.0014998 Eh/a0  converged?    E=T G=F D=F
   time step     :     0.4428903 fs     power     :   0.8288866E-10
   step length   :     0.0035417 a0     speed     :   0.1934338E-03

........................................................................
.............................. CYCLE   32 ..............................
........................................................................

 iter      E             dE          RMSdq      gap      omega  full diag
   1  -3478.8116983 -0.347881E+04  0.209E-04   11.52       0.0  T
   2  -3478.8116984 -0.603040E-08  0.124E-04   11.52      14.1  T
   3  -3478.8116984 -0.323780E-09  0.184E-05   11.52      95.2  T
     SCC iter.                  ...        2 min, 57.706 sec
     gradient                   ...        3 min, 19.815 sec
 * total energy  : -3427.5024686 Eh     change    :  -0.3305832E-05 Eh
   gradient norm :     0.0012158 Eh/a0  converged?    E=T G=F D=F
   time step     :     0.4871793 fs     power     :   0.7507505E-10
   step length   :     0.0039396 a0     speed     :   0.1956044E-03

........................................................................
.............................. CYCLE   33 ..............................
........................................................................

 iter      E             dE          RMSdq      gap      omega  full diag
   1  -3478.8100849 -0.347881E+04  0.209E-04   11.52       0.0  T
   2  -3478.8100849 -0.774344E-08  0.124E-04   11.52      14.1  T
   3  -3478.8100849 -0.216460E-09  0.218E-05   11.52      80.2  T
     SCC iter.                  ...        3 min,  1.467 sec
     gradient                   ...        3 min, 20.993 sec
 * total energy  : -3427.5024717 Eh     change    :  -0.3015966E-05 Eh
   gradient norm :     0.0012902 Eh/a0  converged?    E=T G=F D=F
   time step     :     0.5358972 fs     power     :   0.5873419E-10
   step length   :     0.0043914 a0     speed     :   0.1982143E-03

........................................................................
.............................. CYCLE   34 ..............................
........................................................................

 iter      E             dE          RMSdq      gap      omega  full diag
   1  -3478.8091364 -0.347881E+04  0.188E-04   11.52       0.0  T
   2  -3478.8091364 -0.358796E-08  0.112E-04   11.52      15.6  T
   3  -3478.8091364 -0.900400E-10  0.125E-05   11.52     140.4  T
     SCC iter.                  ...        2 min, 58.077 sec
     gradient                   ...        3 min, 20.602 sec
 * total energy  : -3427.5024747 Eh     change    :  -0.3047758E-05 Eh
   gradient norm :     0.0015324 Eh/a0  converged?    E=T G=F D=F
   time step     :     0.5894869 fs     power     :   0.5925631E-10
   step length   :     0.0048121 a0     speed     :   0.1974582E-03

........................................................................
.............................. CYCLE   35 ..............................
........................................................................

 iter      E             dE          RMSdq      gap      omega  full diag
   1  -3478.8095379 -0.347881E+04  0.195E-04   11.52       0.0  T
   2  -3478.8095379 -0.839918E-09  0.114E-04   11.52      15.3  T
   3  -3478.8095379 -0.175078E-09  0.698E-06   11.52     250.9  T
     SCC iter.                  ...        2 min, 57.777 sec
     gradient                   ...        3 min, 21.996 sec
 * total energy  : -3427.5024787 Eh     change    :  -0.4000435E-05 Eh
   gradient norm :     0.0014604 Eh/a0  converged?    E=T G=F D=F
   time step     :     0.6484356 fs     power     :   0.7549617E-10
   step length   :     0.0052964 a0     speed     :   0.1975733E-03

........................................................................
.............................. CYCLE   36 ..............................
........................................................................

 iter      E             dE          RMSdq      gap      omega  full diag
   1  -3478.8114354 -0.347881E+04  0.250E-04   11.52       0.0  T
   2  -3478.8114354 -0.714908E-08  0.144E-04   11.52      12.1  T
   3  -3478.8114354 -0.197815E-09  0.217E-05   11.52      80.9  T
     SCC iter.                  ...        2 min, 58.852 sec
     gradient                   ...        3 min, 20.108 sec
 * total energy  : -3427.5024836 Eh     change    :  -0.4862021E-05 Eh
   gradient norm :     0.0011161 Eh/a0  converged?    E=T G=F D=F
   time step     :     0.7132792 fs     power     :   0.7832050E-10
   step length   :     0.0059802 a0     speed     :   0.2028014E-03

........................................................................
.............................. CYCLE   37 ..............................
........................................................................

 iter      E             dE          RMSdq      gap      omega  full diag
   1  -3478.8139382 -0.347881E+04  0.282E-04   11.52       0.0  T
   2  -3478.8139382 -0.130726E-07  0.164E-04   11.52      10.7  T
   3  -3478.8139382 -0.384262E-09  0.309E-05   11.52      56.8  T
     SCC iter.                  ...        3 min,  2.672 sec
     gradient                   ...        3 min, 19.547 sec
 * total energy  : -3427.5024882 Eh     change    :  -0.4667924E-05 Eh
   gradient norm :     0.0012070 Eh/a0  converged?    E=T G=F D=F
   time step     :     0.7846071 fs     power     :   0.6359583E-10
   step length   :     0.0068344 a0     speed     :   0.2106989E-03

........................................................................
.............................. CYCLE   38 ..............................
........................................................................

 iter      E             dE          RMSdq      gap      omega  full diag
   1  -3478.8151048 -0.347882E+04  0.250E-04   11.53       0.0  T
   2  -3478.8151048 -0.601813E-08  0.147E-04   11.53      11.9  T
   3  -3478.8151048 -0.336968E-09  0.215E-05   11.53      81.6  T
     SCC iter.                  ...        2 min, 58.782 sec
     gradient                   ...        3 min, 20.496 sec
 * total energy  : -3427.5024933 Eh     change    :  -0.5070898E-05 Eh
   gradient norm :     0.0013371 Eh/a0  converged?    E=F G=F D=F
   time step     :     0.8630678 fs     power     :   0.6929296E-10
   step length   :     0.0076582 a0     speed     :   0.2146339E-03

........................................................................
.............................. CYCLE   39 ..............................
........................................................................

 iter      E             dE          RMSdq      gap      omega  full diag
   1  -3478.8140902 -0.347881E+04  0.277E-04   11.53       0.0  T
   2  -3478.8140902 -0.833097E-08  0.161E-04   11.53      10.9  T
   3  -3478.8140902 -0.287400E-09  0.261E-05   11.53      67.1  T
     SCC iter.                  ...        3 min,  2.200 sec
     gradient                   ...        3 min, 20.328 sec
 * total energy  : -3427.5024995 Eh     change    :  -0.6196096E-05 Eh
   gradient norm :     0.0010382 Eh/a0  converged?    E=F G=F D=F
   time step     :     0.9493746 fs     power     :   0.7523586E-10
   step length   :     0.0086715 a0     speed     :   0.2209381E-03

........................................................................
.............................. CYCLE   40 ..............................
........................................................................

 iter      E             dE          RMSdq      gap      omega  full diag
   1  -3478.8124175 -0.347881E+04  0.314E-04   11.53       0.0  T
   2  -3478.8124175 -0.107580E-07  0.182E-04   11.53       9.6  T
   3  -3478.8124175 -0.330147E-09  0.264E-05   11.53      66.4  T
     SCC iter.                  ...        2 min, 56.490 sec
     gradient                   ...        3 min, 21.149 sec
 * total energy  : -3427.5025057 Eh     change    :  -0.6226371E-05 Eh
   gradient norm :     0.0012348 Eh/a0  converged?    E=F G=F D=F
   time step     :     1.0443120 fs     power     :   0.6462883E-10
   step length   :     0.0099561 a0     speed     :   0.2306081E-03

........................................................................
.............................. CYCLE   41 ..............................
........................................................................

 iter      E             dE          RMSdq      gap      omega  full diag
   1  -3478.8132097 -0.347881E+04  0.321E-04   11.53       0.0  T
   2  -3478.8132097 -0.409364E-08  0.187E-04   11.53       9.4  T
   3  -3478.8132097 -0.371983E-09  0.125E-05   11.53     140.2  T
     SCC iter.                  ...        3 min,  4.747 sec
     gradient                   ...        3 min, 19.858 sec
 * total energy  : -3427.5025132 Eh     change    :  -0.7453635E-05 Eh
   gradient norm :     0.0011299 Eh/a0  converged?    E=F G=F D=F
   time step     :     1.1487432 fs     power     :   0.7836248E-10
   step length   :     0.0112584 a0     speed     :   0.2370652E-03

........................................................................
.............................. CYCLE   42 ..............................
........................................................................

 iter      E             dE          RMSdq      gap      omega  full diag
   1  -3478.8156739 -0.347882E+04  0.389E-04   11.53       0.0  T
   2  -3478.8156739 -0.185782E-07  0.227E-04   11.53       7.7  T
   3  -3478.8156739 -0.673026E-09  0.326E-05   11.53      53.8  T
     SCC iter.                  ...        2 min, 59.823 sec
     gradient                   ...        3 min, 20.512 sec
 * total energy  : -3427.5025215 Eh     change    :  -0.8266533E-05 Eh
   gradient norm :     0.0011575 Eh/a0  converged?    E=F G=F D=F
   time step     :     1.2500000 fs     power     :   0.7192423E-10
   step length   :     0.0128510 a0     speed     :   0.2486807E-03
 * RMSD in coord.:     0.0016561 a0     energy gain  -0.8667149E-04 Eh

........................................................................
.............................. CYCLE   43 ..............................
........................................................................

 iter      E             dE          RMSdq      gap      omega  full diag
   1  -3478.8157402 -0.347882E+04  0.604E-05   11.53       0.0  T
   2  -3478.8157402 -0.170076E-09  0.356E-05   11.53      49.3  T
   3  -3478.8157402  0.386535E-10  0.222E-06   11.53     790.1  T
     SCC iter.                  ...        2 min, 58.941 sec
     gradient                   ...        3 min, 21.807 sec
 * total energy  : -3427.5025230 Eh     change    :  -0.1574197E-05 Eh
   gradient norm :     0.0011806 Eh/a0  converged?    E=T G=F D=F
   time step     :     0.2500000 fs     power     :   0.8203183E-10
   step length   :     0.0024781 a0     speed     :   0.2397668E-03

........................................................................
.............................. CYCLE   44 ..............................
........................................................................

 iter      E             dE          RMSdq      gap      omega  full diag
   1  -3478.8154178 -0.347882E+04  0.587E-05   11.53       0.0  T
   2  -3478.8154178 -0.276032E-09  0.343E-05   11.53      51.1  T
   3  -3478.8154178 -0.572982E-10  0.424E-06   11.53     413.7  T
     SCC iter.                  ...        2 min, 56.146 sec
     gradient                   ...        3 min, 21.889 sec
 * total energy  : -3427.5025248 Eh     change    :  -0.1735432E-05 Eh
   gradient norm :     0.0011024 Eh/a0  converged?    E=T G=F D=F
   time step     :     0.2500000 fs     power     :   0.9053987E-10
   step length   :     0.0024128 a0     speed     :   0.2334487E-03

........................................................................
.............................. CYCLE   45 ..............................
........................................................................

 iter      E             dE          RMSdq      gap      omega  full diag
   1  -3478.8147923 -0.347881E+04  0.678E-05   11.53       0.0  T
   2  -3478.8147923 -0.803539E-09  0.394E-05   11.53      44.5  T
   3  -3478.8147923  0.909495E-11  0.751E-06   11.53     233.4  T
     SCC iter.                  ...        3 min,  6.570 sec
     gradient                   ...        3 min, 22.587 sec
 * total energy  : -3427.5025266 Eh     change    :  -0.1803000E-05 Eh
   gradient norm :     0.0009715 Eh/a0  converged?    E=T G=T D=F
   time step     :     0.2500000 fs     power     :   0.9330489E-10
   step length   :     0.0023793 a0     speed     :   0.2302068E-03

   *** GEOMETRY OPTIMIZATION CONVERGED AFTER 45 CYCLES ***

------------------------------------------------------------------------
 total energy gain   :        -0.0003924 Eh       -0.2462 kcal/mol
 total RMSD          :         0.0020068 a0        0.0011 Å
 total power (kW/mol):        -0.0228943 (step)   -0.0001 (real)
------------------------------------------------------------------------

 FIRE (total)                  0 d,  4 h, 59 min, 23.312 sec
 setup                          ...        0 min,  0.116 sec (  0.001%)
 velocities                     ...        0 min,  0.003 sec (  0.000%)
 propagation                    ...        0 min,  0.004 sec (  0.000%)
 singlepoint calculation        ...      299 min, 22.436 sec ( 99.995%)
 log and printout               ...        0 min,  0.688 sec (  0.004%)
 preconditioner                 ...        0 min,  0.000 sec (  0.000%)
 model hessian                  ...        0 min,  0.000 sec (  0.000%)
 hessian update                 ...        0 min,  0.000 sec (  0.000%)

================
 final structure:
================
3258
 xtb: 6.6.1 (8d0f1dd)
C          113.09390486295639      109.20429175749688      126.33397415418436
C          114.37246792029495      109.78475241742936      126.92548936976821
C          114.37763136931527      111.31442047858488      126.94242761375577
C          114.63945745342174      111.92896061112724      125.56921687825702
C          114.58117956867041      113.45343809962945      125.61124252137687
C          114.86749399136431      114.08133327589638      124.25036786925368
C          114.75240666544076      115.60241870129856      124.28772419590371
C          115.00460288390572      116.23767007862972      122.92323656695530
C          114.84588767714668      117.75473794302648      122.96489786867612
C          115.13223314132520      118.40720736401468      121.61498285440257
C          114.98336623248503      119.92485050431240      121.68320209370052
C          115.50368034214092      120.64918901550315      120.44276863381864
C          114.66427254965261      120.43857733066348      119.18489895244373
C          115.17214902121319      121.32442963968109      118.04923515689461
C          114.32998375870098      121.22406455446180      116.78030916489271
C          114.76166538670326      122.26747064902548      115.74827700865366
C          114.21974576091303      122.00542647292880      114.34380678355554
C          112.70130466707027      122.11184398363231      114.23475367586948
C          112.19505811470638      121.60314242953989      112.88817206351533
C          110.67088228497728      121.57603911695367      112.80706289997995
C          110.18083172019530      120.82113353203331      111.57318493174745
C          108.66731420764226      120.62772076428321      111.58463321355067
C          108.12189058415142      120.02498276263522      110.29104071195583
C          108.65326457612095      118.62319151875275      110.00377520772297
C          107.90110033145750      117.96777681662108      108.84925384183418
C          108.37824980465631      116.54839581886560      108.54190913697897
C          109.73505125942674      116.49281591793481      107.84304537882717
C          110.22133943541978      115.06327137346685      107.59368681776286
C          109.32889062027591      114.30460772386382      106.61651011980108
C          109.73970960540238      112.85015139723951      106.39103046641428
C          110.91397716357730      112.64564993215463      105.43606685779066
C          111.05319350127718      111.16362089546328      105.09410270720410
C          112.11739288614878      110.86337347838480      104.04324242791992
C          112.05301010727304      109.40203535973227      103.60455659130163
C          113.15597385562330      109.03558001097302      102.61966571725550
C          113.09187198647001      107.57421734097258      102.17807528046360
C          114.35142919083827      107.17073749256437      101.41536227443478
C          114.27828429516292      105.78654353875697      100.77372458401629
C          114.31108917070689      104.62319756392492      101.76244776516472
C          114.38342621815355      103.28174495578901      101.03194648410147
C          114.69362994073612      102.09894224130463      101.95016901006403
C          113.55970155420235      101.68346656497381      102.88725683364493
C          112.39843596737607      100.99170616447896      102.17403693659681
C          111.41999643723474      100.37451210352660      103.17087956971348
C          110.27692467133602       99.62421943456563      102.49061707361147
C          109.36582016772542       98.90935858312915      103.49070955713867
C          108.44344448270461       99.85794744766645      104.25267925509901
C          107.64816496422394       99.13572517568508      105.33799338270747
C          106.63130107403521      100.05867793139227      106.00200233547814
C          105.97023464066851       99.44684277577313      107.23403228822910
C          104.91408981837026      100.38632171243022      107.81848761340869
C          104.56230920714438      100.08946958919223      109.27546423840464
C          103.91145846590979       98.72471754711667      109.48224592868576
C          103.52943993994215       98.45723579576153      110.93940040095254
C          104.74464703516806       98.33920556031246      111.85657737184725
C          104.39249990716097       97.82774961467111      113.25039232695627
C          105.62492097262898       97.76114028658813      114.15004767631270
C          105.34353196291993       97.09484227185688      115.49586270378724
C          106.53998620817211       97.13601857669181      116.44928348833029
C          106.82965056332998       98.54643573468279      116.95350046103481
C          107.96664059211874       98.61156119491719      117.96933028333451
C          108.18574087696886      100.05347487389201      118.42018241158222
C          109.37955250967801      100.23876157980605      119.35107573869223
C          109.52247778134880      101.70401635018140      119.75389708132573
C          110.73897373224275      101.97666729875323      120.63187444801629
C          110.83610227812687      103.45487920659153      120.99846031833664
C          112.07522825756692      103.77602650317618      121.82856239569813
C          112.21547139652854      105.27314265695064      122.08866242132633
C          113.42349821925713      105.59417763544693      122.96562965665713
C          113.60761829635302      107.09216950134136      123.21272137360239
C          114.13813371481235      107.84008559620020      121.99237417920733
C          114.20946003102186      109.34823273522048      122.22103440765157
C          114.66856410331184      110.08003532980860      120.96262718840337
C          114.56757227619995      111.59876609688966      121.07879873600633
C          114.87724955243789      112.27259133955216      119.74457574027007
C          114.64558361233300      113.78065340464443      119.75654249503319
C          114.97698518626839      114.39248818364864      118.39726415993216
C          114.82221186595950      115.91113932639814      118.36642905408561
C          115.15980421574071      116.51073560972982      116.99828647228610
C          114.06272580618308      116.26179881750970      115.96462759817807
C          114.48016225129098      116.55730709409779      114.52412539572809
C          114.70576973856792      118.03508545387895      114.21814020951501
C          115.18436557610877      118.27003684733896      112.78273527380581
C          114.13236523216031      117.96531234190266      111.71688581952655
C          114.64936263915645      118.27230300584866      110.31248487779041
C          113.63742236620169      117.91898816399997      109.22324520324629
C          114.20445412844022      118.14435208698903      107.82178920606924
C          113.30373643639814      117.58110732219798      106.72452195330240
C          113.74490832043087      117.96109141057889      105.30951602585458
C          115.18200395259757      117.56568235929744      104.97336715907109
C          115.51186617152325      117.80540265799434      103.49973569183223
C          116.98808981405386      117.56680359334543      103.19264689423400
C          117.37334403950047      117.84633715271082      101.73890567972134
C          116.89810194191838      116.77631674927321      100.75864695120255
C          117.42691528654761      117.02928853864113       99.34782950499707
C          117.04886342126240      115.93289001895224       98.34952746482372
C          115.59551147458538      116.02411930814442       97.88998749437960
C          115.17527319601587      114.82512487574247       97.04100486521043
C          113.68875817173931      114.87908386155937       96.69623968317576
C          113.17268887841226      113.61404164320000       96.01171820422842
C          111.64788945620339      113.63427833714687       95.91979976668043
C          111.05976585135612      112.40809759982818       95.22241110008319
C          109.56311673469639      112.24505329606394       95.49582482889723
C          108.71161938193039      113.38903617844583       94.94863339242369
C          107.24303721964574      113.24612443480959       95.34314167929746
C          106.39838543572125      114.41888572749382       94.85151639191585
C          104.93356742692571      114.30061002566475       95.26929075150031
C          104.10672212292299      115.48271427164282       94.76462655904555
C          102.59498180327154      115.28215979757312       94.88500713861708
C          102.06517287402204      115.30126755937545       96.31804762559265
C          100.54548304394275      115.14280008717405       96.33802461233353
C           99.94280671278140      115.24601644224684       97.73768322473616
C           98.43152721996589      115.02537097616552       97.71082869003094
C           97.78332461193359      115.17549635721238       99.08536114019732
C           96.27652955179940      114.93246013438426       99.02965657882170
C           95.60084422377925      115.13245330135867      100.38417490210340
C           94.08726933831514      114.95127782247367      100.29823959351434
C           93.40815706328620      115.17731239225327      101.64726647029467
C           91.88131942572022      115.18045891691581      101.56761968567018
C           91.28934711040220      113.82999049674254      101.18162347495007
H           91.48468576201213      115.47312996226746      102.54311887512898
H           91.56141504205898      115.93358198336162      100.84354938981478
H           93.73225065903006      114.40601177737186      102.34807745001368
H           93.73153271180924      116.14237890110856      102.04463805866659
H           93.68386333231484      115.65920106349579       99.56987110235126
H           93.87202847517054      113.94394128232493       99.93803019419681
H           96.01010329284608      114.41984274578235      101.10482262525058
H           95.82045467408581      116.13820292146934      100.74944304013543
H           95.83182323787788      115.61933102891355       98.30535622288643
H           96.08586207896609      113.91558613423250       98.67693710931229
H           98.23808444136138      114.46786267570059       99.78302225100606
H           97.97064157024012      116.18315833360231       99.46300298743431
H           97.97757633289167      115.74324776032729       97.02334821558503
H           98.22294615944000      114.02519024940649       97.32228508335699
H          100.40179390296178      114.49926949854292       98.38906400183890
H          100.15794369708023      116.23306162118639       98.15386809821115
H          100.09921566792671      115.91294811779946       95.70386425084607
H          100.28660710736033      114.17276665113002       95.90705838295645
H          102.51878415745425      114.49161932987009       96.89257373300539
H          102.34143324822921      116.24463714314248       96.79532751857035
H          102.09724610359875      116.07841627004542       94.32530943303314
H          102.32108946408840      114.33454523782983       94.41438826884189
H          104.39832652434633      116.38608025304067       95.30566153222725
H          104.34338815820948      115.64238412689883       93.70920902051644
H          104.52234865612365      113.37301137474266       94.86321973156399
H          104.87424064752469      114.24384931573817       96.35752222682294
H          106.81108492899678      115.34851902441022       95.25024266732504
H          106.45841216162340      114.47415955665542       93.76150555757710
H          106.84423936646286      112.31347191383384       94.93675017768220
H          107.17101348657948      113.18812066453965       96.43114396545805
H          109.08443158543687      114.33888598125390       95.33440271664439
H          108.79826525333803      113.41651710037272       93.85988951106883
H          109.21828568924138      111.30519344220168       95.05652249674957
H          109.41073706558258      112.17553474199340       96.57660110958869
H          111.23228726727649      112.47605396252598       94.14632027624437
H          111.57602650527983      111.51355890657506       95.58018378307810
H          111.24179607333775      113.69176116329221       96.93355940720159
H          111.34149021163768      114.53551118784355       95.38689176716352
H          113.60573796329589      113.52855130071394       95.01275440693443
H          113.48744186895129      112.73993213719284       96.58590071912586
H          113.12340147586590      115.02556596392456       97.62090600929157
H          113.49623875261260      115.74305802227524       96.05544057071039
H          115.76853727581911      114.79234742440575       96.12449790047255
H          115.38105771448690      113.90670798149034       97.59723088668424
H          114.94266567395063      116.07703858723556       98.76243430613235
H          115.45529841833124      116.94497528945385       97.31895410241310
H          117.69921301849676      116.00517983706018       97.47415358373554
H          117.22471139387498      114.95677115414230       98.80854738408456
H          117.05294001564671      117.99017293059910       98.98533816172174
H          118.51632979039840      117.09860249933580       99.39978322163698
H          117.24604271280700      115.79742635221881      101.09821388263671
H          115.80912415483624      116.75390179161029      100.74323567424184
H          116.98132713061807      118.82019086480913      101.43869560793020
H          118.46344912402908      117.90174527552418      101.67641974979301
H          117.58844144697190      118.21251919722569      103.83945513840315
H          117.24224052794746      116.53270408707797      103.43248129688563
H          114.89803009774414      117.14575837996411      102.88688355090439
H          115.25682460973697      118.83489390481589      103.23667729706233
H          115.87178218683728      118.14270317535419      105.59173031030272
H          115.33130232835732      116.50992062714357      105.20966958945372
H          113.06689819605322      117.47987891537430      104.59978349723711
H          113.63617327960493      119.04023298767221      105.18091730510132
H          113.27733031008799      116.49200192084534      106.81114655904517
H          112.28591480021417      117.94742457943322      106.87407372345652
H          114.35093306965541      119.21464948836878      107.65976977372701
H          115.17915896642043      117.65700008629918      107.76132538816445
H          113.34939958706225      116.87018365955241      109.33193027003843
H          112.73363320787350      118.51902501176350      109.35588778319750
H          114.90259410841378      119.33311667962499      110.24293375509924
H          115.56925943882356      117.70638455771905      110.14334938212126
H          113.84852769094459      116.91239250133047      111.76656175573333
H          113.23455696962625      118.55833476219523      111.91001743576854
H          115.49007644304004      119.31429841946627      112.67668356254406
H          116.06817854064839      117.65335418590823      112.59900067607468
H          113.77780231102089      118.58600627659716      114.39074905962450
H          115.46380804411078      118.42853501663572      114.89840251156474
H          115.40046575027030      116.01012397252349      114.30688050296429
H          113.70012175041259      116.17712844571818      113.86300002708712
H          113.75789462148821      115.21398244313563      116.01335361418255
H          113.19078821948999      116.86658464212836      116.22177669093119
H          115.30942404602744      117.58661452020699      117.10943827644201
H          116.09998786767706      116.08210273988938      116.64424070141463
H          113.79809344293815      116.18269487567896      118.63621067686151
H          115.48628816397968      116.34265018224296      119.11877545659155
H          116.00608691614458      114.13911333525135      118.13764356239736
H          114.32788053629423      113.93833549405298      117.64571780034953
H          113.60221924868289      113.98788991065481      120.00764577545897
H          115.26293369866076      114.23901095772601      120.53143765676400
H          115.91756492704536      112.07553938536140      119.47880934318971
H          114.25027888318144      111.82720142151778      118.96821027594157
H          113.55541764798726      111.86678508753604      121.39472117203815
H          115.25560554030119      111.95988450604057      121.84587293015764
H          115.70105330091337      109.80232627019478      120.73942886095153
H          114.05075222676437      109.75243374820522      120.12273582950198
H          113.21750446121978      109.71099009691504      122.50585557870501
H          114.88857583932300      109.56800993797913      123.04784506174100
H          115.13409038796112      107.46436729069109      121.74474380624659
H          113.48857319083149      107.64962971002309      121.13608827606204
H          112.64999554214015      107.52378625826285      123.51412878215132
H          114.30497939268028      107.23478884743743      124.04171594565793
H          113.29491166061375      105.09406203776383      123.92902481927126
H          114.32595659113041      105.19227058222801      122.49949905955940
H          112.30561954279740      105.78663946295777      121.13030394467677
H          111.31040031793223      105.63942667086508      122.57946615167462
H          112.01793821522297      103.24632382554756      122.78259281194271
H          112.96506511496351      103.41895701156641      121.30529493705372
H          110.85591619603366      104.04490284950573      120.08054428662336
H          109.94342772806219      103.74467738952012      121.55670282211271
H          110.67498968296010      101.37745149973101      121.54343645783879
H          111.64464322756231      101.67308767093142      120.10175162145366
H          109.59824610099464      102.31377088759396      118.85051984418010
H          108.61983040872622      102.01640980680692      120.28336551305117
H          109.24993607612062       99.62158705992091      120.24355588774792
H          110.29064783358209       99.90453047662986      118.84958940860244
H          108.33376708049768      100.68114679649138      117.53679622059435
H          107.28315357690499      100.40872194028738      118.92262124416878
H          107.72808267871652       97.98545705702297      118.83226571794239
H          108.88264243598647       98.22002305441390      117.52136771380978
H          107.08904069540152       99.18722080076343      116.10823821318711
H          105.92497388034830       98.95242383242828      117.41147814440504
H          106.33072633709348       96.49219368820268      117.30696315732001
H          107.42399427534826       96.73759129836577      115.94549148358618
H          104.49259859778903       97.58380496999223      115.97644160372309
H          105.06612832722790       96.05245504001464      115.31917890875776
H          106.41167247486591       97.20153928874561      113.63963093029223
H          105.99330112356951       98.77634314988816      114.30539722599451
H          103.64930945876652       98.49216381823491      113.69661405922976
H          103.94292776048847       96.83517670253970      113.17464733831444
H          105.46712394321172       97.65838870458083      111.40106869257181
H          105.22178536197038       99.31440628774213      111.95861729383175
H          102.87494142537601       99.25467957079475      111.29889761845725
H          102.96406969912032       97.52430266280415      110.98297277464613
H          103.01256991723858       98.66827093634697      108.86352251593846
H          104.59423825899057       97.94125198559134      109.14791969650511
H          105.47313748677713      100.15664221477952      109.87192771613699
H          103.87480476454421      100.86207218332083      109.63024914126675
H          105.29469929410475      101.41044437325492      107.77001308340411
H          104.01256709103092      100.34157886831888      107.20511025034529
H          105.51528051238488       98.49139903379327      106.96832209883972
H          106.73841830418962       99.25502120454621      107.98673174391584
H          107.14211933385818      100.97500549839039      106.30563927589564
H          105.86355878136135      100.33280140061694      105.27607081705261
H          107.13311391879212       98.27460279020283      104.90632348953257
H          108.34176886083534       98.75825488784774      106.09238015934604
H          109.03117728324435      100.65052923892925      104.71785142474381
H          107.75342091001011      100.32705841121026      103.54819221091290
H          108.75316060186168       98.17757966782968      102.95778956971749
H          109.98601266036012       98.35819452051551      104.20223454885831
H          109.68407420164849      100.31792764919240      101.89003595564844
H          110.70391977897474       98.88181794233347      101.81136106288095
H          111.96244523506890       99.67645604147803      103.81279669297551
H          111.01844441460560      101.16336631790546      103.80865137129459
H          111.86858029317766      101.70527220835791      101.54025550122610
H          112.79373742053697      100.20481317761435      101.52634416181269
H          113.97144438528071      100.98913921287250      103.62401558152652
H          113.19021310821898      102.55199111128181      103.43416228288633
H          114.96198229675049      101.23760602432388      101.33285104607504
H          115.56911616480869      102.35234177308320      102.55177823683474
H          113.44990718259258      103.10371502564963      100.49547609501174
H          115.18108314517839      103.34033700068393      100.28571301178883
H          115.18917427477169      104.72543220883210      102.40434408153283
H          113.42381549210391      104.65125038729460      102.39556218393325
H          113.36959106034109      105.72397430203524      100.17142196606029
H          115.12886613169285      105.68385738862581      100.09619558628530
H          114.52350751299113      107.90183813655243      100.62017432826083
H          115.21041928025984      107.21211850962528      102.08819830068910
H          112.97002574126464      106.93872150398700      103.05573833028539
H          112.21732798219496      107.42027275574468      101.54163894157496
H          113.08485804517711      109.68500257717521      101.74491462580167
H          114.12448247476843      109.22604650051974      103.08618556662240
H          112.12866102413419      108.76012031972397      104.48460820064109
H          111.08169236232939      109.20829678620960      103.14418469794946
H          111.96345476109424      111.50759255940051      103.17509730222777
H          113.10915722124442      111.07932954374689      104.44782409293768
H          111.27364717574484      110.60197920370292      106.00521652477482
H          110.09049296811067      110.80714117663189      104.71792516405976
H          110.73502146110589      113.20962077757642      104.51771539187905
H          111.84005956474985      113.01683337153003      105.87916956357245
H          109.96823538865935      112.38450153325648      107.35302458610251
H          108.88134952749122      112.32301479459247      105.96702347184583
[...]
  3011   6 C     3012   6 C                                       1.5291841
  3012   6 C     3013   6 C                                       1.5268974
  3013   6 C     3014   6 C                                       1.5269550
  3014   6 C     3015   6 C                                       1.5265398
  3015   6 C     3016   6 C                                       1.5234363
  3015   6 C     3017   1 H                                       1.0921609
  3015   6 C     3018   1 H                                       1.0924874
  3014   6 C     3019   1 H                                       1.0929040
  3014   6 C     3020   1 H                                       1.0925956
  3013   6 C     3021   1 H                                       1.0919147
  3013   6 C     3022   1 H                                       1.0927018
  3012   6 C     3023   1 H                                       1.0932957
  3012   6 C     3024   1 H                                       1.0924922
  3011   6 C     3025   1 H                                       1.0926510
  3011   6 C     3026   1 H                                       1.0935187
  3010   6 C     3027   1 H                                       1.0923850
  3010   6 C     3028   1 H                                       1.0911835
  3009   6 C     3029   1 H                                       1.0927356
  3009   6 C     3030   1 H                                       1.0930710
  3008   6 C     3031   1 H                                       1.0927799
  3008   6 C     3032   1 H                                       1.0926345
  3007   6 C     3033   1 H                                       1.0927966
  3007   6 C     3034   1 H                                       1.0915923
  3006   6 C     3035   1 H                                       1.0914968
  3006   6 C     3036   1 H                                       1.0927510
  3005   6 C     3037   1 H                                       1.0920524
  3005   6 C     3038   1 H                                       1.0933685
  3004   6 C     3039   1 H                                       1.0919444
  3004   6 C     3040   1 H                                       1.0921711
  3003   6 C     3041   1 H                                       1.0922703
  3003   6 C     3042   1 H                                       1.0917358
  3002   6 C     3043   1 H                                       1.0938409
  3002   6 C     3044   1 H                                       1.0921126
  3001   6 C     3045   1 H                                       1.0938233
  3001   6 C     3046   1 H                                       1.0902459
  3000   6 C     3047   1 H                                       1.0911376
  3000   6 C     3048   1 H                                       1.0925464
  2999   6 C     3049   1 H                                       1.0929890
  2999   6 C     3050   1 H                                       1.0910454
  2998   6 C     3051   1 H                                       1.0916492
  2998   6 C     3052   1 H                                       1.0932408
  2997   6 C     3053   1 H                                       1.0929480
  2997   6 C     3054   1 H                                       1.0930787
  2996   6 C     3055   1 H                                       1.0912411
  2996   6 C     3056   1 H                                       1.0928699
  2995   6 C     3057   1 H                                       1.0924493
  2995   6 C     3058   1 H                                       1.0927523
  2994   6 C     3059   1 H                                       1.0933285
  2994   6 C     3060   1 H                                       1.0928132
  2993   6 C     3061   1 H                                       1.0922915
  2993   6 C     3062   1 H                                       1.0925727
  2992   6 C     3063   1 H                                       1.0901063
  2992   6 C     3064   1 H                                       1.0924498
  2991   6 C     3065   1 H                                       1.0929621
  2991   6 C     3066   1 H                                       1.0928882
  2990   6 C     3067   1 H                                       1.0928021
  2990   6 C     3068   1 H                                       1.0931461
  2989   6 C     3069   1 H                                       1.0926544
  2989   6 C     3070   1 H                                       1.0905553
  2988   6 C     3071   1 H                                       1.0931737
  2988   6 C     3072   1 H                                       1.0929216
  2987   6 C     3073   1 H                                       1.0913390
  2987   6 C     3074   1 H                                       1.0922864
  2986   6 C     3075   1 H                                       1.0933274
  2986   6 C     3076   1 H                                       1.0927204
  2985   6 C     3077   1 H                                       1.0923401
  2985   6 C     3078   1 H                                       1.0934199
  2984   6 C     3079   1 H                                       1.0929934
  2984   6 C     3080   1 H                                       1.0912043
  2983   6 C     3081   1 H                                       1.0923293
  2983   6 C     3082   1 H                                       1.0933603
  2982   6 C     3083   1 H                                       1.0931365
  2982   6 C     3084   1 H                                       1.0922010
  2981   6 C     3085   1 H                                       1.0921712
  2981   6 C     3086   1 H                                       1.0931173
  2980   6 C     3087   1 H                                       1.0929234
  2980   6 C     3088   1 H                                       1.0914862
  2979   6 C     3089   1 H                                       1.0910462
  2979   6 C     3090   1 H                                       1.0931699
  2978   6 C     3091   1 H                                       1.0920735
  2978   6 C     3092   1 H                                       1.0928978
  2977   6 C     3093   1 H                                       1.0930996
  2977   6 C     3094   1 H                                       1.0907148
  2976   6 C     3095   1 H                                       1.0926204
  2976   6 C     3096   1 H                                       1.0908496
  2975   6 C     3097   1 H                                       1.0920968
  2975   6 C     3098   1 H                                       1.0931938
  2974   6 C     3099   1 H                                       1.0933402
  2974   6 C     3100   1 H                                       1.0928519
  2973   6 C     3101   1 H                                       1.0924119
  2973   6 C     3102   1 H                                       1.0924849
  2972   6 C     3103   1 H                                       1.0924645
  2972   6 C     3104   1 H                                       1.0929654
  2971   6 C     3105   1 H                                       1.0919081
  2971   6 C     3106   1 H                                       1.0921198
  2970   6 C     3107   1 H                                       1.0927417
  2970   6 C     3108   1 H                                       1.0930363
  2969   6 C     3109   1 H                                       1.0919035
  2969   6 C     3110   1 H                                       1.0923521
  2968   6 C     3111   1 H                                       1.0914909
  2968   6 C     3112   1 H                                       1.0929905
  2967   6 C     3113   1 H                                       1.0924971
  2967   6 C     3114   1 H                                       1.0924974
  2966   6 C     3115   1 H                                       1.0929993
  2966   6 C     3116   1 H                                       1.0929258
  2965   6 C     3117   1 H                                       1.0927711
  2965   6 C     3118   1 H                                       1.0916570
  2964   6 C     3119   1 H                                       1.0929699
  2964   6 C     3120   1 H                                       1.0924905
  2963   6 C     3121   1 H                                       1.0929301
  2963   6 C     3122   1 H                                       1.0921310
  2962   6 C     3123   1 H                                       1.0929391
  2962   6 C     3124   1 H                                       1.0920484
  2961   6 C     3125   1 H                                       1.0929675
  2961   6 C     3126   1 H                                       1.0925934
  2960   6 C     3127   1 H                                       1.0929203
  2960   6 C     3128   1 H                                       1.0918489
  2959   6 C     3129   1 H                                       1.0929968
  2959   6 C     3130   1 H                                       1.0929085
  2958   6 C     3131   1 H                                       1.0926907
  2958   6 C     3132   1 H                                       1.0919167
  2957   6 C     3133   1 H                                       1.0930279
  2957   6 C     3134   1 H                                       1.0930304
  2956   6 C     3135   1 H                                       1.0927053
  2956   6 C     3136   1 H                                       1.0913064
  2955   6 C     3137   1 H                                       1.0933418
  2955   6 C     3138   1 H                                       1.0921957
  2954   6 C     3139   1 H                                       1.0906669
  2954   6 C     3140   1 H                                       1.0920632
  2953   6 C     3141   1 H                                       1.0926004
  2953   6 C     3142   1 H                                       1.0915048
  2952   6 C     3143   1 H                                       1.0932865
  2952   6 C     3144   1 H                                       1.0929305
  2951   6 C     3145   1 H                                       1.0923648
  2951   6 C     3146   1 H                                       1.0933004
  2950   6 C     3147   1 H                                       1.0924727
  2950   6 C     3148   1 H                                       1.0915084
  2949   6 C     3149   1 H                                       1.0934761
  2949   6 C     3150   1 H                                       1.0924309
  2948   6 C     3151   1 H                                       1.0925944
  2948   6 C     3152   1 H                                       1.0911468
  2947   6 C     3153   1 H                                       1.0921976
  2947   6 C     3154   1 H                                       1.0929864
  2946   6 C     3155   1 H                                       1.0930566
  2946   6 C     3156   1 H                                       1.0926466
  2945   6 C     3157   1 H                                       1.0915252
  2945   6 C     3158   1 H                                       1.0906888
  2944   6 C     3159   1 H                                       1.0922788
  2944   6 C     3160   1 H                                       1.0929751
  2943   6 C     3161   1 H                                       1.0928078
  2943   6 C     3162   1 H                                       1.0931870
  2942   6 C     3163   1 H                                       1.0901111
  2942   6 C     3164   1 H                                       1.0924549
  2941   6 C     3165   1 H                                       1.0926706
  2941   6 C     3166   1 H                                       1.0929658
  2940   6 C     3167   1 H                                       1.0930020
  2940   6 C     3168   1 H                                       1.0924972
  2939   6 C     3169   1 H                                       1.0928865
  2939   6 C     3170   1 H                                       1.0930094
  2938   6 C     3171   1 H                                       1.0930920
  2938   6 C     3172   1 H                                       1.0929816
  2937   6 C     3173   1 H                                       1.0922153
  2937   6 C     3174   1 H                                       1.0912911
  2936   6 C     3175   1 H                                       1.0930343
  2936   6 C     3176   1 H                                       1.0912352
  2935   6 C     3177   1 H                                       1.0928139
  2935   6 C     3178   1 H                                       1.0940558
  2934   6 C     3179   1 H                                       1.0921145
  2934   6 C     3180   1 H                                       1.0910715
  2933   6 C     3181   1 H                                       1.0917414
  2933   6 C     3182   1 H                                       1.0930286
  2932   6 C     3183   1 H                                       1.0929162
  2932   6 C     3184   1 H                                       1.0922178
  2931   6 C     3185   1 H                                       1.0913324
  2931   6 C     3186   1 H                                       1.0913715
  2930   6 C     3187   1 H                                       1.0924848
  2930   6 C     3188   1 H                                       1.0920664
  2929   6 C     3189   1 H                                       1.0924582
  2929   6 C     3190   1 H                                       1.0923967
  2928   6 C     3191   1 H                                       1.0912614
  2928   6 C     3192   1 H                                       1.0904961
  2927   6 C     3193   1 H                                       1.0936019
  2927   6 C     3194   1 H                                       1.0923744
  2926   6 C     3195   1 H                                       1.0937773
  2926   6 C     3196   1 H                                       1.0929261
  2925   6 C     3197   1 H                                       1.0896212
  2925   6 C     3198   1 H                                       1.0929507
  2924   6 C     3199   1 H                                       1.0928437
  2924   6 C     3200   1 H                                       1.0927006
  2923   6 C     3201   1 H                                       1.0923517
  2923   6 C     3202   1 H                                       1.0926447
  2922   6 C     3203   1 H                                       1.0931312
  2922   6 C     3204   1 H                                       1.0910384
  2921   6 C     3205   1 H                                       1.0928080
  2921   6 C     3206   1 H                                       1.0924793
  2920   6 C     3207   1 H                                       1.0925975
  2920   6 C     3208   1 H                                       1.0933875
  2919   6 C     3209   1 H                                       1.0916015
  2919   6 C     3210   1 H                                       1.0930371
  2918   6 C     3211   1 H                                       1.0932949
  2918   6 C     3212   1 H                                       1.0930888
  2917   6 C     3213   1 H                                       1.0909407
  2917   6 C     3214   1 H                                       1.0934617
  2916   6 C     3215   1 H                                       1.0933356
  2916   6 C     3216   1 H                                       1.0914575
  2915   6 C     3217   1 H                                       1.0923581
  2915   6 C     3218   1 H                                       1.0933766
  2914   6 C     3219   1 H                                       1.0928172
  2914   6 C     3220   1 H                                       1.0915062
  2913   6 C     3221   1 H                                       1.0926538
  2913   6 C     3222   1 H                                       1.0929393
  2912   6 C     3223   1 H                                       1.0926550
  2912   6 C     3224   1 H                                       1.0910032
  2911   6 C     3225   1 H                                       1.0919082
  2911   6 C     3226   1 H                                       1.0930068
  2910   6 C     3227   1 H                                       1.0927807
  2910   6 C     3228   1 H                                       1.0923078
  2909   6 C     3229   1 H                                       1.0915006
  2909   6 C     3230   1 H                                       1.0931684
  2908   6 C     3231   1 H                                       1.0936135
  2908   6 C     3232   1 H                                       1.0922065
  2907   6 C     3233   1 H                                       1.0922668
  2907   6 C     3234   1 H                                       1.0930863
  2906   6 C     3235   1 H                                       1.0927694
  2906   6 C     3236   1 H                                       1.0919717
  2905   6 C     3237   1 H                                       1.0925654
  2905   6 C     3238   1 H                                       1.0929859
  2904   6 C     3239   1 H                                       1.0919468
  2904   6 C     3240   1 H                                       1.0922026
  2903   6 C     3241   1 H                                       1.0930662
  2903   6 C     3242   1 H                                       1.0933724
  2902   6 C     3243   1 H                                       1.0924009
  2902   6 C     3244   1 H                                       1.0924315
  2901   6 C     3245   1 H                                       1.0925460
  2901   6 C     3246   1 H                                       1.0928055
  2900   6 C     3247   1 H                                       1.0927797
  2900   6 C     3248   1 H                                       1.0928192
  2899   6 C     3249   1 H                                       1.0920193
  2899   6 C     3250   1 H                                       1.0923172
  2898   6 C     3251   1 H                                       1.0928207
  2898   6 C     3252   1 H                                       1.0926489
  2897   6 C     3253   1 H                                       1.0877841
  2897   6 C     3254   1 H                                       1.0874008
  2897   6 C     3255   1 H                                       1.0880144
  3016   6 C     3256   1 H                                       1.0881455
  3016   6 C     3257   1 H                                       1.0880394
  3016   6 C     3258   1 H                                       1.0877188

 * 2 distinct bonds (by element types)

   Z      Z             #   av. dist./Å        max./Å        min./Å
   1 H    6 C        2178     1.0922619     1.0942512     1.0860736
   6 C    6 C        1071     1.5276007     1.5376067     1.5223028


optimized geometry written to: xtbopt.xyz


           -------------------------------------------------
          | TOTAL ENERGY            -3427.502526569521 Eh   |
          | GRADIENT NORM               0.000972152126 Eh/α |
          | HOMO-LUMO GAP              11.525581674050 eV   |
           -------------------------------------------------

------------------------------------------------------------------------
 * finished run on 2024/10/04 at 13:37:33.548     
------------------------------------------------------------------------
 total:
 * wall-time:     0 d,  5 h, 20 min, 54.400 sec
 *  cpu-time:     1 d,  5 h, 40 min, 12.140 sec
 * ratio c/w:     5.547 speedup
 SCF:
 * wall-time:     0 d,  0 h, 14 min,  2.897 sec
 *  cpu-time:     0 d,  1 h, 32 min, 13.416 sec
 * ratio c/w:     6.565 speedup
 ANC optimizer:
 * wall-time:     0 d,  5 h,  6 min,  9.562 sec
 *  cpu-time:     1 d,  4 h,  7 min,  1.096 sec
 * ratio c/w:     5.510 speedup

