3258
 energy: -3427.646172619875 gnorm: 0.000788871315 xtb: 6.6.1 (8d0f1dd)
C          110.45068953000850      112.80596495405872       94.12561560710473
C          111.74979957903561      112.77614427557161       94.92169015437291
C          111.72239051980641      113.67298670938844       96.15793356458188
C          110.77201462087227      113.19837137378316       97.25355190760469
C          110.86016676255583      114.09477631563762       98.48520599471956
C          109.94123083906788      113.64461698404168       99.61684206223543
C          110.00452558128157      114.59840334373783      100.80574066484532
C          109.07719086276072      114.19142065635616      101.94653563735353
C          109.10357970543336      115.20444238687112      103.08804703458563
C          108.21477879130791      114.79371519223393      104.25788716608358
C          108.18788637784404      115.85321585374902      105.35666545950905
C          107.31505597556854      115.42618744921188      106.53428234624793
C          107.22966215976540      116.46854072576544      107.65523598766917
C          108.19275123673957      116.24950868987310      108.82298530064286
C          109.66953312538479      116.33307692669037      108.45419100122248
C          110.58082234611723      116.28850559521162      109.68109979737639
C          112.02431957588603      116.60938256387978      109.30523549463034
C          112.97866821588975      116.69684757688128      110.49494688149574
C          114.35333596572004      117.18527691262862      110.03969564231143
C          115.34839832451271      117.45989806585382      111.16633645276930
C          115.92101269145091      116.20670481074886      111.82465685912184
C          117.07802684103295      116.56511186070898      112.75569133901875
C          117.79442468067471      115.35649973816155      113.35776475581018
C          116.95619615073161      114.53451812703496      114.33577102182046
C          116.51443152634106      115.31265289203736      115.57166769052604
C          115.82886337071633      114.40926940320912      116.59363162321078
C          115.23171000295370      115.20466135953819      117.75019717313621
C          114.53324086230290      114.31437397313879      118.77399680514638
C          113.73639544627919      115.13336684931804      119.78540726267293
C          112.99436892185555      114.25511172091736      120.78813670571368
C          112.01532112020030      115.05656754523834      121.63994774812127
C          111.17632202171787      114.16789238806535      122.55337648339673
C          110.12619670400861      114.97043708839229      123.31530229685018
C          109.23893301210619      114.09495941553784      124.19499049839585
C          108.16839025845769      114.91623920448551      124.90806869397608
C          107.22650151497328      114.05432071945226      125.74338584988506
C          106.16491051097574      114.89582070080239      126.44875563791922
C          105.17854990230093      114.06592767768819      127.27017814252041
C          105.79010053031237      113.48859219488376      128.54366071204461
C          104.81494106469766      112.56414060423633      129.26797968173801
C          105.36743197653979      112.00230480104803      130.57934890375793
C          106.70454612796604      111.27060281574670      130.44386200166556
C          106.66676657364036      110.13563661758552      129.42373922658669
C          107.95895796782104      109.32288907947915      129.37755908969029
C          109.16621387662514      110.13762542055092      128.91881803505618
C          110.38890070849726      109.24941734335053      128.69989095775117
C          111.68924809776013      110.03686545861360      128.54678439049545
C          111.75916928408191      110.86047808593956      127.26386758775233
C          113.07536294976238      111.62744854244123      127.16371181020557
C          113.14394534766375      112.51784512260146      125.92567364308431
C          114.41934675033977      113.35662394548714      125.89863689503679
C          114.46880567932865      114.29567487788998      124.69670709026414
C          115.73532649199261      115.14698797217481      124.68041848524736
C          115.76489617063420      116.11074416782110      123.49714745959491
C          117.03771028947622      116.95340471958474      123.47487491871027
C          117.07456531674833      117.90828976226992      122.28490433290321
C          118.37389990800087      118.70755696805386      122.22331614941041
C          118.47071472724697      119.56106903304777      120.96099374651953
C          119.75690388503232      120.38151858541627      120.92108773987967
C          119.92058117202697      121.15330049370800      119.61298073415540
C          121.18589238971070      122.00840491781378      119.62857172225955
C          121.40111319758752      122.82401430688753      118.35261002602881
C          121.76159660502984      121.96601692678794      117.13959598279476
C          122.36781917440132      122.77688970870527      115.99123757303090
C          121.41945837008275      123.79829453486613      115.35878751611261
C          120.30543822764423      123.13476722644396      114.55521645955456
C          119.33565996884428      124.12179565555014      113.90426825156609
C          118.45047272917081      124.89322353953609      114.88569725246199
C          117.54021919170457      123.99047447219458      115.71559170964740
C          116.53397868868576      124.78616708504134      116.54384097614758
C          115.72397018492352      123.88112573656625      117.46868125506533
C          114.70336408628353      124.65213458538823      118.30310845374426
C          114.01594027863541      123.74619554391083      119.32125975572056
C          112.97432926030447      124.47367532524913      120.16945879968617
C          112.42521549483048      123.55628365978511      121.25902107924253
C          111.32517647795802      124.19019052520993      122.10876864757543
C          110.92899608796513      123.24577342116430      123.24231193100965
C          109.75191013878735      123.71593292584735      124.09666523808271
C          108.40702473874083      123.67131091205593      123.37174940193808
C          107.24490689637905      123.86474728742779      124.34546183966852
C          105.90200466277841      124.12076187652394      123.66045178465791
C          105.39096828060732      122.95095718618681      122.82139338976877
C          104.00846223525745      123.25394248835596      122.24508236435855
C          103.49137377999672      122.15847445600286      121.31548538454720
C          102.12900313339635      122.51604292802193      120.72327848507364
C          101.65607348200534      121.49733196932335      119.68942345560116
C          100.33524284337940      121.90469020337885      119.03795886978854
C           99.91512693987121      120.92313922375232      117.94697409651189
C           98.64740012938360      121.35403892461714      117.21361767590612
C           98.35655677107935      120.50074082717775      115.97709667178189
C           97.99410523441000      119.05242020203798      116.30116545864260
C           97.56615452957980      118.25873111778637      115.06485540792984
C           98.71085278100639      117.89744697307368      114.11486124363356
C           99.58317049121931      116.75932424868914      114.63805587271985
C          100.71139249720876      116.39464526713078      113.67339647655471
C          101.39396951960174      115.09339617864920      114.09086041099937
C          102.63123575770271      114.73506235440706      113.26912699987683
C          102.34899164026525      114.54596215956761      111.77898277186948
C          103.49788359192232      113.83206852222159      111.06896987984175
C          103.29661978090542      113.76760635561870      109.55688680799351
C          104.38481701721102      112.95078185732432      108.86547959742099
C          104.22597624911801      112.93312901729222      107.34738874864595
C          105.29490166194407      112.08053894764616      106.67111984512215
C          105.20298452327999      112.11207081278505      105.14772022592628
C          106.32794121983461      111.30819195048838      104.50287809853680
C          106.29779879302509      111.34859630889369      102.97741757030845
C          107.48099607630913      110.59322332815054      102.37824179416155
C          107.49050675796914      110.60740025183235      100.85212230456106
C          108.74382493591131      109.93988899081968      100.29150046946594
C          108.76257492829546      109.90412704437722       98.76547242041636
C          110.08614438959462      109.36748372241007       98.22537943823851
C          110.08813091274646      109.23583757714225       96.70411366912570
C          111.46495462037952      108.85232946794260       96.16658462582522
C          111.45211222140830      108.57871964736506       94.66414284197380
C          112.86012131032030      108.34817983614052       94.11919147567797
C          112.86305616979645      107.87828440556389       92.66652258200627
C          114.28394945591751      107.73647130908398       92.12533357674450
C          114.32693279990259      107.14846184870768       90.71782974847542
C          115.75742471588184      107.05336395186818       90.19215226427927
C          115.82257240058348      106.44335792445825       88.79792926299339
H          116.19550289658362      108.05485653289531       90.16996517443042
H          116.35252853801718      106.44666396127883       90.87881399660175
H          113.87726699162315      106.15207868783966       90.72601584647187
H          113.73353193598190      107.77134400751559       90.04352880518823
H          114.76084129926228      108.71983891670914       92.11453748571672
H          114.86290920878530      107.09599684473473       92.79572064948115
H          112.34967796457641      106.91541336020761       92.59708517115882
H          112.30860732970400      108.59036378500268       92.05003088584687
H          113.42771901064326      109.27919844100117       94.19507936574395
H          113.36715561654449      107.60051007781794       94.73425239809498
H          110.83429153510536      107.69901574536269       94.46340171523930
H          110.99532927953454      109.42337956040640       94.14210979955558
H          112.16845341266530      109.66217420429530       96.37824382390399
H          111.82484485047858      107.96337696064461       96.68937455754316
H          109.35622328267823      108.48017812493489       96.40492153315240
H          109.77835110691100      110.18313871237979       96.25562322257285
H          110.89171272794073      110.04171311969016       98.52808351492081
H          110.29352275651620      108.39265903935591       98.67120921480864
H          107.94050346959739      109.27860323870659       98.40585231953808
H          108.59920216012442      110.91252470116009       98.37684907114503
H          109.62148939460558      110.48646168431665      100.64556324209549
H          108.81674095815758      108.92122926736674      100.67706342329390
H          106.60129711719388      110.09385811427227      100.47533163478774
H          107.44581905847075      111.64062684449557      100.49882952650334
H          108.40625683648172      111.04795474308706      102.74084354631377
H          107.46403105427750      109.55930362749370      102.72825067358677
H          105.36199899608570      110.91263298892329      102.61621578588259
H          106.32629180376225      112.38839890232589      102.64142712738168
H          107.28558411180201      111.70897200015642      104.84502451985566
H          106.26524342387903      110.27003166372381      104.83538712436831
H          104.23700541768406      111.71018919646673      104.83018626191762
H          105.25648755990815      113.14765293821412      104.80323843369949
H          106.28046413293501      112.44486773365961      106.97210536026017
H          105.20299125684215      111.04782205438228      107.01517517748314
H          103.23631218619398      112.54914365460567      107.08898780112237
H          104.28965856001501      113.95609242642587      106.96853623063993
H          105.36359230084028      113.36692576931789      109.11861916688811
H          104.35316213561275      111.92457126231587      109.24120567527630
H          102.32261381107315      113.32174957011976      109.34060851693805
H          103.29353748034009      114.78347159612790      109.15133261828215
H          104.43727454636701      114.34717659020816      111.28531848397171
H          103.58299037822684      112.81578530677874      111.46336978726744
H          101.43527094421576      113.95954880858869      111.65605011963150
H          102.18401630702421      115.51827860622005      111.30868762300341
H          103.38978599354996      115.51144364767441      113.39934225604819
H          103.04732062142419      113.80593513183580      113.66892664581626
H          101.68895456445762      115.16902096880003      115.14167728807406
H          100.66874873526419      114.28115877930377      114.01234134920207
H          100.29974778147242      116.28400105387281      112.66734784434230
H          101.44479966269850      117.20514912738665      113.64235037961251
H          100.01241335148767      117.03477145587210      115.60283637804390
H           98.95463703857449      115.88026294836969      114.79788888435279
H           98.28281540046312      117.59372452931129      113.15549679541027
H           99.32834709649971      118.77674368590401      113.92860357013822
H           97.08052638293189      117.33497476024735      115.39081519630329
H           96.82054368891330      118.84276870226893      114.51784645962404
H           98.83887669899292      118.55380008120711      116.77574654749253
H           97.16888256212235      119.05227880461042      117.01694173431007
H           97.52545642266155      120.95446173238550      115.42904646436705
H           99.23153730723207      120.52419091232619      115.32407988878371
H           97.79449852730910      121.31433583398206      117.89624413047393
H           98.76151129865491      122.39496533619311      116.89699056226233
H          100.72611800840673      120.83821268303161      117.21936749551412
H           99.76311007377979      119.94123679245057      118.39739654684892
H           99.55320852969609      121.96240995184480      119.79939923623078
H          100.44435292655952      122.90217268826218      118.60335133648603
H          102.41996890423837      121.39868669112758      118.91453063070969
H          101.54262933317565      120.51967228041416      120.16379412000090
H          101.39149706328205      122.59117210643515      121.52616406603323
H          102.19650474388071      123.49820847573216      120.24769034736268
H          104.20629149668146      122.01065885006133      120.50211162922028
H          103.41484686417981      121.21747785546599      121.86575683805002
H          103.29897605476185      123.39576870996852      123.06451831599188
H          104.05644081650206      124.19457282968686      121.68961045819978
H          106.08558783801813      122.75559226335082      122.00317002679513
H          105.34110063912867      122.05098608475174      123.43924458361762
H          105.15918067498021      124.34905194784494      124.42985606242013
H          105.99132761774310      125.00352280442580      123.02175550634317
H          107.16335150984195      122.98366269678907      124.98703831121955
H          107.46724615052838      124.71968838551497      124.98975209285557
H          108.37187678854917      124.44974840442542      122.60718897547370
H          108.30349879800899      122.70582253437115      122.87434069676637
H          109.68853301203835      123.06561435755489      124.97346561946908
H          109.93967129434635      124.73137209545872      124.45408775233142
H          110.68616274865803      122.27247224112081      122.81478279055952
H          111.79678943509153      123.10761484181405      123.89322188326550
H          111.67654325336780      125.13793517151234      122.52426272645148
H          110.45938605552951      124.40321658651879      121.47979912819770
H          112.03315230686925      122.64955240406050      120.79389786857816
H          113.24886307340036      123.25687198543028      121.91259896577537
H          113.42759967506180      125.35591397896438      120.62858707197991
H          112.15802952122073      124.81977894213652      119.53050464419198
H          113.53714777487527      122.91512220963709      118.79912884081786
H          114.77483100520956      123.32046254805489      119.98270571520864
H          115.20751082776131      125.46750909288644      118.82850419975033
H          113.95560548605424      125.09954954703497      117.64390518087720
H          115.20672315470974      123.12492935597022      116.87408711235247
H          116.40820053135876      123.35631479953322      118.14041570883546
H          117.06623575191963      125.52941971102453      117.14368407236819
H          115.85678316397198      125.32687214823086      115.87795298466368
H          117.00175428383396      123.31233047032237      115.05043092922716
H          118.14342420972390      123.38313757804484      116.39288309260540
H          119.07064067650813      125.49610576474750      115.55223883226500
H          117.82927271315906      125.58586295237265      114.31072405207122
H          119.90679872921839      124.83873280376109      113.30795265072265
H          118.68693142591974      123.56880271350968      113.22039564472736
H          120.76223246401760      122.52887367049372      113.76705818865521
H          119.74751012147640      122.46063905458917      115.20380049606248
H          120.99401045282609      124.42826961820010      116.13970105244816
H          121.99656494033870      124.44651236504035      114.69339191252844
H          123.24909694628795      123.30278695582402      116.36834762431540
H          122.70649162467886      122.08537542733463      115.21489296497377
H          122.49673346347450      121.21726964830583      117.44638209110119
H          120.87962294800937      121.42951649131186      116.78895552581807
H          120.49912971901173      123.40358155815183      118.14645942953034
H          122.21509807992956      123.53177673276463      118.53183429246059
H          121.12822912173540      122.69640968181501      120.47670944296593
H          122.05311494717748      121.36304317424278      119.79138820680289
H          119.96000356345330      120.44528845993216      118.78333383503944
H          119.05035842627011      121.79674996254963      119.46020783301756
H          119.76379180406231      121.08391604143817      121.75884745747383
H          120.61308504241997      119.71363004144740      121.04979113188691
H          118.43856570612357      118.90956459295137      120.08550849743460
H          117.60941510785970      120.23071683823942      120.90628187909033
H          118.44538679180013      119.35052653347132      123.10434631440783
H          119.22098021633032      118.01750694233883      122.25141318137625
H          116.96626419161740      117.32697569854909      121.36595021812425
H          116.22788555509401      118.59654724783448      122.34370697674028
H          117.11188611366705      117.52572244977597      124.40313717177166
H          117.90499471695067      116.28989142634691      123.42833007403634
H          115.69348744452616      115.54075906028994      122.56800966382185
H          114.89484323323886      116.77059273993341      123.54720149001383
H          115.80065768856683      115.71635282101279      125.61148183930297
H          116.61057049590401      114.49377762135309      124.63441180765830
H          114.41880594795148      113.70828617348737      123.77735469169060
H          113.59543370047557      114.95166184422449      124.71770128303882
H          114.47898556080348      113.94627291446841      126.81743748918497
H          115.28816282561519      112.69390650596003      125.88055730750536
H          113.09490113570332      111.89976806908830      125.02557022393771
H          112.27796846118238      113.18490995275043      125.91475718814985
H          113.19117891997168      112.25019145958066      128.05517802914696
H          113.90836713816446      110.92025546665468      127.14986902676424
H          111.65494082556269      110.19542625336373      126.40360322132125
H          110.93128135866553      111.57160690048661      127.23803145724281
H          111.80854766386446      110.70060820759581      129.40766516849999
H          112.52833922371212      109.33658251945700      128.55827803602898
H          110.49107828014594      108.58000584656732      129.55925815914193
H          110.23166874379091      108.63120954469090      127.81396718210466
H          108.91480138148505      110.65379533720332      127.99013168440986
H          109.40703332024131      110.89240217214815      129.67017455563527
H          108.16137862687114      108.90213891411275      130.36638494193829
H          107.82012559994055      108.48813436804291      128.68695956165570
H          105.84016660900052      109.46835388771058      129.67765679830717
H          106.47891104185577      110.54142302811231      128.42875357207862
H          107.47878513139436      111.98848129023978      130.17124533645861
H          106.97284654484514      110.85996804808308      131.42152550790141
H          105.49385297948602      112.82248386027526      131.29159683049946
H          104.62808247446021      111.31555841398745      130.99810836341143
H          103.89698086794527      113.11538186137197      129.49045718386407
H          104.54397533213641      111.74074994464917      128.60427251010015
H          106.68991395212980      112.93106547165702      128.28556289093353
H          106.08314065290652      114.30431781460024      129.20997923870848
H          104.32440849024756      114.69095648476562      127.54261833863654
H          104.80128166360997      113.24892535566030      126.65087014687693
H          106.65442301715443      115.62271512075172      127.10221007188036
H          105.60941882957560      115.45652721351149      125.69292763261370
H          106.73380102121504      113.32556681816165      125.09501174739344
H          107.81330183365094      113.50013795547700      126.47911071856241
H          108.65058447000921      115.65473982520385      125.55339180061149
H          107.58693969298599      115.46687011822542      124.16440937223642
H          108.75626353859323      113.33399412465099      123.57755289475976
H          109.85446593766362      113.57252942670637      124.93203819558894
H          110.62163477281243      115.72235267456337      123.93431052365955
H          109.49556413336684      115.50431244764393      122.59978016254651
H          110.67596158651604      113.41021832399353      121.94691071211963
H          111.82564739326953      113.64825106039987      123.26072828804404
H          112.56439039899816      115.78668319701043      122.23834977836671
H          111.34583312576784      115.61369786086561      120.97932247323769
H          112.44579395287928      113.48262904062554      120.24545460555501
H          113.71391840961122      113.75204172313870      121.43827893986452
H          114.40245446787620      115.81849791738394      120.31509128270675
H          113.00806429128080      115.74257356355098      119.24352222542736
H          113.84876453477494      113.63789935578606      118.25420680862175
H          115.27354722961873      113.70060129378584      119.29334195531192
H          116.01716757544099      115.78056813624136      118.24516561907662
H          114.50574005979726      115.91729517876649      117.34864628784467
H          115.03003466157092      113.85154423691819      116.09737443954522
H          116.54439128063132      113.67915615738204      116.98018193970928
H          117.38135491382499      115.79312007573228      116.03219939203983
H          115.81668296432618      116.09981645795395      115.27797539727803
H          116.07498119135170      114.14663614755760      113.82433698942567
H          117.55083902347047      113.67508952670845      114.65863660339630
H          118.12250840071482      114.70186275513618      112.54487702649979
H          118.69176422139633      115.70833085219694      113.87410958346118
H          117.81163982030571      117.14186902601865      112.18517547778399
H          116.71388013509470      117.21141196671671      113.55550801816904
H          115.13645952561708      115.69355098640462      112.38200579008392
H          116.28141375976351      115.52705049914185      111.04870199739871
H          116.18138594760283      118.03428359040159      110.74915319922331
H          114.87216266774202      118.08344220124710      111.92837205405036
H          114.78996334580664      116.45618145637104      109.35312881539558
H          114.20850665447657      118.11384806811627      109.47999583336733
H          112.57370278212792      117.39678589899314      111.23039656228568
H          113.06021752473420      115.72104241191396      110.97848107211297
H          112.38709472053834      115.85198139547501      108.60599941775112
H          112.04050130526196      117.57036411942030      108.78177515557768
H          110.22848383187693      117.01661362066852      110.41600207248253
H          110.52841163383201      115.30153947738023      110.14683287315630
H          109.93624035907762      115.51276697627851      107.78541126932780
H          109.84067288490034      117.26842088781312      107.91592537000899
H          107.98549462818680      117.01337022562980      109.57844057137676
H          107.98425130221577      115.27634928998022      109.27625099574787
H          107.39047549783740      117.46515909979230      107.23737770272128
H          106.21684971816086      116.45054127740723      108.06640627192139
H          106.30916761553706      115.23397282341458      106.15097731968748
H          107.68565505929432      114.48347251017979      106.94121006318672
H          109.20719238221076      116.04929589481991      105.69232900541209
H          107.79720691339892      116.78792581283020      104.94319128704139
H          107.19750213358830      114.62046895385933      103.89706653199565
H          108.57634067007383      113.85105517980452      104.67323838555853
H          110.13116617564377      115.32691762025233      103.44022018960119
H          108.77358547881281      116.17757569819926      102.71278043679376
H          108.05601073226292      114.10189953732979      101.56786087178308
H          109.37582676484377      113.21226356180649      102.32487943809859
H          111.03221159979317      114.64686925044234      101.17431722619507
H          109.73369753214006      115.60122999643706      100.46722498242806
H          108.91250498213452      113.59303986775350       99.24976554648215
H          110.22721393347695      112.64194062226319       99.93874207483971
H          111.89215365789727      114.10586830592412       98.84492274609163
H          110.60105297961860      115.11641966068863       98.19810821809543
H          109.74440920481035      113.19835622291365       96.88292006766700
H          111.02778218546713      112.17417098036114       97.53051634231230
H          112.73124846979434      113.71048512128993       96.57735350728358
H          111.45461722718350      114.68986367841627       95.85902947988944
H          111.96596354887789      111.75008210149490       95.22527888518566
H          112.56515250663841      113.10753448653961       94.27253257984384
H          109.62451524784633      112.40573485558473       94.70821747550282
H          110.20329308170915      113.82540041759853       93.83531346477648
H          110.54663646237958      112.20896744430468       93.22097585798114
H          116.85230606632200      106.39098602138208       88.45094088456614
H          115.41022634485743      105.43645565735736       88.80278074203261
H          115.25192033197908      107.04168089365307       88.09040390118865
C          102.22287694623559      101.69107018596277      131.67551179506012
C          102.54506773540925      102.09336573572513      130.24201631278424
C          103.92923073715774      101.61665146244434      129.80816739034924
C          104.23336004046443      101.99656460593235      128.36224137267661
C          105.63337942589108      101.57460048254538      127.92434862487683
C          105.90761006942640      101.95480257820053      126.47207054728447
C          107.32768468419812      101.61143248777404      126.02955943749345
C          107.58238260803192      102.02404040845724      124.58212920171256
C          109.00120946191217      101.70470604767715      124.11830074691281
C          109.24864115453593      102.16688465224307      122.68402781421231
C          110.66621507534032      101.85789664155516      122.21156146446339
C          110.92115721001647      102.32423517072472      120.78065545746979
C          112.35422956113347      102.04720000530241      120.33341461360050
C          112.64959852774702      102.60682761678694      118.94473360451023
C          114.11271326266413      102.43319122792516      118.54493757802970
C          114.39809320600858      103.00268559391608      117.15789661778309
C          115.88393382517150      102.98278148472421      116.80872613070581
C          116.14776282522524      103.54509410742780      115.41436358204469
C          117.63617460154779      103.69036830443773      115.10954274932668
C          117.87835695710277      104.24914188324298      113.71006831091795
C          119.34316001662671      104.59940351823369      113.46133431366378