3258
 energy: -3427.510878844039 gnorm: 0.000710714670 xtb: 6.6.1 (8d0f1dd)
C          101.21634426377435       95.51253658586000      109.53170432754689
C          101.19439166650869       96.91199522859580      110.13367600154918
C           99.77877605162480       97.47830737083643      110.21354153738801
C           99.75631559296893       98.89413007623553      110.78239219509537
C           98.34692432398022       99.47871008592365      110.83139997320563
C           98.34582101218318      100.91649615024505      111.34267879003863
C           96.95150036789062      101.53758663499184      111.34191433801416
C           96.98460043009088      103.00117008195862      111.77360232261874
C           95.61410424093269      103.66739877876297      111.68846744095423
C           95.68709981075878      105.16525901188662      111.97684989015174
C           94.35250949285948      105.86043875182732      111.71922666841418
C           94.32362350324368      107.31213944303109      112.19598878700947
C           95.25050862687834      108.24380013857214      111.41792148211032
C           95.14937235676234      109.67084250557363      111.94800446376070
C           96.04203007530809      110.66265708207631      111.20690782718481
C           95.96655657428914      112.04239768027549      111.85564068877271
C           96.81116516971075      113.11410093540250      111.17108381644175
C           98.31103492852415      112.83152827017300      111.21841545213374
C           99.11907182983808      114.06637323660610      110.83360625366439
C          100.62664000762375      113.82836406693259      110.76830105032657
C          101.03017770788705      112.80640148575948      109.70476295317285
C          102.46512056853001      112.98410754094508      109.21420361919925
C          103.52290700710716      112.75057221153124      110.28834148889128
C          104.94198062037627      112.93522497531214      109.74829943026786
C          105.39452859420254      111.80702618228410      108.82586883340890
C          106.80689897154932      112.03280617284952      108.29360532034802
C          107.27373619807501      110.88033952047003      107.41003049727912
C          108.71926246614862      111.04119099140676      106.94781820925233
C          109.18463829966039      109.82407890241350      106.15599006726389
C          110.66586653654227      109.85635285806988      105.78267309515444
C          111.08371700619551      108.52002184383117      105.17739797936315
C          112.55941623038495      108.41968886978421      104.80260432969405
C          112.96273620966828      106.98498108647505      104.45356981997874
C          112.26939792455236      106.44788521934184      103.20421741516488
C          112.49818320635094      104.95337082866619      102.99961836773383
C          111.71939847979266      104.43179541346201      101.79457764971114
C          111.79550452596385      102.91485596919202      101.65740804835772
C          110.87729767089571      102.38318776734017      100.55982638146794
C          110.94056213333906      100.86249985227217      100.45957826984343
C          110.04291746519607      100.31018608179428       99.35611854304616
C          109.98237693373338       98.78271962784264       99.35071900818777
C          111.29043577882469       98.12274829344481       98.92218617023106
C          111.21601962083322       96.60191352670131       99.02322353621663
C          112.53147387906692       95.93060433613654       98.63765780363926
C          112.50382625502729       94.42734280858805       98.89779623102974
C          113.84337741881573       93.75923782249194       98.60096959838400
C          113.87074741327001       92.31403369139507       99.09034435097692
C          115.22791260029538       91.65566170005788       98.85933723034657
C          115.28193506195903       90.19878565719222       99.32423497223667
C          115.00770319227466       89.98867425170893      100.81491142813832
C          116.02100541205013       90.67726777688581      101.72565812476019
C          115.71234162310071       90.43826994729513      103.20148780839854
C          116.75721087733245       91.08009755272758      104.11159625931458
C          116.47171429334118       90.87212443398482      105.60025695565962
C          115.32664281172438       91.74331105761493      106.11100040746200
C          114.97619203218360       91.48721968206911      107.57595335920836
C          116.12991747323989       91.77579162249046      108.53633373654866
C          115.65913341759546       92.02266611991051      109.97314319663758
C          115.12392096292160       93.44013694536956      110.15660076638659
C          114.59468086817044       93.71591981949750      111.56147398314828
C          114.22139444659965       95.18776134793639      111.72050599934090
C          113.49897699951300       95.48290081390030      113.02991658069530
C          113.22081475776483       96.97247403489531      113.23234619203170
C          112.30357559680996       97.57686862444747      112.17058018979907
C          111.85334897620608       98.98890755093521      112.54124794747541
C          111.06511736392126       99.64477710343502      111.41010350960312
C          110.53913215081694      101.03994969441440      111.75110322084491
C          109.40144992275074      101.01813291779891      112.77057246504806
C          108.65979249822568      102.35166909028567      112.85254648837740
C          107.42892727117606      102.25423376754391      113.75205534042593
C          106.51900765651435      103.48022938814522      113.66953774677152
C          105.15594317682007      103.19986572329151      114.29838758415565
C          104.15263265957034      104.33551828258176      114.11843986501536
C          102.74525189504537      103.90072741982263      114.52151107601401
C          101.70009186017153      104.99471055272494      114.31557982297389
C          100.28128824789857      104.46414408311338      114.51500339069948
C           99.19501595245384      105.50528954600784      114.24326224212705
C           99.02874716546194      106.53085157059327      115.36127110592000
C           97.95952724830208      107.56461690737319      115.01662180643407
C           97.73960255016348      108.57979739254695      116.13594936586354
C           96.81292606166411      109.71358022792333      115.70020786675562
C           96.50809040432623      110.68365176318184      116.84105866883816
C           95.93680952081792      112.02150869980827      116.36913491555217
C           94.54102114056045      111.93022382567189      115.75616231222708
C           94.07763532473381      113.29472799824859      115.24609552829830
C           92.61641971524269      113.32625054771221      114.79670609474763
C           92.30949729447146      112.34361948813502      113.66875661122907
C           90.91716215215220      112.56244875488865      113.07854420484043
C           90.45146337504100      111.40178622724119      112.19817647641013
C           91.28990595565855      111.20467650443715      110.93693793755115
C           90.80045364385505      110.00663152592443      110.12653556799023
C           91.66155761256721      109.72971803717316      108.89612601891650
C           91.11907822969597      108.54473250001837      108.09983129474568
C           91.96247225184521      108.17332482945201      106.88008590720024
C           92.02265742780580      109.27871388742821      105.82736539902841
C           92.57245580768966      108.77373383018026      104.49546751973752
C           92.64654435722809      109.88826299606573      103.45438199703455
C           93.02687720210473      109.36797037395067      102.06966750372901
C           93.07357858240506      110.47074899578244      101.01073695504158
C           94.27383786866216      111.40143761655328      101.16420064800209
C           94.27003705850204      112.51651891350991      100.12305099309394
C           95.51505198226826      113.39507581013314      100.20996325580269
C           95.47245838529146      114.53510333637082       99.19799415570472
C           96.75447788756993      115.36418782576656       99.17517887708856
C           96.66982145230547      116.46270397634565       98.11768425885715
C           98.00432200255057      117.13753562292588       97.80488055882776
C           98.51489289186378      118.08774015637240       98.88648584152668
C           99.72551270826654      118.86515575195357       98.37308111243571
C          100.22801710262880      119.94380482066106       99.32979135384433
C          101.29565532095583      120.79955185059730       98.65063497834903
C          101.89731401034037      121.88604387191282       99.54012861953986
C          100.86870359928399      122.88954968329419      100.06667495422491
C          101.53062010829912      124.21109869878684      100.45596827688730
C          100.62006391595766      125.15664181749942      101.24177265083613
C          100.38592622160660      124.69626771873428      102.68023709968860
C           99.79399365809707      125.79534234698788      103.55974218030229
C           99.68618386481677      125.35097719654352      105.01655370706219
C           99.24160861745109      126.47739032602243      105.94499675981436
C           99.19214124764306      126.02577916559193      107.40263543376925
C           98.82099650179956      127.16451361153472      108.34402862964413
H           98.46623193679899      125.21571524034314      107.50594711130535
H          100.16975642574066      125.62809399940596      107.68426331318452
H           99.93834073180322      127.31510466836203      105.85293374023763
H           98.25535761179729      126.83687635106882      105.64045998372684
H           98.98258587233957      124.51892505490035      105.09260437119799
H          100.66290095911752      124.98923540062994      105.34680838241631
H          100.43394780824798      126.68041135094931      103.50363378564180
H           98.80764945390170      126.08043706557488      103.18540726752931
H           99.72120195123831      123.83026663814285      102.69342798404158
H          101.34162915638009      124.38855945837838      103.10917586340366
H          101.09125193400445      126.14308696631407      101.26775255887681
H           99.66349485292582      125.26520027577172      100.72493755140870
H          102.41850525672355      124.00449331823313      101.05585883339214
H          101.86245399636645      124.71456327359572       99.54373439008623
H          100.11570884268514      123.08286757735166       99.29825241730383
H          100.35874478605534      122.46377979802767      100.93113180570751
H          102.41418133446884      121.42427673571116      100.38299425331978
H          102.64642560704682      122.42478115307446       98.95289078057678
H          102.10187723189713      120.14724005807628       98.30407349027237
H          100.85721939751333      121.27126579353821       97.76620432415244
H           99.39027173292448      120.57521042427248       99.63247106590917
H          100.64044498171488      119.48338919957860      100.22855677861288
H          100.53706158665624      118.16632473356123       98.15809189512368
H           99.45221269918767      119.34312503200609       97.42727287833058
H           97.72093157340973      118.79076187206374       99.15331521096327
H           98.78338259454249      117.53015395439812       99.78513767518258
H           98.75714568441218      116.36942495596104       97.61962942195733
H           97.88593450780657      117.70919257392180       96.87931093710871
H           96.29334356166248      116.01601580703723       97.19232348894606
H           95.94285494725517      117.21725085091165       98.42991072043682
H           96.92906477864980      115.80087287455977      100.15994898706303
H           97.59717586915824      114.70917239083978       98.94520049707991
H           95.30558477321267      114.11647127966012       98.20106208916513
H           94.62293305784451      115.18760717094953       99.41919818332083
H           95.60150380596934      113.80391746199766      101.21820903433427
H           96.39906721891693      112.78352869481481      100.02202507348088
H           94.21039038414818      112.07776882912408       99.12331597947716
H           93.37926272100995      113.13564712522337      100.26095182290615
H           94.26991824953510      111.84904226044220      102.15926189973810
H           95.19081339495843      110.81818509551611      101.06293541665920
H           93.11394430312698      110.00971659038504      100.02020793137912
H           92.15087228117137      111.05510015817653      101.06061550989965
H           93.99851587316263      108.87188946661358      102.11775986105441
H           92.29161252362805      108.61769138142913      101.76590453366721
H           91.67261643502529      110.38124296345755      103.39016512721058
H           93.37130206311650      110.63379092606056      103.78629613499196
H           93.56822613085737      108.35204643663820      104.65168052948890
H           91.92957454876779      107.97191560278067      104.12201210717851
H           91.01685822478875      109.67621708249980      105.66730670106897
H           92.65129854841773      110.09655253637875      106.18403370151219
H           92.97560467219458      107.91896477511150      107.19695684733516
H           91.52839465749648      107.27861328254876      106.42539310157501
H           91.05994087243261      107.67596428388208      108.76130395412925
H           90.10148613627811      108.77378723427304      107.77194216213066
H           91.67979252710583      110.62010360519301      108.26522172179868
H           92.68650270810339      109.51901920152334      109.21021624787072
H           90.79802745214744      109.12020611078425      110.76699577587550
H           89.76868579627467      110.18248714449024      109.81087227164896
H           91.24500170963964      112.10771880176634      110.32335750065160
H           92.33297358116538      111.04165203704163      111.21126038677725
H           90.47417075247445      110.48106225638114      112.78764442543836
H           89.41249148037282      111.57538211137229      111.90534072918494
H           90.20213354259307      112.68022264982089      113.89729212283160
H           90.90852486630774      113.48833833140469      112.49847309443446
H           93.05909898689399      112.46242956402402      112.88585365699274
H           92.37766430601422      111.32221524457080      114.04764965269258
H           91.96979989272484      113.10780697897864      115.65055869154618
H           92.38139039075234      114.33880208928856      114.45728601108395
H           94.20885578400284      114.03316151530092      116.04246137093679
H           94.71533490788397      113.59499468737071      114.41103014641580
H           94.55094028447536      111.22117064780750      114.92851306142771
H           93.83799241736020      111.56251269272121      116.50783210137074
H           95.89560049216738      112.70118678477701      117.22491737569416
H           96.61901585369316      112.45807949841097      115.63446863421541
H           95.81350068725185      110.21685049879974      117.54367213705306
H           97.43553972624532      110.88254227159815      117.38523192949901
H           97.28777992941949      110.25952493339972      114.88074228948051
H           95.88187355067815      109.28639906452418      115.32126596201149
H           97.31568480582912      108.07512097657489      117.00818174643776
H           98.70312816727001      108.99974664234733      116.43735887575566
H           98.25750154744452      108.09347907183356      114.10797441647931
H           97.01605514772199      107.05572929976903      114.80096813127295
H           98.75639769481862      106.01773870135170      116.28734611859907
H           99.97543571689246      107.04447264420254      115.53633896855874
H           99.42394480005431      106.02457261621382      113.31062796744152
H           98.24095901347630      104.99001293569117      114.10355649147091
H          100.13190805279993      103.62182344911315      113.83304041680668
H          100.16964412813212      104.08544903518461      115.53420116519163
H          101.89458462417176      105.81805089175681      115.00467639932751
H          101.78946621227557      105.38592586955042      113.29882587909395
H          102.46288676107109      103.02780285088338      113.92534438891391
H          102.74951859718225      103.59085378652664      115.56996434070405
H          104.45715983675395      105.19715677717811      114.71413884739304
H          104.14184655555302      104.64546264972732      113.07027855024215
H          104.74374573369744      102.30303570775611      113.83072045666110
H          105.27691494974208      102.98313678226448      115.36181534002995
H          106.99196892973225      104.33292770724798      114.16292567658247
H          106.37453367026434      103.74675402867560      112.61871442155714
H          106.85368654095015      101.37477461910073      113.44933003440383
H          107.73913522709540      102.09509994470783      114.78773701493606
H          109.33263408781653      103.12933420207625      113.21937242332552
H          108.33874031017685      102.63878236849432      111.84741394888202
H          108.68895850547500      100.23987777959840      112.48292082889751
H          109.78968303340642      100.75967181169963      113.75764844297328
H          111.35815990537118      101.65942385587942      112.12307281559897
H          110.16879089402808      101.50073828571455      110.83100857857775
H          111.71276105201511       99.71592479035301      110.53163925891747
H          110.22197485808684       99.00345272002772      111.13921514512626
H          111.23862416511082       98.94214227960114      113.44189200049937
H          112.72966633652602       99.59909747674868      112.77168308341724
H          112.82253346505692       97.61242564137984      111.21045134654207
H          111.42235100495871       96.94120822882491      112.04683514827991
H          112.75853310471379       97.10874776040632      114.21269749429680
H          114.16843531013140       97.51480885923985      113.23631349327184
H          112.55712169637100       94.92904775626971      113.05414093135921
H          114.10905147397992       95.12206990528298      113.86338091156570
H          115.12647028314288       95.79763370534440      111.66010417172716
H          113.57450981796715       95.47238649691363      110.88959723161348
H          113.71290884831487       93.09677587441676      111.74607531894024
H          115.34767111472803       93.44097637919523      112.30523812750691
H          115.92500293657430       94.14999500531314      109.93249086728355
H          114.32027493805121       93.62066552347792      109.44171923502716
H          114.88571279079517       91.29662042007141      110.23231691747704
H          116.49529085316344       91.86836803679471      110.66069801057057
H          116.82843033750584       90.93660042904554      108.52433267018870
H          116.67043889145772       92.65840457255125      108.18532009850158
H          114.12772274169339       92.12347410526193      107.83522871595910
H          114.65492186600540       90.45078044751217      107.69782392986784
H          115.60238986207628       92.79443012874137      105.98861742662119
H          114.43505633967446       91.56328933229781      105.50678094286843
H          116.23760860618323       89.81958205527482      105.77967976215044
H          117.37544363690685       91.11022023282770      106.16488087585095
H          117.73365612328730       90.64931742855883      103.87432045867438
H          116.81168510854042       92.15114671700569      103.90297092432644
H          114.72442038725434       90.84536792434190      103.42566510240614
H          115.67864037856069       89.36283769002543      103.39584064239382
H          117.02314024400434       90.30637395279648      101.49648156227742
H          116.01636513510438       91.75212346814594      101.53880308814190
H          114.00338813074838       90.34139455785261      101.05651923765953
H          115.02777663181031       88.91398867836236      101.01662930248065
H          114.54877911265538       89.62211352510201       98.75399397955947
H          116.27059319227145       89.79505623246502       99.08891318784428
H          115.45837207735971       91.68345877374912       97.79065586478600
H          116.00016669212413       92.23445084979758       99.36938901952519
H          113.63987592998448       92.30917508987318      100.15671116275269
H          113.09396946698793       91.73900049195130       98.58038132163206
H          114.04456048937681       93.79317470799577       97.52746695632653
H          114.63841532512188       94.31768294909467       99.10168793329544
H          112.25586602993857       94.25633731420797       99.94824822505622
H          111.71914496452439       93.96224896335362       98.29580611056411
H          112.74651342125244       96.11878252525098       97.58280015865425
H          113.34285269944705       96.37358618518438       99.22120700429947
H          110.96830099123687       96.33113119180302      100.05267739894470
H          110.41334207317044       96.22828761127204       98.38153232871254
H          111.52545189020822       98.41062122618141       97.89383760241729
H          112.10327615729079       98.47415609003373       99.56002890206750
H          109.72336816031533       98.43680855932176      100.35410410525026
H          109.18626825775145       98.45811034353605       98.67444161474168
H          109.03183352228436      100.69806524267707       99.50382308168621
H          110.39394754429240      100.66590397778151       98.38358505882920
H          111.97397130954879      100.56314319677662      100.27610831408778
H          110.62872000615359      100.43083709531926      101.41412693426400
H          109.85013663445554      102.68864272112192      100.77161004149509
H          111.15793618755794      102.82323573992711       99.59975838109432
H          112.82617425064340      102.61993119376615      101.44153174761584
H          111.51293070416428      102.45572102193776      102.60879086477675
H          110.67161899238685      104.72342169374035      101.89651567341132
H          112.09875697219175      104.90292424315912      100.88357963858488
H          113.56255427008912      104.75278495439994      102.86593165445281
H          112.17219282040683      104.41614801641570      103.89488823144329
H          111.19525894089567      106.61512545722461      103.28508018450671
H          112.62142840816486      106.99548523360399      102.32692976086813
H          114.04477680312118      106.94234020829018      104.30660364636771
H          112.72049997857700      106.33692647078799      105.30074290152562
H          112.77373794768471      109.07981995520394      103.95927231980576
H          113.16678883016058      108.75564676315753      105.64627794934762
H          110.85761882783456      107.73237934728083      105.90017061636763
H          110.47284444622083      108.34085515497163      104.29082080954309
H          110.85869272695864      110.66661591605978      105.07459809091382
H          111.26194532361207      110.05019869629325      106.67792740008244
H          109.00209444312993      108.93054788606555      106.75938660618675
H          108.58379480777377      109.73307760429864      105.24725471890100
H          108.81299368962735      111.94218537419856      106.33852355295730
H          109.35713661578524      111.16350133693707      107.82527779151995
H          107.18636191558555      109.94716639285411      107.97337711801451
H          106.61889758544014      110.79939831154169      106.53779444665204
H          106.83946029318905      112.96803028383775      107.72801007974385
H          107.49650814170185      112.13692318622903      109.13476753662277
H          105.36795614887698      110.86219944406420      109.37508170733921
H          104.70709805603927      111.71700982892760      107.98218174703118
H          104.99649278364899      113.88485174262910      109.21035108260145
H          105.63635702456772      112.99338081918626      110.59014060302030
H          103.36522943449438      113.45574000901570      111.10803671521646
H          103.41309296621121      111.74279075856604      110.69795208801874
H          102.63154012633962      112.28728555089616      108.39178304875779
H          102.58404952614735      113.99618531994682      108.81821535999700
H          100.91057308146426      111.79384713596444      110.09371753593632
H          100.36420729203128      112.91029243078277      108.84371427644336
H          101.10850601018093      114.78282206440316      110.53787505398373
H          100.98348129473375      113.50849968816296      111.74951465464208
H           98.77143099014221      114.42581024971567      109.86117274004795
H           98.92144982969833      114.85626666042310      111.56175522709353
H           98.59124931179809      112.51530480992760      112.22668815525392
H           98.54328823124288      112.01677321297998      110.53223556803670
H           96.49448382502044      113.21719643826955      110.13011943003637
H           96.61685531043403      114.06804684869812      111.66965043971409
H           94.92360911505857      112.37152523872298      111.85029903214475
H           96.27605828630480      111.95869767130105      112.90088844232646
H           97.07037835652454      110.29973247190138      111.22893393345149
H           95.73170288131222      110.73009601613428      110.16138191408234
H           94.10928591690337      110.00201970713276      111.88532643391785
H           95.42628852866999      109.67092664495701      113.00508075669093
H           96.28272822047887      107.90164037223668      111.50895990599207
H           94.98279911156956      108.22163125681666      110.35908239324979
H           93.30019268778874      107.68811336214816      112.10939005009695
H           94.59315543286257      107.34381696585345      113.25543084598220
H           94.12831983317677      105.82358649901097      110.65059797922230
H           93.56385107751167      105.30893479679673      112.23887731996155
H           95.98222506666657      105.32039641667107      113.01761789883913
H           96.45768335987268      105.61027393249094      111.34491478054018
H           95.20569714314308      103.51704335436003      110.68676226773744
H           94.93007242353572      103.19078366706995      112.39527595924510
H           97.36418268893212      103.07124151769861      112.79596237738122
H           97.68105960369138      103.54273620098417      111.12832160165604
H           96.53226332649120      101.47256963089225      110.33503337247961
H           96.29638309239574      100.97236280665120      112.00948500814316
H           98.75477399253593      100.94241448459610      112.35612172066999
H           98.99959663881828      101.51590042803424      110.70523417959092
H           97.91502211634985       99.45777850606214      109.82793357998763
H           97.71592565872380       98.86027983243848      111.47488016849692
H          100.17970338220172       98.88675902314532      111.79010281479816
H          100.38662416351123       99.53603530372197      110.16377857191922
H           99.33894450150595       97.48830256451771      109.21285607343982
H           99.16157428745623       96.82509327767509      110.83594525114154
H          101.62866626752603       96.88100786453695      111.13542182440580
H          101.81224784451447       97.57578328818504      109.52507410512557
H          102.23458553452252       95.13370977197175      109.47955454711325
H          100.62522805858261       94.82662687933095      110.13504261679263
H          100.80132339237737       95.52329410460335      108.52566157437020
H           97.84338947999990      127.56893139106765      108.09020700324437
H           98.79052042537526      126.81705806317765      109.37426811714174
H           99.55046105082546      127.96924347513919      108.27659692571625
C          129.64500838595501      103.49996548630638      112.86213648704829
C          128.85124736411288      104.54800078628173      113.63263641002243
C          127.42275775875241      104.67868539876325      113.11088049018473
C          126.60109776954533      105.68211604975261      113.91460044583205
C          125.17019017496952      105.80223873122684      113.40188778678214
C          124.33932609410755      106.77744514088351      114.23003984472571
C          122.91146419797155      106.89337838256111      113.70485783354911
C          122.04092803782112      107.79955174416648      114.56983369786339
C          120.59254192856950      107.84272535211767      114.09106160226246
C          119.70149361575493      108.63913255423736      115.03987651939660
C          118.24493954126045      108.67165575136318      114.58392674760998
C          117.36709390768119      109.44167189147754      115.56810664078691
C          115.96008087279607      109.73193746843953      115.04714765529143
C          115.07131344420799      108.49623810649079      114.93508061752802
C          113.73525738243377      108.79294436319687      114.25253377194566
C          112.84012076025834      109.75296055592803      115.03152364291455
C          111.46447074914185      109.91340310732713      114.38611537343023
C          110.62172290953644      110.94868090481442      115.12678011312187
C          109.18745862978697      111.07941248283112      114.61569378334406
C          109.10417126631876      111.49684086399472      113.14931583742393
C          107.73467124972461      112.05026199884183      112.75546616888811