      -----------------------------------------------------------      
     |                   =====================                   |     
     |                           x T B                           |     
     |                   =====================                   |     
     |                         S. Grimme                         |     
     |          Mulliken Center for Theoretical Chemistry        |     
     |                    University of Bonn                     |     
      -----------------------------------------------------------      

   * xtb version 6.6.1 (8d0f1dd) compiled by 'stahn@M-Bot' on 2023-08-01

   xtb is free software: you can redistribute it and/or modify it under
   the terms of the GNU Lesser General Public License as published by
   the Free Software Foundation, either version 3 of the License, or
   (at your option) any later version.
   
   xtb is distributed in the hope that it will be useful,
   but WITHOUT ANY WARRANTY; without even the implied warranty of
   MERCHANTABILITY or FITNESS FOR A PARTICULAR PURPOSE.  See the
   GNU Lesser General Public License for more details.
   
   Cite this work as:
   * C. Bannwarth, E. Caldeweyher, S. Ehlert, A. Hansen, P. Pracht,
     J. Seibert, S. Spicher, S. Grimme, WIREs Comput. Mol. Sci., 2020, 11,
     e01493. DOI: 10.1002/wcms.1493
   
   for GFN2-xTB:
   * C. Bannwarth, S. Ehlert and S. Grimme., J. Chem. Theory Comput., 2019,
     15, 1652-1671. DOI: 10.1021/acs.jctc.8b01176
   for GFN1-xTB:
   * S. Grimme, C. Bannwarth, P. Shushkov, J. Chem. Theory Comput., 2017,
     13, 1989-2009. DOI: 10.1021/acs.jctc.7b00118
   for GFN0-xTB:
   * P. Pracht, E. Caldeweyher, S. Ehlert, S. Grimme, ChemRxiv, 2019, preprint.
     DOI: 10.26434/chemrxiv.8326202.v1
   for GFN-FF:
   * S. Spicher and S. Grimme, Angew. Chem. Int. Ed., 2020, 59, 15665-15673.
     DOI: 10.1002/anie.202004239
   
   for ALPB and GBSA implicit solvation:
   * S. Ehlert, M. Stahn, S. Spicher, S. Grimme, J. Chem. Theory Comput.,
     2021, 17, 4250-4261. DOI: 10.1021/acs.jctc.1c00471
   
   for DFT-D4:
   * E. Caldeweyher, C. Bannwarth and S. Grimme, J. Chem. Phys., 2017,
     147, 034112. DOI: 10.1063/1.4993215
   * E. Caldeweyher, S. Ehlert, A. Hansen, H. Neugebauer, S. Spicher,
     C. Bannwarth and S. Grimme, J. Chem. Phys., 2019, 150, 154122.
     DOI: 10.1063/1.5090222
   * E. Caldeweyher, J.-M. Mewes, S. Ehlert and S. Grimme, Phys. Chem. Chem. Phys.
     2020, 22, 8499-8512. DOI: 10.1039/D0CP00502A
   
   for sTDA-xTB:
   * S. Grimme and C. Bannwarth, J. Chem. Phys., 2016, 145, 054103.
     DOI: 10.1063/1.4959605
   
   in the mass-spec context:
   * V. Asgeirsson, C. Bauer and S. Grimme, Chem. Sci., 2017, 8, 4879.
     DOI: 10.1039/c7sc00601b
   * J. Koopman and S. Grimme, ACS Omega 2019, 4, 12, 15120-15133.
     DOI: 10.1021/acsomega.9b02011
   
   for metadynamics refer to:
   * S. Grimme, J. Chem. Theory Comput., 2019, 155, 2847-2862
     DOI: 10.1021/acs.jctc.9b00143
   
   for SPH calculations refer to:
   * S. Spicher and S. Grimme, J. Chem. Theory Comput., 2021, 17, 1701-1714
     DOI: 10.1021/acs.jctc.0c01306
   
   with help from (in alphabetical order)
   P. Atkinson, C. Bannwarth, F. Bohle, G. Brandenburg, E. Caldeweyher
   M. Checinski, S. Dohm, S. Ehlert, S. Ehrlich, I. Gerasimov, C. Hölzer
   A. Katbashev, J. Koopman, C. Lavigne, S. Lehtola, F. März, M. Müller,
   F. Musil, H. Neugebauer, J. Pisarek, C. Plett, P. Pracht, F. Pultar,
   J. Seibert, P. Shushkov, S. Spicher, M. Stahn, M. Steiner, T. Strunk,
   J. Stückrath, T. Rose, and J. Unsleber
   
 * started run on 2024/10/04 at 02:58:54.170     

           -------------------------------------------------
          |                Calculation Setup                |
           -------------------------------------------------

          program call               : /home/abt-grimme/AK-bin/xtb input.xyz --input input.inp --opt
          hostname                   : boar099.thch.uni-bonn.de
          coordinate file            : input.xyz
          omp threads                :                     8

   ID    Z sym.   atoms
    1    6 C      1-120, 363-482, 725-844, 1087-1206, 1449-1568, 1811-1930,
                  2173-2292, 2535-2654, 2897-3016
    2    1 H      121-362, 483-724, 845-1086, 1207-1448, 1569-1810,
                  1931-2172, 2293-2534, 2655-2896, 3017-3258

molecular fragmentation (1/2 indicates fragments):
111111111111111111111111111111111111111111111111111111111111111111111111
111111111111111111111111111111111111111111111111111111111111111111111111
111111111111111111111111111111111111111111111111111111111111111111111111
111111111111111111111111111111111111111111111111111111111111111111111111
111111111111111111111111111111111111111111111111111111111111111111111111
112222222222222222222222222222222222222222222222222222222222222222222222
222222222222222222222222222222222222222222222222222222222222222222222222
222222222222222222222222222222222222222222222222222222222222222222222222
222222222222222222222222222222222222222222222222222222222222222222222222
222222222222222222222222222222222222222222222222222222222222222222222222
222222222222222222222222222222222222222222222222222222222222222222222222
222222222222222222222222222222222222222222222222222222222222222222222222
222222222222222222222222222222222222222222222222222222222222222222222222
222222222222222222222222222222222222222222222222222222222222222222222222
222222222222222222222222222222222222222222222222222222222222222222222222
222222222222222222222222222222222222222222222222222222222222222222222222
222222222222222222222222222222222222222222222222222222222222222222222222
222222222222222222222222222222222222222222222222222222222222222222222222
222222222222222222222222222222222222222222222222222222222222222222222222
222222222222222222222222222222222222222222222222222222222222222222222222
222222222222222222222222222222222222222222222222222222222222222222222222
222222222222222222222222222222222222222222222222222222222222222222222222
222222222222222222222222222222222222222222222222222222222222222222222222
222222222222222222222222222222222222222222222222222222222222222222222222
222222222222222222222222222222222222222222222222222222222222222222222222
222222222222222222222222222222222222222222222222222222222222222222222222
222222222222222222222222222222222222222222222222222222222222222222222222
222222222222222222222222222222222222222222222222222222222222222222222222
222222222222222222222222222222222222222222222222222222222222222222222222
222222222222222222222222222222222222222222222222222222222222222222222222
222222222222222222222222222222222222222222222222222222222222222222222222
222222222222222222222222222222222222222222222222222222222222222222222222
222222222222222222222222222222222222222222222222222222222222222222222222
222222222222222222222222222222222222222222222222222222222222222222222222
222222222222222222222222222222222222222222222222222222222222222222222222
222222222222222222222222222222222222222222222222222222222222222222222222
222222222222222222222222222222222222222222222222222222222222222222222222
222222222222222222222222222222222222222222222222222222222222222222222222
222222222222222222222222222222222222222222222222222222222222222222222222
222222222222222222222222222222222222222222222222222222222222222222222222
222222222222222222222222222222222222222222222222222222222222222222222222
222222222222222222222222222222222222222222222222222222222222222222222222
222222222222222222222222222222222222222222222222222222222222222222222222
222222222222222222222222222222222222222222222222222222222222222222222222
222222222222222222222222222222222222222222222222222222222222222222222222
222222222222222222
# atoms in fragment 1/2:   362  2896
 fragment masses (1/2) :     1685.21    13481.68
CMA distance (Bohr)    :  16.703
constraining FC (au)   :  0.0500

           -------------------------------------------------
          |                 G F N 2 - x T B                 |
           -------------------------------------------------

        Reference                      10.1021/acs.jctc.8b01176
      * Hamiltonian:
        H0-scaling (s, p, d)           1.850000    2.230000    2.230000
        zeta-weighting                 0.500000
      * Dispersion:
        s8                             2.700000
        a1                             0.520000
        a2                             5.000000
        s9                             5.000000
      * Repulsion:
        kExp                           1.500000    1.000000
        rExp                           1.000000
      * Coulomb:
        alpha                          2.000000
        third order                    shell-resolved
        anisotropic                    true
        a3                             3.000000
        a5                             4.000000
        cn-shift                       1.200000
        cn-exp                         4.000000
        max-rad                        5.000000


          ...................................................
          :                      SETUP                      :
          :.................................................:
          :  # basis functions                6498          :
          :  # atomic orbitals                6498          :
          :  # shells                         4338          :
          :  # electrons                      6498          :
          :  max. iterations                   250          :
          :  Hamiltonian                  GFN2-xTB          :
          :  restarted?                      false          :
          :  GBSA solvation                  false          :
          :  PC potential                    false          :
          :  electronic temp.          300.0000000     K    :
          :  accuracy                    1.0000000          :
          :  -> integral cutoff          0.2500000E+02      :
          :  -> integral neglect         0.1000000E-07      :
          :  -> SCF convergence          0.1000000E-05 Eh   :
          :  -> wf. convergence          0.1000000E-03 e    :
          :  Broyden damping             0.4000000          :
          ...................................................

 iter      E             dE          RMSdq      gap      omega  full diag
   1  -3473.3719239 -0.347337E+04  0.243E+00   11.38       0.0  T
   2  -3478.5077655 -0.513584E+01  0.134E+00   11.47       1.0  T
   3  -3478.7115938 -0.203828E+00  0.597E-01   11.44       1.0  T
   4  -3478.7320648 -0.204710E-01  0.752E-02   11.46       1.0  T
   5  -3478.7329733 -0.908585E-03  0.388E-02   11.47       1.0  T
   6  -3478.7331837 -0.210390E-03  0.636E-03   11.47       1.0  T
   7  -3478.7332001 -0.163892E-04  0.122E-03   11.47       1.4  T
   8  -3478.7332011 -0.101005E-05  0.377E-04   11.47       4.6  T
   9  -3478.7332012 -0.622554E-07  0.141E-04   11.47      12.5  T
  10  -3478.7332012 -0.374848E-08  0.413E-05   11.47      42.4  T

   *** convergence criteria satisfied after 10 iterations ***

         #    Occupation            Energy/Eh            Energy/eV
      -------------------------------------------------------------
         1        2.0000           -0.6253644             -17.0170
       ...           ...                  ...                  ...
      3243        2.0000           -0.4021946             -10.9443
      3244        2.0000           -0.4020515             -10.9404
      3245        2.0000           -0.4019374             -10.9373
      3246        2.0000           -0.4018629             -10.9352
      3247        2.0000           -0.4017332             -10.9317
      3248        2.0000           -0.4016092             -10.9283
      3249        2.0000           -0.3995578             -10.8725 (HOMO)
      3250                          0.0218285               0.5940 (LUMO)
      3251                          0.0221036               0.6015
      3252                          0.0229252               0.6238
      3253                          0.0237152               0.6453
      3254                          0.0245120               0.6670
       ...                                ...                  ...
      6498                          0.3828769              10.4186
      -------------------------------------------------------------
                  HL-Gap            0.4213863 Eh           11.4665 eV
             Fermi-level           -0.1888647 Eh           -5.1393 eV

 SCC (total)                   0 d,  0 h, 13 min, 58.223 sec
 SCC setup                      ...        0 min,  0.440 sec (  0.053%)
 Dispersion                     ...        0 min,  3.599 sec (  0.429%)
 classical contributions        ...        0 min,  0.123 sec (  0.015%)
 integral evaluation            ...        0 min,  5.929 sec (  0.707%)
 iterations                     ...       10 min, 21.774 sec ( 74.178%)
 molecular gradient             ...        3 min, 17.844 sec ( 23.603%)
 printout                       ...        0 min,  8.513 sec (  1.016%)

         :::::::::::::::::::::::::::::::::::::::::::::::::::::
         ::                     SUMMARY                     ::
         :::::::::::::::::::::::::::::::::::::::::::::::::::::
         :: total energy           -3427.501910712007 Eh    ::
         :: gradient norm              0.018253466526 Eh/a0 ::
         :: HOMO-LUMO gap             11.466503803432 eV    ::
         ::.................................................::
         :: SCC energy             -3478.733201204383 Eh    ::
         :: -> isotropic ES            0.421739375806 Eh    ::
         :: -> anisotropic ES          1.113347537116 Eh    ::
         :: -> anisotropic XC          1.948127813165 Eh    ::
         :: -> dispersion             -4.016991854024 Eh    ::
         :: repulsion energy          50.607045528522 Eh    ::
         :: add. restraining           0.000000000000 Eh    ::
         :: total charge              -0.000000000013 e     ::
         :::::::::::::::::::::::::::::::::::::::::::::::::::::

      ----------------------------------------------------------- 
     |              Fast Inertial Relaxation Engine              |
      ----------------------------------------------------------- 

          ...................................................
          :                      SETUP                      :
          :.................................................:
          :   energy convergence        0.5000000E-05 Eh    :
          :   grad. convergence         0.1000000E-02 Eh/a0 :
          :   optimization log               true           :
          :   writing optlog all                1     steps :
          :   Hessian reset                    20     steps :
          :   time step scaling                 5     steps :
          :   maximium step len.        1.0000000     a0    :
          :   initial time step         0.2500000     fs    :
          :   maximum time step         1.2500000     fs    :
          :   power reset thr           0.0000000     au    :
          :   alpha parameter           0.1000000           :
          :   BFGS update                   false           :
          :   preconditioning               false           :
          ...................................................

........................................................................
.............................. CYCLE    1 ..............................
........................................................................

 iter      E             dE          RMSdq      gap      omega  full diag
   1  -3478.7367058 -0.347874E+04  0.262E-04   11.47       0.0  T
   2  -3478.7367059 -0.280006E-07  0.150E-04   11.47      11.7  T
   3  -3478.7367059 -0.552063E-09  0.487E-05   11.47      36.0  T
     SCC iter.                  ...        3 min,  2.676 sec
     gradient                   ...        3 min, 18.305 sec
 * total energy  : -3427.5019482 Eh     change    :  -0.3748919E-04 Eh
   gradient norm :     0.0167775 Eh/a0  converged?    E=F G=F D=F
   time step     :     0.2500000 fs     power     :   0.1904606E-08
   step length   :     0.0021393 a0     speed     :   0.2069856E-03

........................................................................
.............................. CYCLE    2 ..............................
........................................................................

 iter      E             dE          RMSdq      gap      omega  full diag
   1  -3478.7418059 -0.347874E+04  0.379E-04   11.47       0.0  T
   2  -3478.7418059 -0.586042E-07  0.217E-04   11.47       8.1  T
   3  -3478.7418059 -0.126602E-08  0.703E-05   11.47      24.9  T
     SCC iter.                  ...        3 min,  4.055 sec
     gradient                   ...        3 min, 17.395 sec
 * total energy  : -3427.5019972 Eh     change    :  -0.4904640E-04 Eh
   gradient norm :     0.0146531 Eh/a0  converged?    E=F G=F D=F
   time step     :     0.2500000 fs     power     :   0.2425056E-08
   step length   :     0.0031222 a0     speed     :   0.3020933E-03

........................................................................
.............................. CYCLE    3 ..............................
........................................................................

 iter      E             dE          RMSdq      gap      omega  full diag
   1  -3478.7482761 -0.347875E+04  0.482E-04   11.47       0.0  T
   2  -3478.7482762 -0.943151E-07  0.276E-04   11.47       6.4  T
   3  -3478.7482762 -0.204318E-08  0.891E-05   11.47      19.7  T
     SCC iter.                  ...        3 min,  4.272 sec
     gradient                   ...        3 min, 17.412 sec
 * total energy  : -3427.5020502 Eh     change    :  -0.5292830E-04 Eh
   gradient norm :     0.0119989 Eh/a0  converged?    E=F G=F D=F
   time step     :     0.2500000 fs     power     :   0.2520989E-08
   step length   :     0.0039798 a0     speed     :   0.3850645E-03

........................................................................
.............................. CYCLE    4 ..............................
........................................................................

 iter      E             dE          RMSdq      gap      omega  full diag
   1  -3478.7558256 -0.347876E+04  0.565E-04   11.47       0.0  T
   2  -3478.7558257 -0.127843E-06  0.323E-04   11.47       5.4  T
   3  -3478.7558258 -0.284308E-08  0.104E-04   11.47      16.9  T
     SCC iter.                  ...        2 min, 57.977 sec
     gradient                   ...        3 min, 17.003 sec
 * total energy  : -3427.5020988 Eh     change    :  -0.4863711E-04 Eh
   gradient norm :     0.0090038 Eh/a0  converged?    E=F G=F D=F
   time step     :     0.2500000 fs     power     :   0.2189666E-08
   step length   :     0.0046784 a0     speed     :   0.4526566E-03

........................................................................
.............................. CYCLE    5 ..............................
........................................................................

 iter      E             dE          RMSdq      gap      omega  full diag
   1  -3478.7640962 -0.347876E+04  0.624E-04   11.47       0.0  T
   2  -3478.7640964 -0.152597E-06  0.357E-04   11.47       4.9  T
   3  -3478.7640964 -0.347472E-08  0.113E-04   11.47      15.6  T
     SCC iter.                  ...        2 min, 58.914 sec
     gradient                   ...        3 min, 16.425 sec
 * total energy  : -3427.5021361 Eh     change    :  -0.3728054E-04 Eh
   gradient norm :     0.0060190 Eh/a0  converged?    E=F G=F D=F
   time step     :     0.2500000 fs     power     :   0.1507336E-08
   step length   :     0.0051893 a0     speed     :   0.5020957E-03

........................................................................
.............................. CYCLE    6 ..............................
........................................................................

 iter      E             dE          RMSdq      gap      omega  full diag
   1  -3478.7735151 -0.347877E+04  0.722E-04   11.46       0.0  T
   2  -3478.7735153 -0.195689E-06  0.414E-04   11.46       4.2  T
   3  -3478.7735153 -0.454565E-08  0.126E-04   11.46      13.9  T
     SCC iter.                  ...        3 min,  0.722 sec
     gradient                   ...        3 min, 16.704 sec
 * total energy  : -3427.5021588 Eh     change    :  -0.2266137E-04 Eh
   gradient norm :     0.0039047 Eh/a0  converged?    E=F G=F D=F
   time step     :     0.2750000 fs     power     :   0.5330785E-09
   step length   :     0.0060587 a0     speed     :   0.5329208E-03

........................................................................
.............................. CYCLE    7 ..............................
........................................................................

 iter      E             dE          RMSdq      gap      omega  full diag
   1  -3478.7830517 -0.347878E+04  0.766E-04   11.46       0.0  T
   2  -3478.7830519 -0.195399E-06  0.440E-04   11.46       4.0  T
   3  -3478.7830519 -0.476439E-08  0.123E-04   11.46      14.2  T
     SCC iter.                  ...        3 min,  5.075 sec
     gradient                   ...        3 min, 18.586 sec
 * total energy  : -3427.5021616 Eh     change    :  -0.2849128E-05 Eh
   gradient norm :     0.0050131 Eh/a0  converged?    E=T G=F D=F
   time step     :     0.3025000 fs     power     :  -0.4054122E-09
   step length   :     0.0065289 a0     speed     :   0.5220692E-03

........................................................................
.............................. CYCLE    8 ..............................
........................................................................
 * reset velocities

 iter      E             dE          RMSdq      gap      omega  full diag
   1  -3478.7829302 -0.347878E+04  0.133E-05   11.46       0.0  T
   2  -3478.7829302 -0.116415E-09  0.713E-06   11.46     245.6  T
   3  -3478.7829302 -0.345608E-10  0.322E-06   11.46     544.8  T
     SCC iter.                  ...        2 min, 58.773 sec
     gradient                   ...        3 min, 17.044 sec
 * total energy  : -3427.5021621 Eh     change    :  -0.5370284E-06 Eh
   gradient norm :     0.0049515 Eh/a0  converged?    E=T G=F D=T
   time step     :     0.1512500 fs     power     :   0.4670783E-10
   step length   :     0.0001075 a0     speed     :   0.1719605E-04

........................................................................
.............................. CYCLE    9 ..............................
........................................................................

 iter      E             dE          RMSdq      gap      omega  full diag
   1  -3478.7826891 -0.347878E+04  0.265E-05   11.46       0.0  T
   2  -3478.7826891 -0.200544E-09  0.155E-05   11.46     113.4  T
   3  -3478.7826891  0.304681E-10  0.392E-06   11.46     446.7  T
     SCC iter.                  ...        3 min,  0.420 sec
     gradient                   ...        3 min, 18.646 sec
 * total energy  : -3427.5021632 Eh     change    :  -0.1045998E-05 Eh
   gradient norm :     0.0048372 Eh/a0  converged?    E=T G=F D=T
   time step     :     0.1512500 fs     power     :   0.9068647E-10
   step length   :     0.0002137 a0     speed     :   0.3418036E-04

........................................................................
.............................. CYCLE   10 ..............................
........................................................................

 iter      E             dE          RMSdq      gap      omega  full diag
   1  -3478.7823338 -0.347878E+04  0.389E-05   11.46       0.0  T
   2  -3478.7823338 -0.527962E-09  0.227E-05   11.46      77.3  T
   3  -3478.7823338  0.268301E-10  0.580E-06   11.46     302.2  T
     SCC iter.                  ...        2 min, 57.531 sec
     gradient                   ...        3 min, 18.356 sec
 * total energy  : -3427.5021647 Eh     change    :  -0.1505130E-05 Eh
   gradient norm :     0.0046707 Eh/a0  converged?    E=T G=F D=T
   time step     :     0.1512500 fs     power     :   0.1300185E-09
   step length   :     0.0003175 a0     speed     :   0.5077105E-04

........................................................................
.............................. CYCLE   11 ..............................
........................................................................

 iter      E             dE          RMSdq      gap      omega  full diag
   1  -3478.7818720 -0.347878E+04  0.510E-05   11.46       0.0  T
   2  -3478.7818720 -0.702130E-09  0.297E-05   11.46      59.0  T
   3  -3478.7818720 -0.227374E-10  0.756E-06   11.46     231.6  T
     SCC iter.                  ...        2 min, 59.777 sec
     gradient                   ...        3 min, 16.736 sec
 * total energy  : -3427.5021666 Eh     change    :  -0.1904711E-05 Eh
   gradient norm :     0.0044570 Eh/a0  converged?    E=T G=F D=T
   time step     :     0.1512500 fs     power     :   0.1630528E-09
   step length   :     0.0004176 a0     speed     :   0.6678478E-04

........................................................................
.............................. CYCLE   12 ..............................
........................................................................

 iter      E             dE          RMSdq      gap      omega  full diag
   1  -3478.7813146 -0.347878E+04  0.625E-05   11.46       0.0  T
   2  -3478.7813146 -0.988166E-09  0.364E-05   11.46      48.1  T
   3  -3478.7813146 -0.964064E-10  0.916E-06   11.46     191.3  T
     SCC iter.                  ...        3 min,  0.346 sec
     gradient                   ...        3 min, 17.070 sec
 * total energy  : -3427.5021688 Eh     change    :  -0.2208894E-05 Eh
   gradient norm :     0.0042033 Eh/a0  converged?    E=T G=F D=T
   time step     :     0.1512500 fs     power     :   0.1885634E-09
   step length   :     0.0005130 a0     speed     :   0.8204982E-04

........................................................................
.............................. CYCLE   13 ..............................
........................................................................

 iter      E             dE          RMSdq      gap      omega  full diag
   1  -3478.7806750 -0.347878E+04  0.729E-05   11.46       0.0  T
   2  -3478.7806750 -0.139471E-08  0.426E-05   11.46      41.2  T
   3  -3478.7806750  0.195541E-10  0.106E-05   11.46     165.9  T
     SCC iter.                  ...        2 min, 54.849 sec
     gradient                   ...        3 min, 16.287 sec
 * total energy  : -3427.5021712 Eh     change    :  -0.2437832E-05 Eh
   gradient norm :     0.0039193 Eh/a0  converged?    E=T G=F D=T
   time step     :     0.1512500 fs     power     :   0.2058535E-09
   step length   :     0.0006028 a0     speed     :   0.9641026E-04

........................................................................
.............................. CYCLE   14 ..............................
........................................................................

 iter      E             dE          RMSdq      gap      omega  full diag
   1  -3478.7798913 -0.347878E+04  0.917E-05   11.46       0.0  T
   2  -3478.7798913 -0.210230E-08  0.536E-05   11.46      32.7  T
   3  -3478.7798913 -0.595719E-10  0.131E-05   11.46     134.1  T
     SCC iter.                  ...        2 min, 57.598 sec
     gradient                   ...        3 min, 16.570 sec
 * total energy  : -3427.5021741 Eh     change    :  -0.2843467E-05 Eh
   gradient norm :     0.0035843 Eh/a0  converged?    E=T G=F D=T
   time step     :     0.1663750 fs     power     :   0.2151906E-09
   step length   :     0.0007639 a0     speed     :   0.1110668E-03

........................................................................
.............................. CYCLE   15 ..............................
........................................................................

 iter      E             dE          RMSdq      gap      omega  full diag
   1  -3478.7789628 -0.347878E+04  0.113E-04   11.46       0.0  T
   2  -3478.7789628 -0.306181E-08  0.661E-05   11.46      26.5  T
   3  -3478.7789628 -0.336513E-10  0.157E-05   11.46     111.9  T
     SCC iter.                  ...        2 min, 59.127 sec
     gradient                   ...        3 min, 17.231 sec
 * total energy  : -3427.5021773 Eh     change    :  -0.3167534E-05 Eh
   gradient norm :     0.0032135 Eh/a0  converged?    E=T G=F D=T
   time step     :     0.1830125 fs     power     :   0.2144722E-09
   step length   :     0.0009506 a0     speed     :   0.1256422E-03

........................................................................
.............................. CYCLE   16 ..............................
........................................................................

 iter      E             dE          RMSdq      gap      omega  full diag
   1  -3478.7779080 -0.347878E+04  0.136E-04   11.46       0.0  T
   2  -3478.7779080 -0.409818E-08  0.797E-05   11.46      22.0  T
   3  -3478.7779080 -0.668479E-10  0.181E-05   11.46      96.8  T
     SCC iter.                  ...        2 min, 57.990 sec
     gradient                   ...        3 min, 16.454 sec
 * total energy  : -3427.5021806 Eh     change    :  -0.3362417E-05 Eh
   gradient norm :     0.0028431 Eh/a0  converged?    E=T G=F D=F
   time step     :     0.2013138 fs     power     :   0.2027426E-09
   step length   :     0.0011620 a0     speed     :   0.1396215E-03

........................................................................
.............................. CYCLE   17 ..............................
........................................................................

 iter      E             dE          RMSdq      gap      omega  full diag
   1  -3478.7767798 -0.347878E+04  0.160E-04   11.46       0.0  T
   2  -3478.7767798 -0.522004E-08  0.938E-05   11.46      18.7  T
   3  -3478.7767798 -0.141426E-09  0.199E-05   11.46      87.9  T
     SCC iter.                  ...        2 min, 58.759 sec
     gradient                   ...        3 min, 17.540 sec
 * total energy  : -3427.5021840 Eh     change    :  -0.3395336E-05 Eh
   gradient norm :     0.0025394 Eh/a0  converged?    E=T G=F D=F
   time step     :     0.2214451 fs     power     :   0.1814947E-09
   step length   :     0.0013945 a0     speed     :   0.1523197E-03

........................................................................
.............................. CYCLE   18 ..............................
........................................................................

 iter      E             dE          RMSdq      gap      omega  full diag
   1  -3478.7756824 -0.347878E+04  0.182E-04   11.46       0.0  T
   2  -3478.7756824 -0.559385E-08  0.107E-04   11.46      16.4  T
   3  -3478.7756824 -0.239652E-09  0.205E-05   11.46      85.5  T
     SCC iter.                  ...        2 min, 57.091 sec
     gradient                   ...        3 min, 16.220 sec
 * total energy  : -3427.5021873 Eh     change    :  -0.3307498E-05 Eh
   gradient norm :     0.0023848 Eh/a0  converged?    E=T G=F D=F
   time step     :     0.2435896 fs     power     :   0.1560140E-09
   step length   :     0.0016403 a0     speed     :   0.1628803E-03

........................................................................
.............................. CYCLE   19 ..............................
........................................................................

 iter      E             dE          RMSdq      gap      omega  full diag
   1  -3478.7747793 -0.347877E+04  0.201E-04   11.46       0.0  T
   2  -3478.7747793 -0.534601E-08  0.118E-04   11.46      14.8  T
   3  -3478.7747793 -0.101409E-09  0.191E-05   11.46      91.5  T
     SCC iter.                  ...        2 min, 59.721 sec
     gradient                   ...        3 min, 19.022 sec
 * total energy  : -3427.5021905 Eh     change    :  -0.3191875E-05 Eh
   gradient norm :     0.0024083 Eh/a0  converged?    E=T G=F D=F
   time step     :     0.2679486 fs     power     :   0.1351125E-09
   step length   :     0.0018895 a0     speed     :   0.1705687E-03

........................................................................
.............................. CYCLE   20 ..............................
........................................................................

 iter      E             dE          RMSdq      gap      omega  full diag
   1  -3478.7742714 -0.347877E+04  0.216E-04   11.46       0.0  T
   2  -3478.7742714 -0.401405E-08  0.127E-04   11.46      13.7  T
   3  -3478.7742714 -0.231921E-10  0.163E-05   11.46     107.6  T
     SCC iter.                  ...        2 min, 59.838 sec
     gradient                   ...        3 min, 18.435 sec
 * total energy  : -3427.5021938 Eh     change    :  -0.3238347E-05 Eh
   gradient norm :     0.0025246 Eh/a0  converged?    E=T G=F D=F
   time step     :     0.2947435 fs     power     :   0.1270339E-09
   step length   :     0.0021408 a0     speed     :   0.1756859E-03
 * RMSD in coord.:     0.0005445 a0     energy gain  -0.2830381E-03 Eh

........................................................................
.............................. CYCLE   21 ..............................
........................................................................

 iter      E             dE          RMSdq      gap      omega  full diag
   1  -3478.7743024 -0.347877E+04  0.175E-04   11.46       0.0  T
   2  -3478.7743024 -0.158479E-08  0.103E-04   11.46      16.9  T
   3  -3478.7743024  0.864020E-11  0.106E-05   11.46     165.9  T
     SCC iter.                  ...        2 min, 54.655 sec
     gradient                   ...        3 min, 17.644 sec
 * total energy  : -3427.5021965 Eh     change    :  -0.2759070E-05 Eh
   gradient norm :     0.0025739 Eh/a0  converged?    E=T G=F D=F
   time step     :     0.2500000 fs     power     :   0.1354608E-09
   step length   :     0.0018280 a0     speed     :   0.1768658E-03

........................................................................
.............................. CYCLE   22 ..............................
........................................................................

 iter      E             dE          RMSdq      gap      omega  full diag
   1  -3478.7747873 -0.347877E+04  0.171E-04   11.46       0.0  T
   2  -3478.7747873 -0.117279E-08  0.100E-04   11.46      17.5  T
   3  -3478.7747873 -0.268301E-10  0.102E-05   11.46     171.9  T
     SCC iter.                  ...        3 min,  1.413 sec
     gradient                   ...        3 min, 18.456 sec
 * total energy  : -3427.5021995 Eh     change    :  -0.2963454E-05 Eh
   gradient norm :     0.0025075 Eh/a0  converged?    E=T G=F D=F
   time step     :     0.2500000 fs     power     :   0.1486541E-09
   step length   :     0.0018475 a0     speed     :   0.1787577E-03

........................................................................
.............................. CYCLE   23 ..............................
........................................................................

 iter      E             dE          RMSdq      gap      omega  full diag
   1  -3478.7756851 -0.347878E+04  0.170E-04   11.46       0.0  T
   2  -3478.7756851 -0.156206E-08  0.993E-05   11.46      17.6  T
   3  -3478.7756851 -0.745786E-10  0.112E-05   11.46     155.8  T
     SCC iter.                  ...        2 min, 57.641 sec
     gradient                   ...        3 min, 18.879 sec
 * total energy  : -3427.5022026 Eh     change    :  -0.3163419E-05 Eh
   gradient norm :     0.0023125 Eh/a0  converged?    E=T G=F D=F
   time step     :     0.2500000 fs     power     :   0.1582380E-09
   step length   :     0.0018819 a0     speed     :   0.1820869E-03

........................................................................
.............................. CYCLE   24 ..............................
........................................................................

 iter      E             dE          RMSdq      gap      omega  full diag
   1  -3478.7769298 -0.347878E+04  0.174E-04   11.46       0.0  T
   2  -3478.7769298 -0.246609E-08  0.100E-04   11.46      17.4  T
   3  -3478.7769298 -0.218279E-10  0.132E-05   11.46     133.1  T
     SCC iter.                  ...        2 min, 56.949 sec
     gradient                   ...        3 min, 17.173 sec
 * total energy  : -3427.5022058 Eh     change    :  -0.3200595E-05 Eh
   gradient norm :     0.0020105 Eh/a0  converged?    E=T G=F D=F
   time step     :     0.2500000 fs     power     :   0.1578927E-09
   step length   :     0.0019299 a0     speed     :   0.1867329E-03

........................................................................
.............................. CYCLE   25 ..............................
........................................................................

 iter      E             dE          RMSdq      gap      omega  full diag
   1  -3478.7784310 -0.347878E+04  0.178E-04   11.46       0.0  T
   2  -3478.7784310 -0.348882E-08  0.102E-04   11.46      17.1  T
   3  -3478.7784310 -0.313776E-10  0.154E-05   11.46     113.9  T
     SCC iter.                  ...        3 min,  4.688 sec
     gradient                   ...        3 min, 17.949 sec
 * total energy  : -3427.5022088 Eh     change    :  -0.3011164E-05 Eh
   gradient norm :     0.0016596 Eh/a0  converged?    E=T G=F D=F
   time step     :     0.2500000 fs     power     :   0.1450562E-09
   step length   :     0.0019853 a0     speed     :   0.1920872E-03

........................................................................
.............................. CYCLE   26 ..............................
........................................................................

 iter      E             dE          RMSdq      gap      omega  full diag
   1  -3478.7802390 -0.347878E+04  0.198E-04   11.46       0.0  T
   2  -3478.7802390 -0.527871E-08  0.114E-04   11.46      15.4  T
   3  -3478.7802390 -0.106866E-09  0.189E-05   11.46      92.6  T
     SCC iter.                  ...        2 min, 57.546 sec
     gradient                   ...        3 min, 16.849 sec
 * total energy  : -3427.5022117 Eh     change    :  -0.2862113E-05 Eh
   gradient norm :     0.0013468 Eh/a0  converged?    E=T G=F D=F
   time step     :     0.2750000 fs     power     :   0.1189716E-09
   step length   :     0.0022520 a0     speed     :   0.1980857E-03

........................................................................
.............................. CYCLE   27 ..............................
........................................................................

 iter      E             dE          RMSdq      gap      omega  full diag
   1  -3478.7821597 -0.347878E+04  0.212E-04   11.46       0.0  T
   2  -3478.7821597 -0.612590E-08  0.122E-04   11.46      14.4  T
   3  -3478.7821597 -0.184627E-09  0.203E-05   11.46      86.3  T
     SCC iter.                  ...        2 min, 58.518 sec
     gradient                   ...        3 min, 17.678 sec
 * total energy  : -3427.5022142 Eh     change    :  -0.2457995E-05 Eh
   gradient norm :     0.0012899 Eh/a0  converged?    E=T G=F D=F
   time step     :     0.3025000 fs     power     :   0.8728062E-10
   step length   :     0.0025340 a0     speed     :   0.2026260E-03

........................................................................
.............................. CYCLE   28 ..............................
........................................................................

 iter      E             dE          RMSdq      gap      omega  full diag
   1  -3478.7838387 -0.347878E+04  0.211E-04   11.46       0.0  T
   2  -3478.7838387 -0.488399E-08  0.121E-04   11.46      14.4  T
   3  -3478.7838387 -0.121418E-09  0.175E-05   11.46     100.2  T
     SCC iter.                  ...        2 min, 55.846 sec
     gradient                   ...        3 min, 17.200 sec
 * total energy  : -3427.5022162 Eh     change    :  -0.2077622E-05 Eh
   gradient norm :     0.0015038 Eh/a0  converged?    E=T G=F D=F
   time step     :     0.3327500 fs     power     :   0.6623163E-10
   step length   :     0.0027808 a0     speed     :   0.2021495E-03

........................................................................
.............................. CYCLE   29 ..............................
........................................................................

 iter      E             dE          RMSdq      gap      omega  full diag
   1  -3478.7849446 -0.347878E+04  0.199E-04   11.46       0.0  T
   2  -3478.7849446 -0.239470E-08  0.115E-04   11.46      15.3  T
   3  -3478.7849446 -0.210093E-09  0.119E-05   11.46     147.3  T
     SCC iter.                  ...        2 min, 56.835 sec
     gradient                   ...        3 min, 17.557 sec
 * total energy  : -3427.5022183 Eh     change    :  -0.2084752E-05 Eh
   gradient norm :     0.0017147 Eh/a0  converged?    E=T G=F D=F
   time step     :     0.3660250 fs     power     :   0.6495355E-10
   step length   :     0.0029884 a0     speed     :   0.1974921E-03

........................................................................
.............................. CYCLE   30 ..............................
........................................................................

 iter      E             dE          RMSdq      gap      omega  full diag
   1  -3478.7852606 -0.347879E+04  0.187E-04   11.46       0.0  T
   2  -3478.7852606 -0.103864E-08  0.109E-04   11.46      16.1  T
   3  -3478.7852606 -0.713953E-10  0.856E-06   11.46     204.6  T
     SCC iter.                  ...        3 min,  6.291 sec
     gradient                   ...        3 min, 18.030 sec
 * total energy  : -3427.5022209 Eh     change    :  -0.2548858E-05 Eh
   gradient norm :     0.0017270 Eh/a0  converged?    E=T G=F D=F
   time step     :     0.4026275 fs     power     :   0.7672979E-10
   step length   :     0.0032187 a0     speed     :   0.1933696E-03

........................................................................
.............................. CYCLE   31 ..............................
........................................................................

 iter      E             dE          RMSdq      gap      omega  full diag
   1  -3478.7846932 -0.347878E+04  0.187E-04   11.46       0.0  T
   2  -3478.7846932 -0.231375E-08  0.110E-04   11.46      15.9  T
   3  -3478.7846932 -0.165983E-09  0.111E-05   11.46     158.4  T
     SCC iter.                  ...        2 min, 57.847 sec
     gradient                   ...        3 min, 16.417 sec
 * total energy  : -3427.5022241 Eh     change    :  -0.3188107E-05 Eh
   gradient norm :     0.0015048 Eh/a0  converged?    E=T G=F D=F
   time step     :     0.4428903 fs     power     :   0.8567061E-10
   step length   :     0.0035283 a0     speed     :   0.1926997E-03

........................................................................
.............................. CYCLE   32 ..............................
........................................................................

 iter      E             dE          RMSdq      gap      omega  full diag
   1  -3478.7833557 -0.347878E+04  0.198E-04   11.46       0.0  T
   2  -3478.7833558 -0.581940E-08  0.117E-04   11.46      15.0  T
   3  -3478.7833558 -0.179170E-09  0.185E-05   11.46      94.6  T
     SCC iter.                  ...        3 min,  0.258 sec
     gradient                   ...        3 min, 17.906 sec
 * total energy  : -3427.5022275 Eh     change    :  -0.3411718E-05 Eh
   gradient norm :     0.0012389 Eh/a0  converged?    E=T G=F D=F
   time step     :     0.4871793 fs     power     :   0.7922342E-10
   step length   :     0.0039373 a0     speed     :   0.1954899E-03

........................................................................
.............................. CYCLE   33 ..............................
........................................................................

 iter      E             dE          RMSdq      gap      omega  full diag
   1  -3478.7817726 -0.347878E+04  0.198E-04   11.46       0.0  T
   2  -3478.7817726 -0.736691E-08  0.117E-04   11.46      14.9  T
   3  -3478.7817726 -0.203272E-09  0.217E-05   11.46      80.6  T
     SCC iter.                  ...        2 min, 56.771 sec
     gradient                   ...        3 min, 18.010 sec
 * total energy  : -3427.5022307 Eh     change    :  -0.3230370E-05 Eh
   gradient norm :     0.0013145 Eh/a0  converged?    E=T G=F D=F
   time step     :     0.5358972 fs     power     :   0.6503322E-10
   step length   :     0.0044069 a0     speed     :   0.1989140E-03

........................................................................
.............................. CYCLE   34 ..............................
........................................................................

 iter      E             dE          RMSdq      gap      omega  full diag
   1  -3478.7808463 -0.347878E+04  0.179E-04   11.46       0.0  T
   2  -3478.7808463 -0.337150E-08  0.106E-04   11.46      16.5  T
   3  -3478.7808463 -0.112777E-09  0.123E-05   11.46     142.9  T
     SCC iter.                  ...        2 min, 57.165 sec
     gradient                   ...        3 min, 15.992 sec
 * total energy  : -3427.5022341 Eh     change    :  -0.3382497E-05 Eh
   gradient norm :     0.0015378 Eh/a0  converged?    E=T G=F D=F
   time step     :     0.5894869 fs     power     :   0.6704315E-10
   step length   :     0.0048603 a0     speed     :   0.1994365E-03

........................................................................
.............................. CYCLE   35 ..............................
........................................................................

 iter      E             dE          RMSdq      gap      omega  full diag
   1  -3478.7812449 -0.347878E+04  0.189E-04   11.46       0.0  T
   2  -3478.7812450 -0.940418E-09  0.111E-04   11.46      15.8  T
   3  -3478.7812450 -0.786713E-10  0.685E-06   11.46     255.8  T
     SCC iter.                  ...        3 min,  0.975 sec
     gradient                   ...        3 min, 17.285 sec
 * total energy  : -3427.5022385 Eh     change    :  -0.4361845E-05 Eh
   gradient norm :     0.0014503 Eh/a0  converged?    E=T G=F D=F
   time step     :     0.6484356 fs     power     :   0.8330102E-10
   step length   :     0.0053885 a0     speed     :   0.2010089E-03

........................................................................
.............................. CYCLE   36 ..............................
........................................................................

 iter      E             dE          RMSdq      gap      omega  full diag
   1  -3478.7831040 -0.347878E+04  0.248E-04   11.46       0.0  T
   2  -3478.7831040 -0.704222E-08  0.143E-04   11.46      12.2  T
   3  -3478.7831040 -0.205546E-09  0.215E-05   11.46      81.6  T
     SCC iter.                  ...        2 min, 57.070 sec
     gradient                   ...        3 min, 16.519 sec
 * total energy  : -3427.5022437 Eh     change    :  -0.5218967E-05 Eh
   gradient norm :     0.0011095 Eh/a0  converged?    E=F G=F D=F
   time step     :     0.7132792 fs     power     :   0.8521319E-10
   step length   :     0.0061213 a0     speed     :   0.2075850E-03

........................................................................
.............................. CYCLE   37 ..............................
........................................................................

 iter      E             dE          RMSdq      gap      omega  full diag
   1  -3478.7855121 -0.347879E+04  0.280E-04   11.46       0.0  T
   2  -3478.7855121 -0.125106E-07  0.163E-04   11.46      10.8  T
   3  -3478.7855121 -0.293312E-09  0.298E-05   11.46      58.7  T
     SCC iter.                  ...        2 min, 55.192 sec
     gradient                   ...        3 min, 15.538 sec
 * total energy  : -3427.5022488 Eh     change    :  -0.5108674E-05 Eh
   gradient norm :     0.0012141 Eh/a0  converged?    E=F G=F D=F
   time step     :     0.7846071 fs     power     :   0.7049442E-10
   step length   :     0.0070292 a0     speed     :   0.2167050E-03

........................................................................
.............................. CYCLE   38 ..............................
........................................................................

 iter      E             dE          RMSdq      gap      omega  full diag
   1  -3478.7865561 -0.347879E+04  0.246E-04   11.46       0.0  T
   2  -3478.7865561 -0.557429E-08  0.145E-04   11.46      12.1  T
   3  -3478.7865561 -0.221917E-09  0.207E-05   11.46      84.5  T
     SCC iter.                  ...        2 min, 57.832 sec
     gradient                   ...        3 min, 16.492 sec
 * total energy  : -3427.5022543 Eh     change    :  -0.5519389E-05 Eh
   gradient norm :     0.0013253 Eh/a0  converged?    E=F G=F D=F
   time step     :     0.8630678 fs     power     :   0.7661306E-10
   step length   :     0.0079096 a0     speed     :   0.2216797E-03

........................................................................
.............................. CYCLE   39 ..............................
........................................................................

 iter      E             dE          RMSdq      gap      omega  full diag
   1  -3478.7854733 -0.347879E+04  0.272E-04   11.46       0.0  T
   2  -3478.7854733 -0.883028E-08  0.159E-04   11.46      11.1  T
   3  -3478.7854733 -0.302862E-09  0.271E-05   11.46      64.6  T
     SCC iter.                  ...        3 min,  0.642 sec
     gradient                   ...        3 min, 17.149 sec
 * total energy  : -3427.5022610 Eh     change    :  -0.6671099E-05 Eh
   gradient norm :     0.0010438 Eh/a0  converged?    E=F G=F D=F
   time step     :     0.9493746 fs     power     :   0.8146166E-10
   step length   :     0.0089865 a0     speed     :   0.2289644E-03

........................................................................
.............................. CYCLE   40 ..............................
........................................................................

 iter      E             dE          RMSdq      gap      omega  full diag
   1  -3478.7839257 -0.347878E+04  0.297E-04   11.46       0.0  T
   2  -3478.7839257 -0.983937E-08  0.173E-04   11.46      10.1  T
   3  -3478.7839257 -0.294676E-09  0.253E-05   11.46      69.2  T
     SCC iter.                  ...        2 min, 57.023 sec
     gradient                   ...        3 min, 17.164 sec
 * total energy  : -3427.5022678 Eh     change    :  -0.6807382E-05 Eh
   gradient norm :     0.0012615 Eh/a0  converged?    E=F G=F D=F
   time step     :     1.0443120 fs     power     :   0.7310135E-10
   step length   :     0.0103339 a0     speed     :   0.2393587E-03

........................................................................
.............................. CYCLE   41 ..............................
........................................................................

 iter      E             dE          RMSdq      gap      omega  full diag
   1  -3478.7849022 -0.347878E+04  0.305E-04   11.46       0.0  T
   2  -3478.7849022 -0.461250E-08  0.178E-04   11.46       9.9  T
   3  -3478.7849022 -0.276032E-09  0.134E-05   11.46     130.7  T
     SCC iter.                  ...        3 min,  0.223 sec
     gradient                   ...        3 min, 17.287 sec
 * total energy  : -3427.5022761 Eh     change    :  -0.8356721E-05 Eh
   gradient norm :     0.0011239 Eh/a0  converged?    E=F G=F D=F
   time step     :     1.1487432 fs     power     :   0.8835445E-10
   step length   :     0.0117331 a0     speed     :   0.2470620E-03

........................................................................
.............................. CYCLE   42 ..............................
........................................................................

 iter      E             dE          RMSdq      gap      omega  full diag
   1  -3478.7873284 -0.347879E+04  0.374E-04   11.46       0.0  T
   2  -3478.7873284 -0.183554E-07  0.218E-04   11.46       8.0  T
   3  -3478.7873284 -0.622094E-09  0.329E-05   11.46      53.3  T
     SCC iter.                  ...        2 min, 57.499 sec
     gradient                   ...        3 min, 16.943 sec
 * total energy  : -3427.5022854 Eh     change    :  -0.9269893E-05 Eh
   gradient norm :     0.0011895 Eh/a0  converged?    E=F G=F D=F
   time step     :     1.2500000 fs     power     :   0.8249972E-10
   step length   :     0.0134514 a0     speed     :   0.2602994E-03
 * RMSD in coord.:     0.0017091 a0     energy gain  -0.9165570E-04 Eh

........................................................................
.............................. CYCLE   43 ..............................
........................................................................

 iter      E             dE          RMSdq      gap      omega  full diag
   1  -3478.7873685 -0.347879E+04  0.578E-05   11.46       0.0  T
   2  -3478.7873685 -0.158252E-09  0.340E-05   11.46      51.5  T
   3  -3478.7873685  0.104592E-10  0.207E-06   11.46     845.8  T
     SCC iter.                  ...        3 min,  3.722 sec
     gradient                   ...        3 min, 16.673 sec
 * total energy  : -3427.5022872 Eh     change    :  -0.1785907E-05 Eh
   gradient norm :     0.0012056 Eh/a0  converged?    E=T G=F D=F
   time step     :     0.2500000 fs     power     :   0.9314605E-10
   step length   :     0.0026027 a0     speed     :   0.2518229E-03

........................................................................
.............................. CYCLE   44 ..............................
........................................................................

 iter      E             dE          RMSdq      gap      omega  full diag
   1  -3478.7870076 -0.347879E+04  0.584E-05   11.47       0.0  T
   2  -3478.7870076 -0.344698E-09  0.341E-05   11.47      51.4  T
   3  -3478.7870076 -0.272848E-10  0.455E-06   11.47     385.2  T
     SCC iter.                  ...        2 min, 57.842 sec
     gradient                   ...        3 min, 17.082 sec
 * total energy  : -3427.5022891 Eh     change    :  -0.1941216E-05 Eh
   gradient norm :     0.0011167 Eh/a0  converged?    E=T G=F D=F
   time step     :     0.2500000 fs     power     :   0.1016217E-09
   step length   :     0.0025423 a0     speed     :   0.2459839E-03

........................................................................
.............................. CYCLE   45 ..............................
........................................................................

 iter      E             dE          RMSdq      gap      omega  full diag
   1  -3478.7863409 -0.347879E+04  0.692E-05   11.47       0.0  T
   2  -3478.7863409 -0.884938E-09  0.402E-05   11.47      43.6  T
   3  -3478.7863409 -0.118234E-10  0.808E-06   11.47     216.9  T
     SCC iter.                  ...        2 min, 59.424 sec
     gradient                   ...        3 min, 17.038 sec
 * total energy  : -3427.5022911 Eh     change    :  -0.2004143E-05 Eh
   gradient norm :     0.0009798 Eh/a0  converged?    E=T G=T D=F
   time step     :     0.2500000 fs     power     :   0.1036729E-09
   step length   :     0.0025148 a0     speed     :   0.2433186E-03

   *** GEOMETRY OPTIMIZATION CONVERGED AFTER 45 CYCLES ***

------------------------------------------------------------------------
 total energy gain   :        -0.0003804 Eh       -0.2387 kcal/mol
 total RMSD          :         0.0020593 a0        0.0011 Å
 total power (kW/mol):        -0.0221957 (step)   -0.0001 (real)
------------------------------------------------------------------------

 FIRE (total)                  0 d,  4 h, 56 min, 22.812 sec
 setup                          ...        0 min,  0.117 sec (  0.001%)
 velocities                     ...        0 min,  0.003 sec (  0.000%)
 propagation                    ...        0 min,  0.005 sec (  0.000%)
 singlepoint calculation        ...      296 min, 21.943 sec ( 99.995%)
 log and printout               ...        0 min,  0.683 sec (  0.004%)
 preconditioner                 ...        0 min,  0.000 sec (  0.000%)
 model hessian                  ...        0 min,  0.000 sec (  0.000%)
 hessian update                 ...        0 min,  0.000 sec (  0.000%)

================
 final structure:
================
3258
 xtb: 6.6.1 (8d0f1dd)
C          101.21633017712330       95.51348196552520      109.53053229104880
C          101.19500999390496       96.91263907461294      110.13300750486906
C           99.77904034133324       97.47833834259238      110.21289838130799
C           99.75654324028309       98.89415627224712      110.78204351108691
C           98.34693402480298       99.47855773344683      110.83085165173826
C           98.34646078230891      100.91644203388695      111.34231948051215
C           96.95190021314333      101.53739741732495      111.34153607079217
C           96.98511248303620      103.00116787927115      111.77309114888074
C           95.61433545730122      103.66721501556924      111.68773692535279
C           95.68764208804824      105.16525716592042      111.97612693052838
C           94.35276403143695      105.86030282234728      111.71850467557329
C           94.32347094510195      107.31167186033068      112.19608603945721
C           95.25053573345997      108.24331391876470      111.41785872508254
C           95.14901403522758      109.67032198437599      111.94855502519152
C           96.04175297468093      110.66203328438503      111.20677376836559
C           95.96664439066075      112.04172241608509      111.85628616374454
C           96.81068850030037      113.11374192542286      111.17115992250642
C           98.31079522044813      112.83056126990630      111.21896463529016
C           99.11871591789111      114.06563699864367      110.83363163580611
C          100.62665588808585      113.82763734706278      110.76860769619753
C          101.02977208703639      112.80558800087796      109.70452505446805
C          102.46478599707969      112.98402189412997      109.21343610730813
C          103.52234822805295      112.74977717254907      110.28813296803229
C          104.94178372495503      112.93504774287405      109.74824554658153
C          105.39413016001093      111.80612381553419      108.82586475871521
C          106.80699064228251      112.03237357088578      108.29392361707370
C          107.27354408790097      110.87927870402825      107.41031588441049
C          108.71952008580828      111.04103212477733      106.94836759167947
C          109.18433223814453      109.82345711552577      106.15603261125079
C          110.66597281177253      109.85605270522730      105.78284689817384
C          111.08335828144352      108.51925643281382      105.17722063322520
C          112.55947529248955      108.41950057161675      104.80221466638791
C          112.96264462623948      106.98437132873116      104.45351679245853
C          112.26890297718012      106.44762860070917      103.20383432227007
C          112.49841037619090      104.95280563404016      102.99946819681669
C          111.71916450486825      104.43165552991911      101.79405890520889
C          111.79529458049515      102.91428773072190      101.65735736507048
C          110.87720321985893      102.38302742796579      100.55894972518200
C          110.94063362018721      100.86195779426380      100.45908156687220
C          110.04264339204597      100.30960904235788       99.35540723208318
C          109.98269456377353       98.78188816361055       99.35145934419718
C          111.29138802809113       98.12242740518586       98.92326467011806
C          111.21610112160057       96.60139890844283       99.02380927147813
C          112.53173278695044       95.93020376666128       98.63804764130374
C          112.50367879873208       94.42687718702399       98.89840659175246
C          113.84344929530658       93.75904869261346       98.60147248074891
C          113.87040995979829       92.31393234776790       99.09130830063567
C          115.22776859111713       91.65585641744143       98.86018616887637
C          115.28149783455854       90.19913033035856       99.32525409687240
C          115.00687062473594       89.98873200777582      100.81572188111362
C          116.02055218084526       90.67726860788041      101.72621860764525
C          115.71150570447001       90.43866265470197      103.20212236206267
C          116.75707773568313       91.08025978548316      104.11185271601768
C          116.47172574179034       90.87175241001808      105.60052693567594
C          115.32687480316858       91.74354615788529      106.11110226763958
C          114.97612396403865       91.48700677711226      107.57619060816492
C          116.13014334896866       91.77609740012676      108.53640065669551
C          115.65944819530874       92.02243359445329      109.97345548115463
C          115.12404769799819       93.44016957663246      110.15650943637890
C          114.59475701082046       93.71578291759187      111.56169394029354
C          114.22143458396746       95.18799934250464      111.71996941815178
C          113.49857152939326       95.48271862300027      113.02953159903697
C          113.22061463857351       96.97255888110463      113.23198443485494
C          112.30325177487204       97.57670224040497      112.16972832232071
C          111.85312510138790       98.98883835367592      112.54134259321388
C          111.06471835683155       99.64435973453948      111.40974641264016
C          110.53865327848000      101.03983050413989      111.75094404539487
C          109.40067068728385      101.01714094530546      112.77053234053294
C          108.65934834411834      102.35125131124812      112.85194356741081
C          107.42916658244373      102.25377773941172      113.75290795542720
C          106.51916352921704      103.48011501710286      113.66958654680066
C          105.15589646926107      103.19908285970070      114.29858731068788
C          104.15246456868576      104.33510780411055      114.11829250382932
C          102.74488270493454      103.89976812700117      114.52146998202792
C          101.69969003348271      104.99416164525806      114.31547277104745
C          100.28066944138521      104.46331570488324      114.51529848553604
C           99.19484434475693      105.50510312820447      114.24312438971717
C           99.02898908919066      106.53076092060996      115.36151543741384
C           97.95960052933536      107.56458225667127      115.01634866421399
C           97.74042610625095      108.58014428966824      116.13580097642732
C           96.81354244608357      109.71383339021492      115.69946570360889
C           96.50858169130142      110.68367017654597      116.84070744627167
C           95.93770647279584      112.02173808429497      116.36850518398140
C           94.54175286651738      111.93018913503093      115.75554993963861
C           94.07859275054865      113.29508071625055      115.24592176524419
C           92.61733792908291      113.32611746745086      114.79645301011398
C           92.31062931279982      112.34349145084403      113.66837939811671
C           90.91829480549232      112.56287013331347      113.07819484855321
C           90.45281858305286      111.40210055144946      112.19810871175399
C           91.29101848069003      111.20557485012996      110.93657740468602
C           90.80150139207905      110.00720798606514      110.12662499995574
C           91.66274262461758      109.73112059119629      108.89601863207695
C           91.12034363560062      108.54572930983412      108.10019051689541
C           91.96326920673357      108.17421676586390      106.88019313134942
C           92.02355229155428      109.28005603856842      105.82778216975721
C           92.57329056638552      108.77474413240779      104.49581512663958
C           92.64748541597622      109.88953009451920      103.45481758234979
C           93.02733965393169      109.36880563518716      102.06992391805673
C           93.07335586986167      110.47165739864707      101.01101456001130
C           94.27374402715188      111.40252393537106      101.16415703388776
C           94.26914088362048      112.51758548219469      100.12272152114799
C           95.51430210465954      113.39625168594307      100.20966741578258
C           95.47137919792479      114.53640812184068       99.19757416004025
C           96.75380882268965      115.36519220467109       99.17534490817529
C           96.66903197485523      116.46390097130896       98.11782567096847
C           98.00364302097721      117.13825566334422       97.80468782410938
C           98.51429593399762      118.08838459775185       98.88659459789385
C           99.72493110856513      118.86574786875236       98.37262657766645
C          100.22722016096711      119.94452867843495       99.32962690227211
C          101.29496971780897      120.80025660578556       98.65021378426306
C          101.89687848893698      121.88648234937624       99.54014815151113
C          100.86805016018296      122.88958481420852      100.06736631026173
C          101.53052246862609      124.21104803968191      100.45644826016252
C          100.62015813688008      125.15638500944803      101.24250696463875
C          100.38574390970378      124.69580767258830      102.68090038933168
C           99.79461046506245      125.79557818400099      103.56023522937095
C           99.68643567517393      125.35061764486794      105.01691303259963
C           99.24282794435379      126.47731431971667      105.94560029581926
C           99.19344607531897      126.02488531612006      107.40303910030836
C           98.82292752438315      127.16377776514973      108.34448389382045
H           98.46690628193716      125.21552774811261      107.50638155236247
H          100.17065350540192      125.62590509774462      107.68469456359394
H           99.93993818272384      127.31433671272815      105.85379339638790
H           98.25673116513477      126.83631686673347      105.64184638895119
H           98.98199260273051      124.51935401709837      105.09267123553383
H          100.66281083836201      124.98747805140323      105.34721035925305
H          100.43533602538491      126.67964951809388      103.50433212733111
H           98.80864499859659      126.08028883116613      103.18621145615660
H           99.72037757264245      123.83039538987909      102.69409612093241
H          101.34120624221786      124.38700527441894      103.11001596741492
H          101.09174761752290      126.14224844468718      101.26889178906276
H           99.66395077803007      125.26425793383517      100.72594882574397
H          102.41929582226024      124.00463032708124      101.05532692385580
H          101.86112707441961      124.71399593795260       99.54400034125548
H          100.11626751428892      123.08292079141063       99.29866103707387
H          100.35813785087872      122.46330827414486      100.93154843288755
H          102.41490177856276      121.42434422760043      100.38246146779812
H          102.64520161547415      122.42558522093057       98.95283226444252
H          102.10102696481225      120.14807022658992       98.30320193108398
H          100.85571500933679      121.27244655743023       97.76737642438628
H           99.38971702690556      120.57583255262573       99.63161372105743
H          100.63931012391851      119.48427933991186      100.22893539134026
H          100.53666973605436      118.16717479474353       98.15747708280085
H           99.45107119002529      119.34408184657674       97.42800182824156
H           97.72090982054351      118.79141758899230       99.15280560170680
H           98.78277303275081      117.53094771509892       99.78555989483415
H           98.75649863020099      116.37024994099021       97.61904902248313
H           97.88491826803804      117.71057300305681       96.88030763181735
H           96.29298468979472      116.01667517200779       97.19319139882869
H           95.94306629330158      117.21813184597791       98.43106342049028
H           96.92861683421297      115.80118931270719      100.16041336109929
H           97.59668147163778      114.70996928815164       98.94581805711881
H           95.30535003307109      114.11750324656566       98.20125446905948
H           94.62281689123952      115.18866543090699       99.41979496980518
H           95.60129179667219      113.80470309634362      101.21811814153725
H           96.39869727815557      112.78476765657113      100.02204870034454
H           94.21019129832446      112.07870706530042       99.12356628067671
H           93.37927849793206      113.13651983292580      100.26187479539651
H           94.27049349031870      111.85009097169117      102.15925855497947
H           95.19118757325894      110.81956797685994      101.06294881257772
H           93.11392894499113      110.01090759730928      100.02078657496328
H           92.15164743164078      111.05636666651469      101.06228180535807
H           93.99881701407978      108.87210225608068      102.11740053110013
H           92.29170848231338      108.61930715404394      101.76677278861791
H           91.67378424796142      110.38180603753734      103.39048408575619
H           93.37226017231944      110.63523315558996      103.78674797792829
H           93.56890967137880      108.35232767852303      104.65185527305964
H           91.92994235150651      107.97392827828845      104.12240568170786
H           91.01794524223573      109.67662616042973      105.66749314851300
H           92.65199223206061      110.09811581935068      106.18445629956467
H           92.97629843797829      107.91854354095310      107.19654668775756
H           91.52838297592956      107.28055457377427      106.42493977007727
H           91.06249599685000      107.67719851221294      108.76179146435652
H           90.10319808933151      108.77481272647756      107.77250941783507
H           91.68014886789416      110.62147553867383      108.26515817303591
H           92.68821976804777      109.52135130974202      109.20948232558602
H           90.79971684796907      109.12087804818354      110.76674586903364
H           89.77034059552155      110.18333060183318      109.81071680499448
H           91.24532464838499      112.10838035146527      110.32290616348122
H           92.33451158839873      111.04317589398778      111.21005208260823
H           90.47623833632592      110.48147022230894      112.78728656359354
H           89.41428254985293      111.57566238520775      111.90512391105047
H           90.20393526512831      112.68024339358054      113.89711702815984
H           90.91017360701619      113.48874379939089      112.49836138136244
H           93.06044708528387      112.46218139946122      112.88556586058750
H           92.37848552594184      111.32222716091732      114.04728994273131
H           91.97178603775491      113.10669801385663      115.65024036388589
H           92.38237094973650      114.33858296629060      114.45738692363081
H           94.20938633305826      114.03245177021657      116.04297882194778
H           94.71709181817388      113.59620254851387      114.41155103297022
H           94.55141650367182      111.22095975367039      114.92818483432865
H           93.83965557668135      111.56358931513731      116.50776384378521
H           95.89614256372089      112.70081762960424      117.22438012489556
H           96.62045718754359      112.45875899531782      115.63420057884531
H           95.81306608379842      110.21702555470321      117.54152504061987
H           97.43566687032454      110.88203786002835      117.38555684951999
H           97.28827805170985      110.25983877733037      114.87973043074383
H           95.88285496721896      109.28626644417409      115.32131994126529
H           97.31612796174480      108.07564898745605      117.00707354959010
H           98.70406537296488      109.00005613562796      116.43688410019310
H           98.25709477341877      108.09279279192674      114.10706162889440
H           97.01675453287386      107.05531510139636      114.80216200731724
H           98.75592430552710      106.01751322152045      116.28646822131721
H           99.97592749789119      107.04391880580546      115.53675518974295
H           99.42406879987301      106.02399057672638      113.31030343186930
H           98.24129628284200      104.99005953152525      114.10420025223357
H          100.13190884862290      103.62131029253878      113.83348345524935
H          100.16982403958895      104.08625679953880      115.53453106720821
H          101.89472119980441      105.81742805472743      115.00427655345874
H          101.78965240325499      105.38533898591962      113.29878645234734
H          102.46315744823177      103.02773240209839      113.92468044585873
H          102.74982797614243      103.59057491751243      115.56952734116371
H          104.45721562690842      105.19662713268774      114.71378208317729
H          104.14207562860936      104.64488707478844      113.07020810930251
H          104.74402207528654      102.30277983705102      113.83056110924200
H          105.27725348699742      102.98298754695908      115.36164297777735
H          106.99166845641825      104.33276093340231      114.16302428128583
H          106.37497629181765      103.74616431307101      112.61871826002844
H          106.85417756361154      101.37456261709666      113.45069404124585
H          107.74067762544125      102.09614267033582      114.78806590243344
H          109.33236433699958      103.12902116180499      113.21772731922211
H          108.33744103171873      102.63718384100090      111.84689780714251
H          108.68843730346586      100.23993591758233      112.48144343385060
H          109.78852520470649      100.75904558460458      113.75741456329985
H          111.35737076182257      101.65960218759020      112.12273526543446
H          110.16768583377169      101.50029074541659      110.83117148761679
H          111.71242928738306       99.71575681232301      110.53163989095100
H          110.22166116295016       99.00336366816347      111.13981977501841
H          111.23810326052576       98.94182615144500      113.44127127906033
H          112.72927980956644       99.59903615959297      112.77166083626928
H          112.82244397846146       97.61310468254061      111.20997524119522
H          111.42221609886310       96.94170307867721      112.04632311330694
H          112.75791082213273       97.10898127041288      114.21185541377282
H          114.16800184385673       97.51514477383266      113.23549849022176
H          112.55680220568448       94.92961660326958      113.05311460023836
H          114.10865311899850       95.12260295999255      113.86269823091135
H          115.12597039584659       95.79854242584756      111.65950779545173
H          113.57426422389186       95.47238418611528      110.88931315477512
H          113.71272043259951       93.09770393550160      111.74596788981631
H          115.34762430785183       93.44165292165746      112.30522368821732
H          115.92447617988488       94.15071405192769      109.93242404115323
H          114.32004178491677       93.62062827233780      109.44207017182234
H          114.88572760518231       91.29726308260821      110.23248382465734
H          116.49526562754691       91.86913641827323      110.66107412221621
H          116.82809471830095       90.93720238487839      108.52447228797708
H          116.66999606541175       92.65900803786722      108.18538097812052
H          114.12720956041026       92.12278102223107      107.83539533050103
H          114.65599342376518       90.45065401852423      107.69755974087279
H          115.60261484116539       92.79482283229983      105.98877568895674
H          114.43515111111988       91.56376134550875      105.50725299096985
H          116.23576918705483       89.82000438026891      105.77921243230674
H          117.37509360940696       91.10944290730374      106.16542314553755
H          117.73275509250992       90.64866282152779      103.87450535102555
H          116.81290096331485       92.15147711654791      103.90359325665594
H          114.72363712339201       90.84586362354327      103.42639910536045
H          115.67822416013598       89.36371464764839      103.39666016204876
H          117.02211769948619       90.30541476600246      101.49772762062749
H          116.01686926517255       91.75215304425154      101.53910183564878
H          114.00252364855768       90.34114143891216      101.05750922181481
H          115.02759311550565       88.91442413776913      101.01754379385302
H          114.54814803390501       89.62298689698598       98.75524963628128
H          116.27004806013912       89.79564808219867       99.09038538231034
H          115.45711849892358       91.68336479219278       97.79163522597234
H          116.00009021925233       92.23513211533123       99.36954464910484
H          113.63912869490142       92.30908556656708      100.15768901665243
H          113.09392416514983       91.73929156979909       98.58113902127261
H          114.04347849228981       93.79231561881281       97.52829762587380
H          114.63875707636730       94.31784541970268       99.10143527333612
H          112.25521726303781       94.25563652775793       99.94882693944329
H          111.71954115957683       93.96231675971153       98.29608220046009
H          112.74543892203818       96.11772719138871       97.58345969351143
H          113.34333930620313       96.37351228439182       99.22102945369751
H          110.96787147694437       96.33071642178261      100.05327039017240
H          110.41397692384481       96.22891224865266       98.38169901682863
H          111.52613772921129       98.41045332561603       97.89565002414784
H          112.10356213361075       98.47349764925005       99.56228206097065
H          109.72389486592941       98.43706407565841      100.35532777412385
H          109.18687361414656       98.45705068505508       98.67576580965499
H          109.03194984995632      100.69782788051593       99.50360733363767
H          110.39477556295967      100.66485046143491       98.38389923437111
H          111.97394320241509      100.56360644913796      100.27542525152992
H          110.62942217824816      100.43080362511213      101.41405526377955
H          109.85034308894294      102.68907952604695      100.77051137569060
H          111.15954127360988      102.82276855515151       99.59993404006546
H          112.82572342099991      102.62033704412720      101.44150753050083
H          111.51258948867266      102.45587385123468      102.60891432919748
H          110.67173739039761      104.72379391933040      101.89638840003886
H          112.09932148813925      104.90257367968400      100.88407084821418
H          113.56256481993420      104.75363442372229      102.86536685502560
H          112.17303130365039      104.41601595382251      103.89489948908005
H          111.19492675363873      106.61482159526489      103.28504823146270
H          112.62141764352168      106.99523603695982      102.32738094184650
H          114.04415013764635      106.94246223381637      104.30593833295075
H          112.72062447482881      106.33692454856518      105.30082124292630
H          112.77271011439569      109.07913248626636      103.95880472437483
H          113.16619806443590      108.75532087661138      105.64596383562395
H          110.85759970564543      107.73191377834758      105.89995653421559
H          110.47262211581756      108.34085917535309      104.29076129971826
H          110.85851278002337      110.66580801218851      105.07489375802099
H          111.26148582498453      110.04909321800237      106.67815772088501
[...]
  3011   6 C     3012   6 C                                       1.5264345
  3012   6 C     3013   6 C                                       1.5263617
  3013   6 C     3014   6 C                                       1.5260831
  3014   6 C     3015   6 C                                       1.5268752
  3015   6 C     3016   6 C                                       1.5237403
  3015   6 C     3017   1 H                                       1.0924877
  3015   6 C     3018   1 H                                       1.0923312
  3014   6 C     3019   1 H                                       1.0925160
  3014   6 C     3020   1 H                                       1.0929243
  3013   6 C     3021   1 H                                       1.0917535
  3013   6 C     3022   1 H                                       1.0924327
  3012   6 C     3023   1 H                                       1.0924507
  3012   6 C     3024   1 H                                       1.0922854
  3011   6 C     3025   1 H                                       1.0928890
  3011   6 C     3026   1 H                                       1.0922255
  3010   6 C     3027   1 H                                       1.0922732
  3010   6 C     3028   1 H                                       1.0934803
  3009   6 C     3029   1 H                                       1.0929895
  3009   6 C     3030   1 H                                       1.0919078
  3008   6 C     3031   1 H                                       1.0921962
  3008   6 C     3032   1 H                                       1.0925937
  3007   6 C     3033   1 H                                       1.0931880
  3007   6 C     3034   1 H                                       1.0915085
  3006   6 C     3035   1 H                                       1.0922436
  3006   6 C     3036   1 H                                       1.0922403
  3005   6 C     3037   1 H                                       1.0939260
  3005   6 C     3038   1 H                                       1.0917996
  3004   6 C     3039   1 H                                       1.0925363
  3004   6 C     3040   1 H                                       1.0935762
  3003   6 C     3041   1 H                                       1.0927851
  3003   6 C     3042   1 H                                       1.0921885
  3002   6 C     3043   1 H                                       1.0927178
  3002   6 C     3044   1 H                                       1.0934840
  3001   6 C     3045   1 H                                       1.0927282
  3001   6 C     3046   1 H                                       1.0917255
  3000   6 C     3047   1 H                                       1.0926497
  3000   6 C     3048   1 H                                       1.0924437
  2999   6 C     3049   1 H                                       1.0931840
  2999   6 C     3050   1 H                                       1.0929042
  2998   6 C     3051   1 H                                       1.0916651
  2998   6 C     3052   1 H                                       1.0926370
  2997   6 C     3053   1 H                                       1.0920341
  2997   6 C     3054   1 H                                       1.0923744
  2996   6 C     3055   1 H                                       1.0922692
  2996   6 C     3056   1 H                                       1.0919249
  2995   6 C     3057   1 H                                       1.0929366
  2995   6 C     3058   1 H                                       1.0921769
  2994   6 C     3059   1 H                                       1.0932139
  2994   6 C     3060   1 H                                       1.0929675
  2993   6 C     3061   1 H                                       1.0904059
  2993   6 C     3062   1 H                                       1.0927480
  2992   6 C     3063   1 H                                       1.0929726
  2992   6 C     3064   1 H                                       1.0928065
  2991   6 C     3065   1 H                                       1.0926203
  2991   6 C     3066   1 H                                       1.0929659
  2990   6 C     3067   1 H                                       1.0923577
  2990   6 C     3068   1 H                                       1.0916988
  2989   6 C     3069   1 H                                       1.0931142
  2989   6 C     3070   1 H                                       1.0914384
  2988   6 C     3071   1 H                                       1.0927501
  2988   6 C     3072   1 H                                       1.0929653
  2987   6 C     3073   1 H                                       1.0931655
  2987   6 C     3074   1 H                                       1.0895795
  2986   6 C     3075   1 H                                       1.0916625
  2986   6 C     3076   1 H                                       1.0932942
  2985   6 C     3077   1 H                                       1.0931611
  2985   6 C     3078   1 H                                       1.0917359
  2984   6 C     3079   1 H                                       1.0905549
  2984   6 C     3080   1 H                                       1.0932284
  2983   6 C     3081   1 H                                       1.0932350
  2983   6 C     3082   1 H                                       1.0913844
  2982   6 C     3083   1 H                                       1.0898052
  2982   6 C     3084   1 H                                       1.0935088
  2981   6 C     3085   1 H                                       1.0922326
  2981   6 C     3086   1 H                                       1.0934040
  2980   6 C     3087   1 H                                       1.0932071
  2980   6 C     3088   1 H                                       1.0910687
  2979   6 C     3089   1 H                                       1.0928700
  2979   6 C     3090   1 H                                       1.0897011
  2978   6 C     3091   1 H                                       1.0911566
  2978   6 C     3092   1 H                                       1.0929640
  2977   6 C     3093   1 H                                       1.0931254
  2977   6 C     3094   1 H                                       1.0926444
  2976   6 C     3095   1 H                                       1.0903878
  2976   6 C     3096   1 H                                       1.0919693
  2975   6 C     3097   1 H                                       1.0933481
  2975   6 C     3098   1 H                                       1.0926320
  2974   6 C     3099   1 H                                       1.0930416
  2974   6 C     3100   1 H                                       1.0931947
  2973   6 C     3101   1 H                                       1.0925790
  2973   6 C     3102   1 H                                       1.0914065
  2972   6 C     3103   1 H                                       1.0925384
  2972   6 C     3104   1 H                                       1.0927831
  2971   6 C     3105   1 H                                       1.0925369
  2971   6 C     3106   1 H                                       1.0912046
  2970   6 C     3107   1 H                                       1.0920221
  2970   6 C     3108   1 H                                       1.0928638
  2969   6 C     3109   1 H                                       1.0934706
  2969   6 C     3110   1 H                                       1.0926453
  2968   6 C     3111   1 H                                       1.0910954
  2968   6 C     3112   1 H                                       1.0920654
  2967   6 C     3113   1 H                                       1.0915792
  2967   6 C     3114   1 H                                       1.0928741
  2966   6 C     3115   1 H                                       1.0924017
  2966   6 C     3116   1 H                                       1.0929582
  2965   6 C     3117   1 H                                       1.0923428
  2965   6 C     3118   1 H                                       1.0925396
  2964   6 C     3119   1 H                                       1.0927824
  2964   6 C     3120   1 H                                       1.0909726
  2963   6 C     3121   1 H                                       1.0928675
  2963   6 C     3122   1 H                                       1.0933679
  2962   6 C     3123   1 H                                       1.0927472
  2962   6 C     3124   1 H                                       1.0925745
  2961   6 C     3125   1 H                                       1.0923749
  2961   6 C     3126   1 H                                       1.0932354
  2960   6 C     3127   1 H                                       1.0931169
  2960   6 C     3128   1 H                                       1.0916168
  2959   6 C     3129   1 H                                       1.0922407
  2959   6 C     3130   1 H                                       1.0929959
  2958   6 C     3131   1 H                                       1.0931204
  2958   6 C     3132   1 H                                       1.0912840
  2957   6 C     3133   1 H                                       1.0920699
  2957   6 C     3134   1 H                                       1.0931390
  2956   6 C     3135   1 H                                       1.0930596
  2956   6 C     3136   1 H                                       1.0920600
  2955   6 C     3137   1 H                                       1.0910953
  2955   6 C     3138   1 H                                       1.0923279
  2954   6 C     3139   1 H                                       1.0927464
  2954   6 C     3140   1 H                                       1.0925916
  2953   6 C     3141   1 H                                       1.0917272
  2953   6 C     3142   1 H                                       1.0924776
  2952   6 C     3143   1 H                                       1.0927330
  2952   6 C     3144   1 H                                       1.0921689
  2951   6 C     3145   1 H                                       1.0930719
  2951   6 C     3146   1 H                                       1.0924839
  2950   6 C     3147   1 H                                       1.0926229
  2950   6 C     3148   1 H                                       1.0926066
  2949   6 C     3149   1 H                                       1.0922144
  2949   6 C     3150   1 H                                       1.0926450
  2948   6 C     3151   1 H                                       1.0928426
  2948   6 C     3152   1 H                                       1.0920644
  2947   6 C     3153   1 H                                       1.0912696
  2947   6 C     3154   1 H                                       1.0927357
  2946   6 C     3155   1 H                                       1.0926575
  2946   6 C     3156   1 H                                       1.0920074
  2945   6 C     3157   1 H                                       1.0924820
  2945   6 C     3158   1 H                                       1.0929247
  2944   6 C     3159   1 H                                       1.0928534
  2944   6 C     3160   1 H                                       1.0902953
  2943   6 C     3161   1 H                                       1.0924593
  2943   6 C     3162   1 H                                       1.0932741
  2942   6 C     3163   1 H                                       1.0931416
  2942   6 C     3164   1 H                                       1.0931933
  2941   6 C     3165   1 H                                       1.0914625
  2941   6 C     3166   1 H                                       1.0912991
  2940   6 C     3167   1 H                                       1.0927220
  2940   6 C     3168   1 H                                       1.0938832
  2939   6 C     3169   1 H                                       1.0925556
  2939   6 C     3170   1 H                                       1.0929176
  2938   6 C     3171   1 H                                       1.0916908
  2938   6 C     3172   1 H                                       1.0928612
  2937   6 C     3173   1 H                                       1.0917023
  2937   6 C     3174   1 H                                       1.0916873
  2936   6 C     3175   1 H                                       1.0933332
  2936   6 C     3176   1 H                                       1.0926988
  2935   6 C     3177   1 H                                       1.0921252
  2935   6 C     3178   1 H                                       1.0920398
  2934   6 C     3179   1 H                                       1.0932998
  2934   6 C     3180   1 H                                       1.0926217
  2933   6 C     3181   1 H                                       1.0927100
  2933   6 C     3182   1 H                                       1.0926315
  2932   6 C     3183   1 H                                       1.0933199
  2932   6 C     3184   1 H                                       1.0922502
  2931   6 C     3185   1 H                                       1.0926834
  2931   6 C     3186   1 H                                       1.0930118
  2930   6 C     3187   1 H                                       1.0933019
  2930   6 C     3188   1 H                                       1.0920333
  2929   6 C     3189   1 H                                       1.0922539
  2929   6 C     3190   1 H                                       1.0926388
  2928   6 C     3191   1 H                                       1.0932642
  2928   6 C     3192   1 H                                       1.0919362
  2927   6 C     3193   1 H                                       1.0913941
  2927   6 C     3194   1 H                                       1.0924451
  2926   6 C     3195   1 H                                       1.0931041
  2926   6 C     3196   1 H                                       1.0919281
  2925   6 C     3197   1 H                                       1.0917320
  2925   6 C     3198   1 H                                       1.0932746
  2924   6 C     3199   1 H                                       1.0919735
  2924   6 C     3200   1 H                                       1.0918781
  2923   6 C     3201   1 H                                       1.0926012
  2923   6 C     3202   1 H                                       1.0931906
  2922   6 C     3203   1 H                                       1.0919727
  2922   6 C     3204   1 H                                       1.0921134
  2921   6 C     3205   1 H                                       1.0915516
  2921   6 C     3206   1 H                                       1.0935930
  2920   6 C     3207   1 H                                       1.0930716
  2920   6 C     3208   1 H                                       1.0918397
  2919   6 C     3209   1 H                                       1.0935052
  2919   6 C     3210   1 H                                       1.0933150
  2918   6 C     3211   1 H                                       1.0919929
  2918   6 C     3212   1 H                                       1.0911943
  2917   6 C     3213   1 H                                       1.0923925
  2917   6 C     3214   1 H                                       1.0922719
  2916   6 C     3215   1 H                                       1.0921192
  2916   6 C     3216   1 H                                       1.0938650
  2915   6 C     3217   1 H                                       1.0930392
  2915   6 C     3218   1 H                                       1.0910911
  2914   6 C     3219   1 H                                       1.0923002
  2914   6 C     3220   1 H                                       1.0926767
  2913   6 C     3221   1 H                                       1.0934452
  2913   6 C     3222   1 H                                       1.0915081
  2912   6 C     3223   1 H                                       1.0931179
  2912   6 C     3224   1 H                                       1.0914758
  2911   6 C     3225   1 H                                       1.0920626
  2911   6 C     3226   1 H                                       1.0925748
  2910   6 C     3227   1 H                                       1.0921071
  2910   6 C     3228   1 H                                       1.0924785
  2909   6 C     3229   1 H                                       1.0911838
  2909   6 C     3230   1 H                                       1.0913880
  2908   6 C     3231   1 H                                       1.0926831
  2908   6 C     3232   1 H                                       1.0936404
  2907   6 C     3233   1 H                                       1.0902841
  2907   6 C     3234   1 H                                       1.0933431
  2906   6 C     3235   1 H                                       1.0937419
  2906   6 C     3236   1 H                                       1.0919871
  2905   6 C     3237   1 H                                       1.0926770
  2905   6 C     3238   1 H                                       1.0930980
  2904   6 C     3239   1 H                                       1.0925449
  2904   6 C     3240   1 H                                       1.0921342
  2903   6 C     3241   1 H                                       1.0924717
  2903   6 C     3242   1 H                                       1.0918823
  2902   6 C     3243   1 H                                       1.0916375
  2902   6 C     3244   1 H                                       1.0907732
  2901   6 C     3245   1 H                                       1.0928819
  2901   6 C     3246   1 H                                       1.0929188
  2900   6 C     3247   1 H                                       1.0922642
  2900   6 C     3248   1 H                                       1.0926938
  2899   6 C     3249   1 H                                       1.0915600
  2899   6 C     3250   1 H                                       1.0921010
  2898   6 C     3251   1 H                                       1.0924985
  2898   6 C     3252   1 H                                       1.0927202
  2897   6 C     3253   1 H                                       1.0875681
  2897   6 C     3254   1 H                                       1.0878919
  2897   6 C     3255   1 H                                       1.0881784
  3016   6 C     3256   1 H                                       1.0878798
  3016   6 C     3257   1 H                                       1.0882691
  3016   6 C     3258   1 H                                       1.0875024

 * 2 distinct bonds (by element types)

   Z      Z             #   av. dist./Å        max./Å        min./Å
   1 H    6 C        2178     1.0922864     1.0944874     1.0861460
   6 C    6 C        1071     1.5275329     1.5363806     1.5232285


optimized geometry written to: xtbopt.xyz


           -------------------------------------------------
          | TOTAL ENERGY            -3427.502291137125 Eh   |
          | GRADIENT NORM               0.000980419837 Eh/α |
          | HOMO-LUMO GAP              11.465084656539 eV   |
           -------------------------------------------------

------------------------------------------------------------------------
 * finished run on 2024/10/04 at 08:16:37.355     
------------------------------------------------------------------------
 total:
 * wall-time:     0 d,  5 h, 17 min, 43.183 sec
 *  cpu-time:     1 d,  5 h, 27 min, 14.456 sec
 * ratio c/w:     5.562 speedup
 SCF:
 * wall-time:     0 d,  0 h, 13 min, 58.347 sec
 *  cpu-time:     0 d,  1 h, 31 min, 51.780 sec
 * ratio c/w:     6.575 speedup
 ANC optimizer:
 * wall-time:     0 d,  5 h,  3 min,  2.582 sec
 *  cpu-time:     1 d,  3 h, 54 min, 24.844 sec
 * ratio c/w:     5.525 speedup

