3258
 energy: -3427.502291137125 gnorm: 0.000980419837 xtb: 6.6.1 (8d0f1dd)
C          101.21633017712330       95.51348196552520      109.53053229104880
C          101.19500999390496       96.91263907461294      110.13300750486906
C           99.77904034133324       97.47833834259238      110.21289838130799
C           99.75654324028309       98.89415627224712      110.78204351108691
C           98.34693402480298       99.47855773344683      110.83085165173826
C           98.34646078230891      100.91644203388695      111.34231948051215
C           96.95190021314333      101.53739741732495      111.34153607079217
C           96.98511248303620      103.00116787927115      111.77309114888074
C           95.61433545730122      103.66721501556924      111.68773692535279
C           95.68764208804824      105.16525716592042      111.97612693052838
C           94.35276403143695      105.86030282234728      111.71850467557329
C           94.32347094510195      107.31167186033068      112.19608603945721
C           95.25053573345997      108.24331391876470      111.41785872508254
C           95.14901403522758      109.67032198437599      111.94855502519152
C           96.04175297468093      110.66203328438503      111.20677376836559
C           95.96664439066075      112.04172241608509      111.85628616374454
C           96.81068850030037      113.11374192542286      111.17115992250642
C           98.31079522044813      112.83056126990630      111.21896463529016
C           99.11871591789111      114.06563699864367      110.83363163580611
C          100.62665588808585      113.82763734706278      110.76860769619753
C          101.02977208703639      112.80558800087796      109.70452505446805
C          102.46478599707969      112.98402189412997      109.21343610730813
C          103.52234822805295      112.74977717254907      110.28813296803229
C          104.94178372495503      112.93504774287405      109.74824554658153
C          105.39413016001093      111.80612381553419      108.82586475871521
C          106.80699064228251      112.03237357088578      108.29392361707370
C          107.27354408790097      110.87927870402825      107.41031588441049
C          108.71952008580828      111.04103212477733      106.94836759167947
C          109.18433223814453      109.82345711552577      106.15603261125079
C          110.66597281177253      109.85605270522730      105.78284689817384
C          111.08335828144352      108.51925643281382      105.17722063322520
C          112.55947529248955      108.41950057161675      104.80221466638791
C          112.96264462623948      106.98437132873116      104.45351679245853
C          112.26890297718012      106.44762860070917      103.20383432227007
C          112.49841037619090      104.95280563404016      102.99946819681669
C          111.71916450486825      104.43165552991911      101.79405890520889
C          111.79529458049515      102.91428773072190      101.65735736507048
C          110.87720321985893      102.38302742796579      100.55894972518200
C          110.94063362018721      100.86195779426380      100.45908156687220
C          110.04264339204597      100.30960904235788       99.35540723208318
C          109.98269456377353       98.78188816361055       99.35145934419718
C          111.29138802809113       98.12242740518586       98.92326467011806
C          111.21610112160057       96.60139890844283       99.02380927147813
C          112.53173278695044       95.93020376666128       98.63804764130374
C          112.50367879873208       94.42687718702399       98.89840659175246
C          113.84344929530658       93.75904869261346       98.60147248074891
C          113.87040995979829       92.31393234776790       99.09130830063567
C          115.22776859111713       91.65585641744143       98.86018616887637
C          115.28149783455854       90.19913033035856       99.32525409687240
C          115.00687062473594       89.98873200777582      100.81572188111362
C          116.02055218084526       90.67726860788041      101.72621860764525
C          115.71150570447001       90.43866265470197      103.20212236206267
C          116.75707773568313       91.08025978548316      104.11185271601768
C          116.47172574179034       90.87175241001808      105.60052693567594
C          115.32687480316858       91.74354615788529      106.11110226763958
C          114.97612396403865       91.48700677711226      107.57619060816492
C          116.13014334896866       91.77609740012676      108.53640065669551
C          115.65944819530874       92.02243359445329      109.97345548115463
C          115.12404769799819       93.44016957663246      110.15650943637890
C          114.59475701082046       93.71578291759187      111.56169394029354
C          114.22143458396746       95.18799934250464      111.71996941815178
C          113.49857152939326       95.48271862300027      113.02953159903697
C          113.22061463857351       96.97255888110463      113.23198443485494
C          112.30325177487204       97.57670224040497      112.16972832232071
C          111.85312510138790       98.98883835367592      112.54134259321388
C          111.06471835683155       99.64435973453948      111.40974641264016
C          110.53865327848000      101.03983050413989      111.75094404539487
C          109.40067068728385      101.01714094530546      112.77053234053294
C          108.65934834411834      102.35125131124812      112.85194356741081
C          107.42916658244373      102.25377773941172      113.75290795542720
C          106.51916352921704      103.48011501710286      113.66958654680066
C          105.15589646926107      103.19908285970070      114.29858731068788
C          104.15246456868576      104.33510780411055      114.11829250382932
C          102.74488270493454      103.89976812700117      114.52146998202792
C          101.69969003348271      104.99416164525806      114.31547277104745
C          100.28066944138521      104.46331570488324      114.51529848553604
C           99.19484434475693      105.50510312820447      114.24312438971717
C           99.02898908919066      106.53076092060996      115.36151543741384
C           97.95960052933536      107.56458225667127      115.01634866421399
C           97.74042610625095      108.58014428966824      116.13580097642732
C           96.81354244608357      109.71383339021492      115.69946570360889
C           96.50858169130142      110.68367017654597      116.84070744627167
C           95.93770647279584      112.02173808429497      116.36850518398140
C           94.54175286651738      111.93018913503093      115.75554993963861
C           94.07859275054865      113.29508071625055      115.24592176524419
C           92.61733792908291      113.32611746745086      114.79645301011398
C           92.31062931279982      112.34349145084403      113.66837939811671
C           90.91829480549232      112.56287013331347      113.07819484855321
C           90.45281858305286      111.40210055144946      112.19810871175399
C           91.29101848069003      111.20557485012996      110.93657740468602
C           90.80150139207905      110.00720798606514      110.12662499995574
C           91.66274262461758      109.73112059119629      108.89601863207695
C           91.12034363560062      108.54572930983412      108.10019051689541
C           91.96326920673357      108.17421676586390      106.88019313134942
C           92.02355229155428      109.28005603856842      105.82778216975721
C           92.57329056638552      108.77474413240779      104.49581512663958
C           92.64748541597622      109.88953009451920      103.45481758234979
C           93.02733965393169      109.36880563518716      102.06992391805673
C           93.07335586986167      110.47165739864707      101.01101456001130
C           94.27374402715188      111.40252393537106      101.16415703388776
C           94.26914088362048      112.51758548219469      100.12272152114799
C           95.51430210465954      113.39625168594307      100.20966741578258
C           95.47137919792479      114.53640812184068       99.19757416004025
C           96.75380882268965      115.36519220467109       99.17534490817529
C           96.66903197485523      116.46390097130896       98.11782567096847
C           98.00364302097721      117.13825566334422       97.80468782410938
C           98.51429593399762      118.08838459775185       98.88659459789385
C           99.72493110856513      118.86574786875236       98.37262657766645
C          100.22722016096711      119.94452867843495       99.32962690227211
C          101.29496971780897      120.80025660578556       98.65021378426306
C          101.89687848893698      121.88648234937624       99.54014815151113
C          100.86805016018296      122.88958481420852      100.06736631026173
C          101.53052246862609      124.21104803968191      100.45644826016252
C          100.62015813688008      125.15638500944803      101.24250696463875
C          100.38574390970378      124.69580767258830      102.68090038933168
C           99.79461046506245      125.79557818400099      103.56023522937095
C           99.68643567517393      125.35061764486794      105.01691303259963
C           99.24282794435379      126.47731431971667      105.94560029581926
C           99.19344607531897      126.02488531612006      107.40303910030836
C           98.82292752438315      127.16377776514973      108.34448389382045
H           98.46690628193716      125.21552774811261      107.50638155236247
H          100.17065350540192      125.62590509774462      107.68469456359394
H           99.93993818272384      127.31433671272815      105.85379339638790
H           98.25673116513477      126.83631686673347      105.64184638895119
H           98.98199260273051      124.51935401709837      105.09267123553383
H          100.66281083836201      124.98747805140323      105.34721035925305
H          100.43533602538491      126.67964951809388      103.50433212733111
H           98.80864499859659      126.08028883116613      103.18621145615660
H           99.72037757264245      123.83039538987909      102.69409612093241
H          101.34120624221786      124.38700527441894      103.11001596741492
H          101.09174761752290      126.14224844468718      101.26889178906276
H           99.66395077803007      125.26425793383517      100.72594882574397
H          102.41929582226024      124.00463032708124      101.05532692385580
H          101.86112707441961      124.71399593795260       99.54400034125548
H          100.11626751428892      123.08292079141063       99.29866103707387
H          100.35813785087872      122.46330827414486      100.93154843288755
H          102.41490177856276      121.42434422760043      100.38246146779812
H          102.64520161547415      122.42558522093057       98.95283226444252
H          102.10102696481225      120.14807022658992       98.30320193108398
H          100.85571500933679      121.27244655743023       97.76737642438628
H           99.38971702690556      120.57583255262573       99.63161372105743
H          100.63931012391851      119.48427933991186      100.22893539134026
H          100.53666973605436      118.16717479474353       98.15747708280085
H           99.45107119002529      119.34408184657674       97.42800182824156
H           97.72090982054351      118.79141758899230       99.15280560170680
H           98.78277303275081      117.53094771509892       99.78555989483415
H           98.75649863020099      116.37024994099021       97.61904902248313
H           97.88491826803804      117.71057300305681       96.88030763181735
H           96.29298468979472      116.01667517200779       97.19319139882869
H           95.94306629330158      117.21813184597791       98.43106342049028
H           96.92861683421297      115.80118931270719      100.16041336109929
H           97.59668147163778      114.70996928815164       98.94581805711881
H           95.30535003307109      114.11750324656566       98.20125446905948
H           94.62281689123952      115.18866543090699       99.41979496980518
H           95.60129179667219      113.80470309634362      101.21811814153725
H           96.39869727815557      112.78476765657113      100.02204870034454
H           94.21019129832446      112.07870706530042       99.12356628067671
H           93.37927849793206      113.13651983292580      100.26187479539651
H           94.27049349031870      111.85009097169117      102.15925855497947
H           95.19118757325894      110.81956797685994      101.06294881257772
H           93.11392894499113      110.01090759730928      100.02078657496328
H           92.15164743164078      111.05636666651469      101.06228180535807
H           93.99881701407978      108.87210225608068      102.11740053110013
H           92.29170848231338      108.61930715404394      101.76677278861791
H           91.67378424796142      110.38180603753734      103.39048408575619
H           93.37226017231944      110.63523315558996      103.78674797792829
H           93.56890967137880      108.35232767852303      104.65185527305964
H           91.92994235150651      107.97392827828845      104.12240568170786
H           91.01794524223573      109.67662616042973      105.66749314851300
H           92.65199223206061      110.09811581935068      106.18445629956467
H           92.97629843797829      107.91854354095310      107.19654668775756
H           91.52838297592956      107.28055457377427      106.42493977007727
H           91.06249599685000      107.67719851221294      108.76179146435652
H           90.10319808933151      108.77481272647756      107.77250941783507
H           91.68014886789416      110.62147553867383      108.26515817303591
H           92.68821976804777      109.52135130974202      109.20948232558602
H           90.79971684796907      109.12087804818354      110.76674586903364
H           89.77034059552155      110.18333060183318      109.81071680499448
H           91.24532464838499      112.10838035146527      110.32290616348122
H           92.33451158839873      111.04317589398778      111.21005208260823
H           90.47623833632592      110.48147022230894      112.78728656359354
H           89.41428254985293      111.57566238520775      111.90512391105047
H           90.20393526512831      112.68024339358054      113.89711702815984
H           90.91017360701619      113.48874379939089      112.49836138136244
H           93.06044708528387      112.46218139946122      112.88556586058750
H           92.37848552594184      111.32222716091732      114.04728994273131
H           91.97178603775491      113.10669801385663      115.65024036388589
H           92.38237094973650      114.33858296629060      114.45738692363081
H           94.20938633305826      114.03245177021657      116.04297882194778
H           94.71709181817388      113.59620254851387      114.41155103297022
H           94.55141650367182      111.22095975367039      114.92818483432865
H           93.83965557668135      111.56358931513731      116.50776384378521
H           95.89614256372089      112.70081762960424      117.22438012489556
H           96.62045718754359      112.45875899531782      115.63420057884531
H           95.81306608379842      110.21702555470321      117.54152504061987
H           97.43566687032454      110.88203786002835      117.38555684951999
H           97.28827805170985      110.25983877733037      114.87973043074383
H           95.88285496721896      109.28626644417409      115.32131994126529
H           97.31612796174480      108.07564898745605      117.00707354959010
H           98.70406537296488      109.00005613562796      116.43688410019310
H           98.25709477341877      108.09279279192674      114.10706162889440
H           97.01675453287386      107.05531510139636      114.80216200731724
H           98.75592430552710      106.01751322152045      116.28646822131721
H           99.97592749789119      107.04391880580546      115.53675518974295
H           99.42406879987301      106.02399057672638      113.31030343186930
H           98.24129628284200      104.99005953152525      114.10420025223357
H          100.13190884862290      103.62131029253878      113.83348345524935
H          100.16982403958895      104.08625679953880      115.53453106720821
H          101.89472119980441      105.81742805472743      115.00427655345874
H          101.78965240325499      105.38533898591962      113.29878645234734
H          102.46315744823177      103.02773240209839      113.92468044585873
H          102.74982797614243      103.59057491751243      115.56952734116371
H          104.45721562690842      105.19662713268774      114.71378208317729
H          104.14207562860936      104.64488707478844      113.07020810930251
H          104.74402207528654      102.30277983705102      113.83056110924200
H          105.27725348699742      102.98298754695908      115.36164297777735
H          106.99166845641825      104.33276093340231      114.16302428128583
H          106.37497629181765      103.74616431307101      112.61871826002844
H          106.85417756361154      101.37456261709666      113.45069404124585
H          107.74067762544125      102.09614267033582      114.78806590243344
H          109.33236433699958      103.12902116180499      113.21772731922211
H          108.33744103171873      102.63718384100090      111.84689780714251
H          108.68843730346586      100.23993591758233      112.48144343385060
H          109.78852520470649      100.75904558460458      113.75741456329985
H          111.35737076182257      101.65960218759020      112.12273526543446
H          110.16768583377169      101.50029074541659      110.83117148761679
H          111.71242928738306       99.71575681232301      110.53163989095100
H          110.22166116295016       99.00336366816347      111.13981977501841
H          111.23810326052576       98.94182615144500      113.44127127906033
H          112.72927980956644       99.59903615959297      112.77166083626928
H          112.82244397846146       97.61310468254061      111.20997524119522
H          111.42221609886310       96.94170307867721      112.04632311330694
H          112.75791082213273       97.10898127041288      114.21185541377282
H          114.16800184385673       97.51514477383266      113.23549849022176
H          112.55680220568448       94.92961660326958      113.05311460023836
H          114.10865311899850       95.12260295999255      113.86269823091135
H          115.12597039584659       95.79854242584756      111.65950779545173
H          113.57426422389186       95.47238418611528      110.88931315477512
H          113.71272043259951       93.09770393550160      111.74596788981631
H          115.34762430785183       93.44165292165746      112.30522368821732
H          115.92447617988488       94.15071405192769      109.93242404115323
H          114.32004178491677       93.62062827233780      109.44207017182234
H          114.88572760518231       91.29726308260821      110.23248382465734
H          116.49526562754691       91.86913641827323      110.66107412221621
H          116.82809471830095       90.93720238487839      108.52447228797708
H          116.66999606541175       92.65900803786722      108.18538097812052
H          114.12720956041026       92.12278102223107      107.83539533050103
H          114.65599342376518       90.45065401852423      107.69755974087279
H          115.60261484116539       92.79482283229983      105.98877568895674
H          114.43515111111988       91.56376134550875      105.50725299096985
H          116.23576918705483       89.82000438026891      105.77921243230674
H          117.37509360940696       91.10944290730374      106.16542314553755
H          117.73275509250992       90.64866282152779      103.87450535102555
H          116.81290096331485       92.15147711654791      103.90359325665594
H          114.72363712339201       90.84586362354327      103.42639910536045
H          115.67822416013598       89.36371464764839      103.39666016204876
H          117.02211769948619       90.30541476600246      101.49772762062749
H          116.01686926517255       91.75215304425154      101.53910183564878
H          114.00252364855768       90.34114143891216      101.05750922181481
H          115.02759311550565       88.91442413776913      101.01754379385302
H          114.54814803390501       89.62298689698598       98.75524963628128
H          116.27004806013912       89.79564808219867       99.09038538231034
H          115.45711849892358       91.68336479219278       97.79163522597234
H          116.00009021925233       92.23513211533123       99.36954464910484
H          113.63912869490142       92.30908556656708      100.15768901665243
H          113.09392416514983       91.73929156979909       98.58113902127261
H          114.04347849228981       93.79231561881281       97.52829762587380
H          114.63875707636730       94.31784541970268       99.10143527333612
H          112.25521726303781       94.25563652775793       99.94882693944329
H          111.71954115957683       93.96231675971153       98.29608220046009
H          112.74543892203818       96.11772719138871       97.58345969351143
H          113.34333930620313       96.37351228439182       99.22102945369751
H          110.96787147694437       96.33071642178261      100.05327039017240
H          110.41397692384481       96.22891224865266       98.38169901682863
H          111.52613772921129       98.41045332561603       97.89565002414784
H          112.10356213361075       98.47349764925005       99.56228206097065
H          109.72389486592941       98.43706407565841      100.35532777412385
H          109.18687361414656       98.45705068505508       98.67576580965499
H          109.03194984995632      100.69782788051593       99.50360733363767
H          110.39477556295967      100.66485046143491       98.38389923437111
H          111.97394320241509      100.56360644913796      100.27542525152992
H          110.62942217824816      100.43080362511213      101.41405526377955
H          109.85034308894294      102.68907952604695      100.77051137569060
H          111.15954127360988      102.82276855515151       99.59993404006546
H          112.82572342099991      102.62033704412720      101.44150753050083
H          111.51258948867266      102.45587385123468      102.60891432919748
H          110.67173739039761      104.72379391933040      101.89638840003886
H          112.09932148813925      104.90257367968400      100.88407084821418
H          113.56256481993420      104.75363442372229      102.86536685502560
H          112.17303130365039      104.41601595382251      103.89489948908005
H          111.19492675363873      106.61482159526489      103.28504823146270
H          112.62141764352168      106.99523603695982      102.32738094184650
H          114.04415013764635      106.94246223381637      104.30593833295075
H          112.72062447482881      106.33692454856518      105.30082124292630
H          112.77271011439569      109.07913248626636      103.95880472437483
H          113.16619806443590      108.75532087661138      105.64596383562395
H          110.85759970564543      107.73191377834758      105.89995653421559
H          110.47262211581756      108.34085917535309      104.29076129971826
H          110.85851278002337      110.66580801218851      105.07489375802099
H          111.26148582498453      110.04909321800237      106.67815772088501
H          109.00195591770105      108.93048414974479      106.75959748150559
H          108.58371390576430      109.73337228521470      105.24758368438796
H          108.81303493524545      111.94173972615263      106.33923596413523
H          109.35699527579993      111.16243799304425      107.82588086637628
H          107.18717579277418      109.94676135988001      107.97403752260317
H          106.61931822791814      110.79869619800948      106.53821626600975
H          106.83956995176304      112.96711579920179      107.72839552259225
H          107.49622565571443      112.13567691251158      109.13503161575630
H          105.36799689997881      110.86213339648002      109.37546904257772
H          104.70705026994719      111.71646220032946      107.98239083435357
H          104.99624303857726      113.88417013628802      109.20995338458204
H          105.63580613096271      112.99287269886359      110.59003034256008
H          103.36485054790300      113.45424023994080      111.10793242417350
H          103.41265938941342      111.74180065078919      110.69579630182089
H          102.63148318061553      112.28704640023493      108.39147150077557
H          102.58366648609221      113.99609485676129      108.81802676877633
H          100.91143204455474      111.79307226913747      110.09288614170100
H          100.36438801680332      112.90998871938676      108.84356658685978
H          101.10871985636052      114.78162017391976      110.53744776215463
H          100.98378098071306      113.50725993458379      111.74918549100069
H           98.77200495780455      114.42461090889903      109.86107639895241
H           98.92208160750187      114.85541734582203      111.56160844345193
H           98.59115699644053      112.51543056377528      112.22723072178434
H           98.54375377132789      112.01608566384101      110.53288262907797
H           96.49503296139905      113.21631133532027      110.13017771109372
H           96.61763976536685      114.06743405284918      111.66990165238184
H           94.92437533362170      112.37089756953878      111.85047677316743
H           96.27727236065743      111.95820962882702      112.90083711273351
H           97.07020774733115      110.29919029020600      111.22791400397627
H           95.73087418947684      110.73049389588597      110.16166522792570
H           94.10961819387099      110.00164242902079      111.88525412798630
H           95.42694578760386      109.67074059579430      113.00499312344998
H           96.28305018573617      107.90180747659029      111.50838840030569
H           94.98286994729111      108.22196295137024      110.35916434766894
H           93.30075117748549      107.68797310796531      112.10832697445581
H           94.59352272569446      107.34362582512964      113.25495467499320
H           94.12796885826882      105.82413430755898      110.65008653310689
H           93.56548889452834      105.30868555273231      112.23881081422135
H           95.98202768495695      105.32014645294569      113.01682255294062
H           96.45887526558955      105.61041025854841      111.34474854114680
H           95.20584849171370      103.51673622331428      110.68627735574843
H           94.93155122532306      103.19124079517501      112.39517377024201
H           97.36428691501033      103.07107309030259      112.79533561996480
H           97.68205262306600      103.54299203886615      111.12818474824304
H           96.53272378363434      101.47209588324898      110.33485470438829
H           96.29787068089966      100.97302041073837      112.00983424892718
H           98.75577049770493      100.94227189359165      112.35548062859237
H           99.00037136088760      101.51600144893425      110.70481822569367
H           97.91505102715691       99.45793665537623      109.82762776956226
H           97.71680827682989       98.86084309452117      111.47485768252393
H          100.17931617599847       98.88671073124760      111.78980570822526
H          100.38714307936054       99.53641913444703      110.16383508455770
H           99.33914743876967       97.48843648000671      109.21252068211982
H           99.16294647306111       96.82544217962375      110.83579460753653
H          101.62893945729243       96.88088340944492      111.13471766231143
H          101.81333443693138       97.57666642176939      109.52496923381544
H          102.23455005521843       95.13444396443981      109.47761179469731
H          100.62570557779732       94.82807640881114      110.13452976881656
H          100.80057402011988       95.52429913351594      108.52492250387391
H           97.84588662676086      127.56834364049440      108.08961019185115
H           98.79112200118529      126.81649689554628      109.37483252746009
H           99.55277304538866      127.96813682540540      108.27762332824891
C          129.64347136343085      103.49996478438020      112.86212473102150
C          128.85073008392246      104.54817494705526      113.63307992823930
C          127.42245372461888      104.67927208804532      113.11064500773324
C          126.60135282404200      105.68311217451549      113.91472575205206
C          125.17033943519705      105.80304683219505      113.40161437810514
C          124.33953649743914      106.77811032372620      114.23049554579340
C          122.91148335609303      106.89394279641040      113.70500406383397
C          122.04105614286185      107.80012052856524      114.57067399188550
C          120.59254960897137      107.84290573264215      114.09118851220846
C          119.70156804794632      108.63950719012527      115.04044953266754
C          118.24489011449540      108.67194473735928      114.58360238408798
C          117.36719749828480      109.44253229074828      115.56800561819000
C          115.95987435121020      109.73276460310768      115.04680666479632
C          115.07123241434604      108.49632460354263      114.93612889583511
C          113.73499049577426      108.79267440801465      114.25304367930377
C          112.83972001536004      109.75270172179111      115.03263660061656
C          111.46414249838791      109.91279394054321      114.38597189041893
C          110.62169004075355      110.94852676702992      115.12711121838953
C          109.18693829744444      111.07894883300190      114.61629300339476
C          109.10419214226224      111.49656485846165      113.14955588298318
C          107.73441800022614      112.05039609590098      112.75573219453355