3536
 energy: -3716.237832704033 gnorm: 0.000988089629 xtb: 6.6.1 (8d0f1dd)
C           58.12201818202127       69.39948199855205       70.33403934296589
C           57.10508667409322       70.22522307399211       69.54850572723143
C           55.76142621656891       69.49793475920379       69.53866634591598
C           57.56422664544250       70.48288862565488       68.10706182916572
C           58.78499616951186       71.39937565770461       67.96525288015427
C           58.43016603429331       72.84178100610877       68.32955055626604
C           59.34801335677699       71.38392882870367       66.53580166151221
C           59.83196639801702       70.03046607760434       65.99738206115525
C           60.68618869827858       69.27571415967439       67.01707228141865
C           60.67802817936662       70.21234294814373       64.72761352818605
C           60.02742137717068       70.94158051782789       63.54648724064294
C           58.92301976691756       70.09241981209550       62.92260876627908
C           61.08617089389097       71.26378141675571       62.48071044714175
C           61.99663001672852       72.44667510425263       62.83287882572164
C           61.29706033900644       73.76726888655259       62.51051926749701
C           63.32434890753660       72.37504593622248       62.06637511275361
C           64.32576621305213       71.31630221472439       62.55478993173226
C           64.88780206962161       71.69201603535186       63.92377627596211
C           65.44485354364018       71.19407660404546       61.51208185472518
C           66.51486954186464       70.12187984850272       61.76127549436596
C           67.65141294056254       70.33924022618311       60.75949631817910
C           65.96817455673580       68.68709243418333       61.63276533401934
C           65.67623292129534       67.96677290327818       62.95640578982552
C           66.96520890228935       67.70264189594194       63.73646742158114
C           64.98761102237631       66.61440127386150       62.71088911157981
C           63.57562712968170       66.66161681528175       62.11644990789042
C           62.59352559073853       67.35220626928843       63.05792028622979
C           63.08349303307177       65.23885149416486       61.81385361593682
C           61.93003212754519       65.19058642412480       60.79373035629307
C           60.74384085269212       64.40932656070638       61.35741799058540
C           62.36743212785471       64.55553072435697       59.46668697726412
C           63.49928202166897       65.28215333997721       58.72855755033191
C           63.03243118435891       66.61919342093383       58.15596680414792
C           64.06256095524341       64.39937199700594       57.60085321867062
C           65.56822476107203       64.59148901256073       57.36487011079350
C           65.94280534875504       64.09590156411659       55.96983732049217
C           66.36301061725582       63.83322444251031       58.43610483283162
C           67.82529086900195       64.26411394312404       58.61793449977962
C           68.56153652259346       63.19046678992742       59.41862423843872
C           67.90579440945231       65.62006896725616       59.33018277605611
C           69.31861966964553       66.23527642504241       59.37945877019540
C           69.73994587438081       66.50821585518538       60.82339258431040
C           69.40692534753290       67.52912598643388       58.55850345012976
C           69.43132258999445       67.29694560363414       57.04323268634128
C           70.81545407935413       66.82567658723237       56.59860629657305
C           69.06033443359185       68.57667725450990       56.27945664555079
C           67.55864294660667       68.89627851496705       56.22433711686154
C           66.83862827452668       67.91846783632516       55.30047181062640
C           67.38878418553284       70.34314457690255       55.73545871745095
C           65.95198404631621       70.82460946989028       55.47980418776712
C           66.00577791829708       72.22842758906881       54.87744948735799
C           65.13465855317321       70.80141930460603       56.77538087582529
C           63.65768103340058       71.21594003952109       56.67595844474958
C           63.08586651035763       71.23289426570753       58.09425636531208
C           62.87256619985425       70.25998773067029       55.76972468759354
C           61.38287904171171       70.60847321515649       55.57918008984472
C           60.51926363252554       69.38734184927705       55.89308574562049
C           61.06642875084067       71.11019727454536       54.16311403646935
C           61.66280735358774       72.47637554981853       53.80726418146053
C           61.15144946517467       73.57081574106472       54.74652716282948
C           61.30494444721353       72.88522744532889       52.37023636712342
C           61.86763267145150       72.03673056314211       51.21924903576219
C           63.38967438662622       71.94607800245345       51.29283594591237
C           61.41002419215440       72.69044644152297       49.90567142315104
C           61.69191618924037       71.91637012962417       48.61146266546563
C           61.32000358989766       72.79781002187028       47.41816821213149
C           60.92838355579363       70.58104671724465       48.55058616802808
C           61.81129256531471       69.34958993565856       48.78817236605553
C           62.72819978247594       69.10706216786203       47.59029225389673
C           60.94970555028860       68.10982304714675       49.05943143857233
C           61.70798291731739       66.97662514833678       49.76251256970922
C           60.92688838256301       65.67040006780796       49.62748002184088
C           61.95249161640513       67.29768519698501       51.24737074506567
C           63.35172276039551       66.91633182984147       51.75421688307758
C           63.32348654072099       66.79066558169343       53.27699400231418
C           64.36931022186381       67.97051708506679       51.30104486649702
C           65.84815550556395       67.62928738854413       51.53257958757445
C           66.67694812432175       68.90956626414740       51.42675211687887
C           66.32550037177316       66.56968458577991       50.53272061028343
C           67.78074275173968       66.09766083357621       50.68658877528853
C           68.10923186357373       65.11982329153233       49.55799498485256
C           68.00960640462846       65.45314332934757       52.05852401866192
C           69.44242334602090       64.99568679811179       52.37123714953613
C           69.43022355939640       64.27534755958547       53.71913782761948
C           70.40511478681306       66.18847133090415       52.38172283666569
C           71.86524402608518       65.87452125496343       52.73289953557984
C           72.67057307209032       67.17476213132174       52.74152558453051
C           72.51099011099996       64.82246708840196       51.82009497004673
C           72.52508073819162       65.15639075801388       50.33000679344269
C           73.25314066555346       64.07766618528052       49.53605912466588
H           58.28660574599792       68.43989810111789       69.84809736305654
H           59.07472036763222       69.91593377593240       70.41670315179280
H           57.75564260288346       69.21132511238828       71.34110313995606
H           72.78283552776388       63.10876553687254       49.68978777367354
H           73.23665368979216       64.30549128090857       48.47226138618036
H           74.29112322410417       64.00451083674935       49.85409858002525
H           73.54332588766871       64.67940567111344       52.15148050209294
H           71.99558915119272       63.86969093363699       51.95803075958963
H           70.38934255521472       66.66876266899003       51.40267199219821
H           70.03386755096841       66.91950566583964       53.10640338106575
H           69.76215328948659       64.28136280410504       51.60982992860449
H           68.69071175120023       63.47710763736065       53.71115130725848
H           70.39870040398841       63.83523442482510       53.94022751949621
H           69.17870341084009       64.96990843213261       54.51807395973756
H           67.71818019397263       66.15901202237414       52.83715940136344
H           67.34807181523426       64.58596338494230       52.14045971829862
H           65.67432084329411       65.69767011570072       50.61226242824142
H           66.20612942620366       66.97757517509905       49.52467583060488
H           71.90019395929413       65.46840210139931       53.75009921036238
H           72.28567933398999       67.85307978301788       53.50036496398558
H           73.71671064569877       66.97577443010711       52.96306143420107
H           72.61104229794861       67.67812483517612       51.77961139914958
H           68.43479081842403       66.96639982798271       50.57932995846967
H           67.54495827315593       64.19664800002768       49.67659868184567
H           67.86056870899758       65.55357803630264       48.59181763818908
H           69.16777163097260       64.87415313353651       49.54719717972249
H           65.95158969472699       67.23479735440822       52.54485542119091
H           66.62465957986791       69.31356084808820       50.41761016595466
H           66.30167217612620       69.66440258362755       52.11522176394043
H           67.72048625826224       68.72516114176506       51.66900246166257
H           64.22927668625894       68.16710376359813       50.23657470731519
H           64.14216179203945       68.89699097661610       51.83489672020887
H           63.62200188305471       65.94322460050930       51.33454210425785
H           62.60470197748415       66.03210693819578       53.58069075463294
H           64.29662503785563       66.50494875820561       53.66745283099910
H           63.03613898643666       67.73751784880112       53.73059028792193
H           61.80312876004290       68.36352065528850       51.42909196668371
H           61.20621500157410       66.76940494115904       51.84270949532370
H           62.67251583380856       66.84094962492709       49.26418521953965
H           61.43315447223496       64.86543852911926       50.15532281699527
H           59.92711263528336       65.77873298540923       50.04384480206108
H           60.82777888499121       65.38688565362484       48.58093775563385
H           60.09635802322602       68.38518663371835       49.68351623415349
H           60.55189869421219       67.74704715362539       48.10877893136957
H           62.43142134616318       69.53999330404469       49.66767816550918
H           62.13853108963061       68.91876639380705       46.69527611844340
H           63.36496654206292       69.96790330301704       47.40176616863575
H           63.37220414166441       68.24698865829158       47.75967623926211
H           60.12948710570339       70.59913042952365       49.29406441399983
H           60.45137087717777       70.47502000665412       47.57375990693939
H           62.76549813434563       71.72054181798474       48.55173412698607
H           61.55131850132611       72.29196067822042       46.48328043005097
H           60.25628204466501       73.02718149158177       47.43233845039478
H           61.87156628954360       73.73539496049474       47.44291928913704
H           60.33240459288041       72.86729415292936       49.96401055415656
H           61.89440082195530       73.66786541056996       49.83148566658068
H           61.44782410481199       71.02834815623071       51.27511670349941
H           63.82838724034443       72.94173954559282       51.30389769937660
H           63.70434163932067       71.42269135992629       52.19217059649434
H           63.78994549484892       71.40540082527873       50.43943648831174
H           60.21447440137644       72.90089566625555       52.28575780976168
H           61.65344568542825       73.91074233746419       52.21968283798947
H           62.75043362926775       72.42869114034995       53.90396854048429
H           60.06349223359842       73.59845674710114       54.74039523415131
H           61.48644271945973       73.41074940373903       55.76734911931375
H           61.51842340963982       74.54379114597357       54.42650161436610
H           61.41853094450469       70.36608333785048       53.44444981990511
H           59.97978202124114       71.17804886343876       54.05880449378393
H           61.09739964868105       71.39220768977088       56.28196547345183
H           60.67646172593889       69.06475926148647       56.91974221111617
H           59.46308287485082       69.61500003875662       55.76734370789719
H           60.77519599406415       68.56393190239585       55.22967748635397
H           63.35265181950414       70.22947780982032       54.79079012136838
H           62.95264343858877       69.25796327446140       56.19862241599014
H           63.59282308342449       72.22919281682591       56.27047549803657
H           63.64594126425966       71.93265808790771       58.71125023332809
H           62.04273735468382       71.53685952089522       58.10913203864060
H           63.15565993787146       70.24301151565234       58.54189859043987
H           65.16334256878017       69.79082854368484       57.18871844550809
H           65.62698221115356       71.46255716574439       57.49396876193929
H           65.49227572080184       70.15824576741049       54.74559986195823
H           65.01580534502877       72.57165702087974       54.58915697129959
H           66.41837914120241       72.93519401619425       55.59442522384948
H           66.63457850377870       72.23661375669944       53.98918799460357
H           67.85216903891892       71.01308010676802       56.46472254290156
H           67.94713734474631       70.44464554554106       54.80055247848570
H           67.14355328917401       68.80507625346813       57.23280619733784
H           67.07611627991476       66.88986373423980       55.55853965734799
H           65.76001091946452       68.03636546126684       55.36674289835858
H           67.14567873447409       68.09608335043974       54.27274472389950
H           69.58895780866825       69.41510670109901       56.73957937488732
H           69.42144286879763       68.49184595670137       55.25115771389875
H           68.70796272313922       66.51422876373815       56.80008105979244
H           71.55676337956623       67.59945376369151       56.78896956181660
H           71.11602237752625       65.92716087789594       57.13211872203618
H           70.82074113429213       66.60234442107826       55.53486064570608
H           68.56049166160797       68.16640317451595       58.81938315609558
H           70.31497131344973       68.06972932355990       58.83703652310821
H           70.03117130318545       65.52026175108001       58.95915783932951
H           70.76188517632967       66.88010448311940       60.86266320078649
H           69.08960462686203       67.25417278736712       61.27582301139736
H           69.68689343664053       65.59805800102347       61.41739903935444
H           67.22992178325337       66.31902050040279       58.83534868919958
H           67.53359471133199       65.48446864998093       60.34884800232552
H           68.30182307671100       64.34798806437597       57.63558402451020
H           69.60121248526029       63.46181007131278       59.58420108733888
H           68.08670217864508       63.05665108638735       60.38830314345284
H           68.53880604952710       62.23842522730111       58.89202749156577
H           65.86168501982381       63.94164877391371       59.40035661862299
H           66.33888559710591       62.77091477918534       58.17853566404373
H           65.79604927595105       65.65968954752432       57.42608767064048
H           65.43347743807900       64.67623937721757       55.20316918794351
H           67.01390315627606       64.17287894537618       55.79929724152105
H           65.65377526673068       63.05293456708421       55.85745253069054
H           63.88877691015886       63.34619309210296       57.82960341722777
H           63.52316427558283       64.61958132139389       56.67737425315013
H           64.30299216815958       65.48486938124307       59.44175433599042
H           62.18570717881142       66.47219427514250       57.48768438183190
H           62.72853611624986       67.30348756963471       58.94472964334592
H           63.83596816640735       67.08824591622518       57.59156582235548
H           62.68861797168673       63.53303179717007       59.68071850951977
H           61.50201518399846       64.49284100602678       58.80236018646499
H           61.58855075705075       66.21065568486394       60.59365199893431
H           61.03137452085740       63.38308021299542       61.57654877807731
H           60.38116281088005       64.87298819027636       62.27233164271284
H           59.92626755929778       64.39013912161452       60.64187048577230
H           63.91446691496214       64.63863347111769       61.44274222622414
H           62.76553215728526       64.78095499372483       62.75259510123425
H           63.61003778783942       67.21828494744859       61.17559549256914
H           61.58687256380708       67.32259627744627       62.64549194144465
H           62.58263001755935       66.85292957544374       64.02536444993054
H           62.86636603962737       68.39204431919772       63.21329733607369
H           65.62633633254937       66.03187982086517       62.04077803104593
H           64.93760890298543       66.07496684052643       63.66043010664465
H           65.02877656832416       68.59375516885129       63.57399972717182
H           67.60912900494931       67.02134698721137       63.18411623192223
H           67.51937391991665       68.61934353090561       63.91944000828962
H           66.73905626807827       67.24995716429746       64.69975810925671
H           65.05677341216091       68.72044812402893       61.03451206232339
H           66.68884413611073       68.07820639172343       61.08184745889525
H           66.92823175327266       70.26854626745251       62.76107709554125
H           67.28821088674218       70.21291787175220       59.74098554698920
H           68.05987494693605       71.34359791805439       60.85127835247897
H           68.45855929899739       69.63089608071084       60.93131023027162
H           64.99286208845722       70.99789381045345       60.53651150424767
H           65.94469212954300       72.16477234077288       61.44771384331823
H           63.81411843746772       70.35386736306950       62.63544308336655
H           65.45595516813756       72.61785913534938       63.85766682023654
H           64.08907980338471       71.83323254158296       64.64720927019646
H           65.54224284234614       70.91308029363110       64.30574659655764
H           63.09184574943812       72.18532439999724       61.01587882106668
H           63.81374199237859       73.35074563739892       62.12128254979269
H           62.20356437112552       72.43417911850182       63.90573702284513
H           61.14150520043958       73.86086987005172       61.43729634809613
H           60.32915320961591       73.82275710887433       63.00265731776481
H           61.89598833204242       74.61192188383522       62.84414257175852
H           61.68757286234618       70.36847852743351       62.31716476583068
H           60.58441470617930       71.48909731985188       61.53661494745918
H           59.58977352495082       71.87970107063968       63.89638386767838
H           58.18268345806909       69.81453607442708       63.66569646437802
H           58.41939691619702       70.64050894934915       62.12910216784454
H           59.34192758380465       69.18439138328536       62.49370476699320
H           61.58630912300629       70.74707906056049       65.01340842016542
H           60.98140288402926       69.22138166439149       64.38341962218485
H           58.96206772199994       69.41278552212913       65.75518067699016
H           60.10595280093189       68.99022378473651       67.88886001269356
H           61.08772652184597       68.36962187108507       66.56732881194620
H           61.52131827441897       69.89257271471847       67.34295120137848
H           58.57600514684903       71.76829771601354       65.86544556957791
H           60.18916362614526       72.08199565677140       66.50437799796761
H           59.56923094802783       71.06503704475934       68.64801500121455
H           58.09456833618655       72.91630845990353       69.36040960411520
H           59.29714105686919       73.48863748999040       68.21203298968344
H           57.63747131268562       73.21416974750532       67.68298138528584
H           57.78199410999683       69.51805733633287       67.64811910898869
H           56.73558661662884       70.92828202718026       67.55099723467984
H           56.96732637920073       71.18351330726098       70.05905761282105
H           55.41541208822799       69.31983750890009       70.55447340989934
H           55.00746233205324       70.08378808645726       69.01893492586480
H           55.85291628332423       68.53650021720252       69.03834390377807
H           71.50288641103523       65.24362341197036       49.95832533316920
H           73.02276576446503       66.11328054993729       50.16750233404156
C           54.27446334008567       38.38102690871566       64.03949097409978
C           53.00654691414361       38.98164325613444       64.64687750606177
C           51.78308508900497       38.20877122219894       64.16185667212093
C           52.93341132161493       40.46713969433062       64.27691931168042
C           51.76406916934270       41.27666314795343       64.85666443482711
C           51.76537751214965       42.65556206627316       64.19768990257990
C           51.87915234050091       41.39846001087675       66.38071041038994
C           50.67696732567245       42.01787170328996       67.11367279124622
C           51.10785160362341       42.36160491591261       68.53995479666720
C           49.48215960191335       41.05619660340879       67.11179513102788
C           48.16568640873432       41.61566549669465       67.67691602989098
C           47.22512130150661       40.44483894388818       67.96732490659429
C           47.51319462758808       42.61750104046069       66.70750773109540
C           46.88967795635967       43.87764947684757       67.33433075695413
C           47.93947555811304       44.71837356407321       68.06083742982094
C           45.70904301916045       43.54363860109343       68.25333341522047
C           44.89653430046121       44.75624513562231       68.73706048048302
C           44.07629405279263       44.35968397334808       69.96385515851350
C           43.99768395016852       45.30066260828161       67.61930308155063
C           43.44552769706540       46.71683113969366       67.86779583766959
C           41.98425339279326       46.66629207431200       68.31970335308027
C           43.52225592204786       47.58656878229281       66.60362323672037
C           44.92611163782519       47.93853027658663       66.09736486865425
C           45.69678765279779       48.76464367676575       67.12706428871461
C           44.85399691384534       48.74304104415198       64.78870799376166
C           44.08653363260807       48.09430859189120       63.63211478189898
C           44.68727998483389       46.74473911163816       63.24174277675430
C           44.06636707408840       49.00148116629356       62.39315042192837
C           43.44178527105493       50.38888098953920       62.58432060624601
C           42.08431097361703       50.31318991413167       63.28141513895729
C           43.23779690924792       51.09134543548544       61.23500252839136
C           44.47332951458718       51.27441453552170       60.34414018463954
C           45.58415651794085       52.01184376654935       61.08385300944619
C           44.03667517563820       52.05368637343337       59.09542643876508
C           45.03719201689848       52.13487024146166       57.93289980664355
C           44.43750013305016       53.04555432852649       56.86208533792478
C           45.34585768161791       50.73222221063348       57.39447183962979
C           46.12412420622332       50.64945675116294       56.07251394350195
C           46.32549633074107       49.17330874315060       55.73082049964128
C           47.45929436669542       51.39774189562658       56.15763110642561
C           48.39626499684707       51.27450260884599       54.94353304931035
C           49.64239364238002       52.11781838724114       55.21152566664831
C           47.71003550703867       51.71376406196909       53.64415877174285
C           48.50677443636975       51.52038038449849       52.34357808106796
C           47.71131806737833       52.12945354403320       51.18847939143696
C           48.78596593233571       50.03541271577521       52.09143926819425
C           49.59617969092015       49.68815294748372       50.83328625878147
C           49.74043824041642       48.16780132521116       50.76819963764459
C           50.96077193109887       50.39030464083687       50.85578959526626
C           51.98069485745236       49.96999852194757       49.78515956311852
C           53.26857105938734       50.76605499268413       50.00338156959923
C           51.43820738619275       50.19254778377642       48.36982162222778
C           52.28609924950138       49.61293336682207       47.22707367836837
C           51.77850900325643       50.19562331045575       45.90868012066717
C           52.21078960059845       48.08158260513872       47.19195255878492
C           53.29465552131403       47.41166809976948       46.33191921359058
C           52.79791253532100       46.02975614474516       45.90354595947898
C           54.63249458165410       47.30164185946860       47.08767530156519
C           55.88303970585977       47.62966054079284       46.25882581894417
C           55.95457190243963       46.81741800450065       44.96504662051084
C           57.17610846639271       47.35459062939708       47.04670777627040
C           57.31900006051871       48.02631843278393       48.41609546169412
C           57.11977229175525       49.53944884911230       48.31704721949198
C           58.71171558543754       47.77432301656090       49.01748309926529
C           59.14395389769467       46.32447815178701       49.27663420322850
C           58.28755069848923       45.66572996076808       50.35395662666035
C           60.61372208028764       46.30085936772351       49.73136483912447
C           61.63383664919738       46.36046907521825       48.58736997665625
C           61.88786963376313       44.95614831122221       48.04248030815396
C           62.95607648881463       46.99619860529627       49.03931986562009
C           62.86498393774513       48.51947769448815       49.27188055490413
C           63.90952724806525       49.24692124555236       48.42700501851014
C           63.01983573586014       48.88977287715467       50.75436916294181
C           62.45897247208673       50.26836717154816       51.13892604933410
C           62.94029715648048       50.62377648384480       52.54464987642544
C           60.92240839162258       50.27843265082604       51.06799971135223
C           60.25303322390575       51.51142164000925       50.43747563888377
C           60.76520352601345       51.78459760915827       49.02408347907814
C           60.36230005190274       52.75694252920184       51.32279493949045
C           59.34177359607716       53.85360142043194       50.98177627709234
C           59.76253880412962       55.16616944990506       51.64229428035720
C           57.93366319542428       53.45086610028485       51.43977430733977
C           56.78691996586092       54.13847163068542       50.68438815968238
C           55.50957828919877       54.05126962689824       51.51740987321363
C           56.58002274682380       53.48160615167758       49.31397366728855
C           55.67443792804594       54.24506692907081       48.33584015556983
C           55.28374012657546       53.31249954265547       47.18988602736366
C           56.37168147515922       55.50675218181495       47.81604896044239
C           55.49213611866337       56.39704480503936       46.94022240858335
C           56.18023493279148       57.71943763218711       46.62299676719149
H           55.15747419203359       38.91176539471407       64.38864944609135
H           54.37302438853742       37.33369102009011       64.31561060318148
H           54.24224427084449       38.44703930166349       62.95370010986642
H           55.57542909058110       58.32039993859011       45.94757385835563
H           56.34659210346338       58.29294485245060       47.53191609610020
H           57.14376847157303       57.54339763389304       46.15038035152106
H           56.70070107051436       56.09967311209486       48.67112330018720
H           57.26274850918285       55.21954356040666       47.25392996264312
H           57.54880914499076       53.33565858929964       48.83207675520746
H           56.15060743588393       52.49094833583587       49.48190753627333
H           57.03996661420781       55.19393261924230       50.54869823098878
H           55.26468100286456       53.01127650642528       51.72470903309029
H           55.63633304921864       54.57045643816915       52.46481849078505
H           54.67194718350510       54.50194692083173       50.99277537124299
H           57.80302568324419       52.37331124262040       51.33409490089570
H           57.84704761257801       53.67882574430305       52.50337456804309
H           60.21082514331013       52.47017818708219       52.36586974980619
H           61.36969756790111       53.16905209449524       51.23302201672028
H           54.75727149742815       54.54619777953808       48.85255545962552
H           54.60083871799579       53.80516029069291       46.50238424392285
H           56.16788595601983       52.99687684917317       46.63915008163058