3536
 energy: -3716.229297932755 gnorm: 0.000719505099 xtb: 6.6.1 (8d0f1dd)
C           65.94996163112806       52.87680862210266       52.00840775322393
C           66.54412507727147       52.81188944144286       50.60367787635077
C           67.36701949838834       54.06760317499477       50.33221475973704
C           65.40738652527784       52.63458458266783       49.59240142861900
C           65.80127122379984       52.65838742904424       48.11002195838721
C           64.53810220389352       52.45815252243329       47.27455611303745
C           66.86017595069077       51.59023616999961       47.81434688770184
C           67.27495670315962       51.42218592339081       46.34587147621991
C           68.30406443858482       50.29526112510387       46.25678555476674
C           67.82079127477294       52.73175500003850       45.76452954475552
C           68.22798916091318       52.69320489556792       44.28281388371738
C           68.84317579722409       54.04146979164866       43.90328741821520
C           67.03368496143229       52.35942178189401       43.37005939394317
C           67.27824464984509       51.22085048057122       42.36815099060174
C           67.95747380624658       51.73428183915201       41.10070777273452
C           65.94935101716742       50.52047314780347       42.04530752532533
C           65.58711949655816       49.46509244622793       43.10656967589032
C           66.14291318834104       48.10418109811600       42.69099195074349
C           64.07285474731329       49.42520779509687       43.33620403698222
C           63.57412159242301       48.41291398680510       44.37825347783975
C           62.04703824801431       48.39228600434743       44.34029194012781
C           64.08053235092527       48.74038952234597       45.78695200165865
C           63.89379620162609       47.62998567427940       46.83114356500877
C           64.33210429903576       48.15307201477814       48.19889107369801
C           64.68229925434845       46.35806410490576       46.46582190451787
C           63.81006653467436       45.22012470626298       45.91821523166596
C           63.03807010078020       44.54816139476004       47.05188010157737
C           64.64480155516979       44.17591611805138       45.15834062621284
C           63.89048566429764       43.54956488713525       43.97450341586207
C           64.49266875016416       42.18793905400741       43.63435813047751
C           63.95269604992950       44.49446119425875       42.76771846373165
C           62.98232773063892       44.20719841453534       41.61209438667363
C           63.52072786155665       44.87926796877809       40.34559860319435
C           61.55221965445083       44.71228547769768       41.88057690996276
C           60.57064359060262       43.69973911287298       42.48218429565075
C           60.30448579154557       42.54541472682282       41.51518001795694
C           59.22638845719546       44.36467788265172       42.82029029804438
C           59.23924045101730       45.42916392640275       43.92467608003214
C           59.66621174621440       44.83396370760845       45.26392538804454
C           57.84808984571650       46.07418140198343       44.04261172782144
C           57.60885204010921       47.22579309033922       43.05768864832600
C           58.26119101900815       48.50772606613292       43.57449247527566
C           56.11047334076115       47.48480589580409       42.85524552649169
C           55.37860527980222       46.49239314364987       41.94244918989239
C           55.73451240245092       46.74761021820200       40.47972268961630
C           53.86723476806163       46.62808223718399       42.17180648346581
C           52.99210827386094       45.55928717189116       41.50398922125956
C           51.53078704083369       46.00260118785178       41.58191415317147
C           53.19579141620331       44.17803091252075       42.15426109911783
C           53.40319519132147       43.03376854305110       41.15495713926885
C           52.08214630775973       42.62658888642093       40.50437134862505
C           54.04876195463316       41.81641004971742       41.83506435138156
C           55.56169095319277       41.93608962035926       42.05513771095798
C           56.31207312005638       41.89434915307867       40.72298875448044
C           56.08717955110380       40.79756374908388       42.94217692061799
C           55.74191779333471       40.85395951226917       44.43872326082777
C           56.39396452891205       42.06062380227623       45.10498496231194
C           56.21819085741021       39.53521966515513       45.06861276129893
C           56.02891180282985       39.35432810521058       46.58251666318340
C           56.62027887237686       38.00052003580029       46.97798347883590
C           54.55198397087563       39.45754527378889       46.97759293932044
C           54.22661030134012       39.19058579701020       48.45697158764710
C           52.71599717311917       39.31734158741673       48.65347927063053
C           55.00411374619431       40.15589211179370       49.36114323480474
C           54.61628501138448       40.19130116701972       50.84682769046825
C           55.44812513450834       41.27413949966116       51.53395125732601
C           54.83762516999531       38.83304193551056       51.52203892572446
C           54.25458659225668       38.70857268664901       52.93867592754012
C           54.89083712818007       37.51071121680845       53.64352104068238
C           52.72910561569888       38.56606462439617       52.87942123878700
C           51.99314174710744       38.72938695504482       54.21649200007450
C           50.57302659696516       38.18083320893439       54.07159084562683
C           51.95639674605697       40.19535254015719       54.66390639070011
C           51.47806907447843       40.38850616898080       56.11583499339127
C           50.23474573838926       41.27528717884027       56.16188815537254
C           52.55363724675933       41.01051331152880       57.01379973974412
C           53.82979289808793       40.18470954143417       57.22262691307278
C           53.53105382176682       38.86956197753435       57.93632944931478
C           54.81456860201408       41.04899131412594       58.02319194165332
C           56.19211357280042       40.44681855258199       58.33503789168744
C           56.97776295986510       41.46256249299622       59.16334484584204
C           56.92666750334971       40.07486601838066       57.04229196675009
C           58.36092833945244       39.54303266105774       57.18600388847496
C           58.91258368675553       39.27619764082220       55.78485165275141
C           58.39855352991455       38.27739887112110       58.04946187460916
C           59.77928300825281       37.63460660280771       58.23512625367890
C           59.63087900370990       36.32482308119309       59.01146345792223
C           60.80853234781654       38.56068326186362       58.90028964438668
C           60.43980442425901       39.06654375736799       60.29344629275526
C           61.57910297658302       39.87191109546587       60.90553274861549
H           66.73434347027668       52.98130136934343       52.75341970328839
H           65.28231591172322       53.73145909255263       52.09202765069536
H           65.37726477557652       51.97863026847684       52.22926944408311
H           62.46372797120359       39.24994049900251       61.02519957659990
H           61.83637650123082       40.71401401065985       60.26681154744840
H           61.29852704974208       40.25606169964632       61.88353183849720
H           61.75427835706860       38.01466648149950       58.97031878421203
H           60.98330772188205       39.42270913173602       58.25281633955511
H           57.99552052792816       38.50698098964381       59.03619874679644
H           57.73942256098040       37.53181797990459       57.59371261451805
H           58.97764392769796       40.31415748587428       57.65354850916943
H           58.40252502084495       38.42877678143525       55.32972002123606
H           58.76154197771454       40.14530516061851       55.14818728118978
H           59.97753650150186       39.05990594282235       55.81291523214188
H           56.34435733612830       39.31588840275423       56.51497294377909
H           56.95927537460044       40.96392463604102       56.40598830591884
H           54.97229754601591       41.98253892802414       57.47580894029299
H           54.33705654575665       41.31117648982283       58.97188462735456
H           60.17697478967725       37.37656134011761       57.24698431756149
H           59.16236457181866       36.49345332170891       59.97735827687197
H           59.01011321835652       35.62366833105633       58.45733584625198
H           60.60271047543814       35.86333555963133       59.17506112190284
H           56.05213081202744       39.54688856912856       58.94097045131995
H           57.91866922010746       41.04669300350829       59.51046154013501
H           57.19427894038251       42.34965315826346       58.57237013837128
H           56.40263697094755       41.76557496526149       60.03614197916255
H           54.26417046860382       39.95796892720476       56.24479904000779
H           53.08105374881247       39.05782616320516       58.90804749404492
H           52.84412220512618       38.25879416148639       57.35572236296172
H           54.43998652085250       38.29144790221032       58.08220760487405
H           52.83207418128118       41.97956930176734       56.59036591595947
H           52.11050301461880       41.20134514787082       57.99539851378339
H           51.20513320686699       39.41581002341506       56.53522441728735
H           49.43207064733422       40.84471008825955       55.56755466728045
H           49.88094036733938       41.38496739223091       57.18425755205494
H           50.46272316984276       42.26386825208004       55.77081407686538
H           52.94935308873337       40.63004080081775       54.55202168205653
H           51.29648768353080       40.74099429478328       53.98624229299126
H           52.51029219863045       38.14170373517277       54.98120459311684
H           50.00737142167680       38.30464638169961       54.99167264701809
H           50.04750444375940       38.70387656586839       53.27455169878348
H           50.59276967850514       37.12025873571806       53.82747391649407
H           52.32380467356010       39.30531374877608       52.18548683619508
H           52.49948384289293       37.57733611047474       52.47151119674832
H           54.51077636457298       39.60543435355876       53.50791072985085
H           54.68303095235310       36.59192233446648       53.09769181531318
H           55.97033704371708       37.63522302148931       53.70383193916690
H           54.50895791046604       37.40034585760224       54.65544257249294
H           54.39870146364713       38.04311659671089       50.90960290318235
H           55.91460368641510       38.64893645144446       51.56567463985864
H           53.56249050871299       40.47035847801766       50.92900454606448
H           56.50075939388299       40.99853911053640       51.52339574151934
H           55.33907177981087       42.22618476835544       51.02027092174909
H           55.13786907925341       41.41386695214109       52.56591265708756
H           56.06738602594850       39.91497790387825       49.29977761672836
H           54.87303974751220       41.16438226970734       48.95929215407616
H           54.51130258208651       38.16111264582013       48.69407751834493
H           52.18809174469260       38.72797853305728       47.90575332788385
H           52.41350567009723       38.96031865464005       49.63395650171067
H           52.40408440114993       40.35403345760714       48.55288130469207
H           54.19227541206039       40.45879695820682       46.73037911353676
H           53.98495451229837       38.74723995885992       46.36859696305551
H           56.59507955621101       40.13233806332705       47.09979985389422
H           56.65345252374820       37.88412546491124       48.05773275354755
H           56.02742252397376       37.18833508101136       46.56119760072649
H           57.63623939958509       37.90695193030359       46.59970717277420
H           55.70542502982841       38.71183113831594       44.56243254296926
H           57.28570306813616       39.43175696554874       44.85335297089516
H           54.65657141916893       40.93068347241266       44.55359876619374
H           57.47487348537550       42.01611397856471       44.98677516041199
H           56.03832144614068       42.98712080425732       44.66104583642338
H           56.16047390174826       42.09225638105544       46.16482765000973
H           55.71559551063413       39.85402475237164       42.53223294706157
H           57.17769488704851       40.77472020749562       42.85810923960275
H           55.78226893044756       42.89475091376798       42.53239486109263
H           57.38155222202300       42.00174455384261       40.88632143073114
H           56.13613412173154       40.94625363504412       40.21784999022683
H           55.99592644618579       42.69689477115171       40.06212536784073
H           53.55086170136415       41.65590964930603       42.79343499737858
H           53.86751907257063       40.92858584353197       41.22325700243402
H           54.06991973306841       43.38468885163455       40.36099081514337
H           51.63786766053272       43.46517823385153       39.97383489894763
H           52.23828262518816       41.82299310614304       39.78699745743672
H           51.37717696098250       42.27896425899878       41.25748504560398
H           54.06455344913640       44.22134808910422       42.81088582698002
H           52.33754373201525       43.93903525223001       42.78412718994514
H           53.26236011508736       45.49515975106090       40.44499949452106
H           50.86982132170561       45.24332119367307       41.17141654430552
H           51.24271915812036       46.18473145813613       42.61595415673590
H           51.37750223292813       46.92393851750488       41.02212425347176
H           53.66600952883309       46.59962369456876       43.24616321835403
H           53.55879448460968       47.61176181230609       41.80988280504003
H           55.69420900777438       45.47539011755789       42.19628507582977
H           55.30559854128607       45.98435510272618       39.83462031071738
H           55.35842324640190       47.71857095260025       40.16238706972144
H           56.81206760316863       46.73423108914688       40.33356797479537
H           55.63657244971282       47.48182078158812       43.84017493189595
H           55.98156147159767       48.48448306973822       42.43485331911782
H           58.06324822140221       46.97005216541614       42.09501772536139
H           58.17689252416613       49.30359049409464       42.83732493840097
H           57.76761874453123       48.83705821330194       44.48673761472907
H           59.31416328582625       48.35434206128537       43.79030449435493
H           57.09229554662897       45.29951273023881       43.89664684913267
H           57.71613082996318       46.46657186909545       45.05312492106847
H           59.95417469678637       46.21199712421140       43.65844804933787
H           59.63148202662217       45.58947421779691       46.04566297645787
H           59.00880593131750       44.01616156278062       45.54981068043479
H           60.68227167003531       44.45572080775178       45.21312985094335
H           58.82998116776557       44.81283538652628       41.90490371138196
H           58.52787535237421       43.57845313289259       43.12105900114509
H           60.99772567326200       43.27724224632679       43.39410125264941
H           59.86516731924790       42.91598092822013       40.59025493752227
H           61.21763139976181       42.01126598541018       41.26569118799771
H           59.61645613286517       41.82884272698380       41.96054897683963
H           61.61672144134590       45.57891226034987       42.53953882080496
H           61.12135664232329       45.05863643600298       40.93698065409787
H           62.96237379447161       43.13010136796542       41.42933085983996
H           63.56045851193031       45.95878427794292       40.47956318578647
H           64.52386489340722       44.52578759205086       40.11478727232507
H           62.88214052073261       44.66283200559909       39.49156216928029
H           63.78080702383892       45.51805346345456       43.10547540189235
H           64.97457018534384       44.45590577789304       42.37848971875091
H           62.84831814602625       43.39959232271943       44.26721835052620
H           64.40490253697772       41.50939666038341       44.48040134878480
H           63.98680962884325       41.73511724339137       42.78472705000558
H           65.54772934127480       42.29077181105538       43.38643939182661
H           65.56269799372639       44.62955545357592       44.77581762490215
H           64.94647560585364       43.38861681483345       45.85220384580343
H           63.08371599153072       45.64884278775226       45.22188618137570
H           63.72437181378127       44.17860667672851       47.81165234226124
H           62.35037227086191       45.24394841949836       47.52506924034225
H           62.46141389818337       43.70427051307102       46.68007430489953
H           65.44603594495567       46.61742984414585       45.72928676394950
H           65.21256609859063       45.98835732838226       47.34662223441708
H           62.83071725803876       47.38337564081282       46.89915017292441
H           65.39191587247301       48.40213202570940       48.18727524313222
H           63.77233720912332       49.04543295877141       48.46880050313354
H           64.16645516549966       47.40125015686780       48.96734554594247
H           65.14634571271890       48.97079728561219       45.74382619093450
H           63.56422823939446       49.63892281962938       46.13391864934975
H           63.93804801982925       47.42463738313400       44.09073915148193
H           61.64677798894998       47.65395019415713       45.03087468050249
H           61.64838055773892       49.36884800243590       44.60995816628465
H           61.69974205875766       48.14852127286079       43.33713196537879
H           63.74332280911224       50.42349519891631       43.63917279874726
H           63.59098861488739       49.19668609453010       42.38052245163362
H           66.07138166497101       49.75346837990958       44.04307957492502
H           65.58814706385959       47.70562643365169       41.84333002646749
H           67.18779955962613       48.19765278242570       42.40120738495170
H           66.08728956314636       47.38718122376772       43.50593539833993
H           65.16323916207234       51.27596221382957       41.97960756768686
H           66.01082447480415       50.03607003404736       41.06845023470171
H           67.94567331260404       50.48086098595203       42.82493512390261
H           68.89585524800071       52.22769190034116       41.34329093647533
H           68.17388008828388       50.91211443753702       40.42080736040239
H           67.31746881215068       52.44587167463035       40.58369190298536
H           66.18104177455903       52.08537376957722       43.98981703180683
H           66.74347402495864       53.25049462832588       42.81068505670527
H           69.00297161845198       51.93165498662761       44.15283618225682
H           69.71300303264343       54.25756203953345       44.52081880681423
H           69.15663523476046       54.04551697810931       42.86206158378726
H           68.11886102118810       54.84242170044478       44.04231946364337
H           67.06431862365228       53.51081012343672       45.87749064585319
H           68.69113413862769       53.03264348458803       46.35449869595708
H           66.39269610996382       51.11504717243736       45.77931102205368
H           69.22903870428284       50.58012375696818       46.75490480634876
H           67.92442806901492       49.39524526689700       46.73660561062718
H           68.53274615837026       50.04871176219663       45.22329206468238
H           67.75951995205018       51.81591401580691       48.39076675504593
H           66.47732538140272       50.62908306644695       48.16856732661549
H           66.21231075963317       53.64566337010678       47.87953261910602
H           64.13967837709676       51.45808920789241       47.42935194248498
H           63.77494204412817       53.17863431875352       47.56418939431931
H           64.73742187502933       52.59137511390173       46.21551141331518
H           64.90506470931047       51.68597203014222       49.80288534519108
H           64.67726203897648       53.43219378289119       49.75958370036706
H           67.20776174086873       51.94156790915118       50.55526926725400
H           68.12236335517561       54.19191895767171       51.10476197856033
H           67.87450313249299       54.00993793623402       49.37269532951062
H           66.72439439929050       54.94540032995589       50.33243744696786
H           59.55084232372965       39.69627910866102       60.23372160548658
H           60.21160197706068       38.22311265540453       60.94755246478373
C           47.46513046309538       58.11859441107192       69.64563342619971
C           47.87868866861867       57.50953992450752       68.30550616771860
C           47.52663119103024       56.02511056928482       68.28965292972858
C           49.37434887168690       57.75909420442338       68.07559064222103
C           49.99736595797744       57.14344627298394       66.81453316125895
C           51.50483555566038       57.39468603304798       66.85042541835533
C           49.37860238505334       57.71343190836467       65.53522697880419
C           49.76901341206383       57.00525008473051       64.22938460549915
C           49.26757591861518       57.84441683084780       63.05365292110638
C           49.20003150626736       55.57782809607799       64.13087266599115
C           50.18302096228367       54.45072143899084       64.47457420722131
C           51.25302167320125       54.31369461179065       63.39175696498428
C           49.45381504851754       53.10540111508564       64.60846816560151
C           48.54990922447439       52.94651605598689       65.83588784599938
C           49.36503215872065       52.96567373481128       67.12786193784223
C           47.75992695834474       51.62985827941218       65.78410429973516
C           46.81330010563408       51.45421796557174       64.59430201859971
C           45.78103209351705       52.57900562860048       64.54998550136597
C           46.07759452515351       50.10894064653515       64.66450984265103
C           46.95141473761660       48.84706063019315       64.71444703421766
C           48.03246068346916       48.86643923641594       63.63496462365678
C           46.09219884100011       47.59134903822035       64.50444135295429
C           45.01923478780981       47.31948358483696       65.56584829537734
C           45.63898003201916       46.68409489526971       66.80931630862470
C           43.92370962534292       46.41031855029771       64.98970759479815
C           42.94130951913446       47.14568643594465       64.06652101753302
C           41.86830827717346       47.85861522941066       64.88970620461328
C           42.26983939185663       46.18310823808466       63.07765704442403
C           43.15744573940162       45.68010871665756       61.93096949738607
C           43.57405726397470       46.81759156238410       61.00064669032779
C           42.40568670881662       44.60633712855083       61.12960631143500
C           43.32201864100087       43.65379287356294       60.34583625944593
C           42.56697759807349       43.07610110507641       59.15006581917516
C           43.82770006957639       42.54188127964725       61.27279376090599
C           44.98428855722970       41.70045006083318       60.71873665230155
C           45.22320521443216       40.50363195113594       61.64082869312612
C           46.27643405453649       42.52295371234372       60.55682676886103
C           46.69557697869411       42.78240358379617       59.10246170079478
C           47.10836308930347       41.47798703768535       58.42480279066910
C           47.84864731102714       43.79515175106504       59.08837590142178
C           48.21666629512801       44.38630703031955       57.71890335534228
C           49.59962798674809       45.02974266028792       57.82539097198882
C           47.16202151345782       45.40960426047474       57.27658405989454
C           47.29645124004635       45.93763745575905       55.83676339788288
C           46.97628137737873       47.43306205204230       55.80676206603518
C           46.37556771805125       45.21816697081934       54.84130930266313
C           46.66605861699989       43.73123553653278       54.61757978396493
C           48.06997301004039       43.52508138992840       54.04725114085505
C           45.66795456384463       43.10263020673055       53.63321290743565
C           44.17793032862460       43.18893787086661       53.98361765025164
C           43.90019277494970       42.69286903324781       55.40237633003773
C           43.34267255241980       42.35020153538417       53.00135009718250
C           43.53802554643087       42.65268682558334       51.50967687899050
C           43.19285197727066       44.10320351172690       51.18634104233795
C           42.67771587312654       41.69689625543442       50.66798036687607
C           43.17988080868650       41.49851497740872       49.23045422498146
C           42.13155337252080       40.73232024024266       48.42357337738207
C           44.53669922609333       40.76593288864601       49.20440421521181
C           45.71130697540040       41.65234780151219       48.76215775943004
C           45.69634285325321       41.82383486124751       47.24530810342065
C           47.03955577891395       41.05437267648529       49.23929956722793
C           48.25848818609673       41.98227337997640       49.14023811205452
C           49.50407205857412       41.19541625626363       49.55003078251647
C           48.10121064641903       43.23053850945563       50.02650834844287
C           47.67712182451299       44.50942275903933       49.28539081781742
C           48.86210390096610       45.09434917754803       48.52409141128140
C           47.09278167065646       45.49904236539557       50.30075077009097
C           46.65027257775353       46.87219580085549       49.77155156209213
C           45.99487048965690       47.63320464650182       50.92297771381425
C           45.70139301863924       46.72612875017372       48.57789523146598
C           45.09248118060705       48.02038515071786       48.01527047683356
C           44.24398959515912       47.64565428875108       46.80050107799062
C           46.17663446350177       49.04377250753375       47.66072953573326
C           45.71146402308715       50.32250662091852       46.94429081473539
C           46.91946910844129       51.24416127253510       46.78314629478199
C           44.58396334776473       51.02882571409917       47.70555124066726
C           44.04219213312473       52.32201251563898       47.07333923738884
C           43.06216409785669       52.96056338554735       48.05793127347400
C           43.36798825838656       52.04675752405019       45.72343314125300
C           42.92834476779342       53.28522917326540       44.92794596143483
C           42.09725762038314       52.83746434604238       43.72474392583543
C           44.12346871303591       54.13594629729626       44.46042350981075
C           44.35938798647248       55.40417210502608       45.29225394252838
C           43.28970439217546       56.45260849682029       44.99182218879836
C           45.76018959993532       55.96295144857472       45.01477687932878
C           46.23935613697424       57.05078680033748       45.98561326963872
C           47.63894943249958       57.50790054526474       45.57642821890036
C           46.20804907814549       56.61722684775226       47.45934127381977
C           46.99660467673026       55.34966166351613       47.77762095276938
C           46.77973302311720       54.89608062002619       49.21448836243634
H           47.99548727700508       57.63336400549651       70.46328175077484
H           47.68916664149499       59.18208858694986       69.67668761505357
H           46.39693851305335       57.99253864324724       69.81178152876836
H           45.72958919925280       54.66899154849170       49.38874337111576
H           47.36406241420394       54.00121122171647       49.41954269382880
H           47.08115479239873       55.66983643091174       49.91492450597469
H           46.60490984090470       57.43821316341669       48.06266604566154
H           45.16899490592131       56.47487847145556       47.76630344041381
H           46.48355311102888       55.14476743318905       45.02844460176903
H           45.77235491112033       56.37896016055828       44.00291939098669
H           44.29131693049983       55.13364079056731       46.34775989197691
H           43.37403651598490       56.79664764346472       43.96212264325287
H           42.29115323777378       56.04371402291426       45.12969242721938
H           43.39156584321245       57.31268942349677       45.64948165267160
H           45.02309864912593       53.51897609187518       44.48381588353877
H           43.97114313261047       54.43700096969729       43.42073590417062
H           44.04969927441685       51.47516486025840       45.09023853090104
H           42.48826420749977       51.42069434160455       45.90177159340542
H           45.57099418843685       57.91600674749265       45.89377405497514
H           48.00792292281716       58.27236770286120       46.25517185612541
H           48.33423739669850       56.67289815539095       45.58785148279771