3795
 energy: -5103.664359777702 gnorm: 0.000952418948 xtb: 6.6.1 (8d0f1dd)
C          109.35231509299115      114.02763239235409      116.30398523663968
C          109.61627090894036      114.34555266568529      114.85597618719531
C          110.24326207513271      114.90864790032353      117.18623398192216
C          110.15901239169088      114.52842553216246      118.66224277722890
H          111.27942561284236      114.80155857204578      116.85440583911270
H          109.97384468540319      115.95654815175745      117.04110939579478
C          108.77808146842708      114.75745663786033      119.28750483024783
H          110.43570905867793      113.47953819136706      118.76761391154353
H          110.89234768391519      115.12928390488692      119.20317688698518
C          107.80860768606895      113.63159350445650      118.97897021036179
H          108.88944690467281      114.81061755282805      120.37087601049762
H          108.36071123168065      115.69737423466616      118.92646715521556
N          108.10866879672133      112.46878175789519      119.55634856214522
O          110.49600087610143      113.53481963673012      114.30294983501378
O          109.08888259214245      115.26418594471382      114.26014575319320
H          110.66588473673661      113.74654496662703      113.33664558358606
H          109.58024548822874      112.97830592418903      116.49432900056148
H          108.30319984283801      114.22566555938759      116.51640059517682
C          107.49571757641162      111.21959933120571      119.15083034221490
H          108.99783328273631      112.39290849218955      120.04053536551103
C          107.89948913350804      110.09234964970946      120.09100261749049
H          106.41051897698730      111.35485505867585      119.13008075884122
H          107.82694098737714      110.98495463444459      118.13243333751561
C          107.04754933928110      110.01951424087748      121.35427447934693
H          107.82085491558411      109.14595693815789      119.55620859002603
H          108.94967594313547      110.23357216768457      120.34764848938548
C          107.66352587779127      109.07816195764821      122.38840819361420
H          106.94106836449353      111.01273664139875      121.78366989088687
H          106.05221305111041      109.66854298047360      121.08201215308281
C          106.64739659863535      108.63256374273112      123.43383381896251
H          108.05624014865352      108.19856363831654      121.87555669220951
H          108.49945968829911      109.57238847975162      122.88259889882885
C          107.26640063148527      107.70430504308094      124.46979525249753
H          106.21804570216760      109.50258908754623      123.92930457462425
H          105.84087782035895      108.08782429085039      122.94453051693954
N          106.21990551622628      106.99885038840779      125.17888440365364
H          107.92071229607755      106.97844850999059      123.97368989750744
H          107.86761749754268      108.26225938857282      125.19296098169833
C          106.34907179311304      106.52294416920259      126.41833025725686
H          105.37683946124326      106.81766094882619      124.64814688984536
O          106.79426173676842      113.79685830733733      118.29775064583899
C          105.09572359295528      105.87741608761534      126.97851644916354
C          104.38725514923301      106.83518763173328      127.94649407421679
H          104.42678003826047      105.61060331333285      126.16028910607220
H          105.37921060366669      104.97164026830929      127.51605161169012
C          104.08132063757091      108.18245912480134      127.29798273107353
H          103.46114267616116      106.36723715587986      128.28472811087141
H          105.02651830822236      106.99053634978577      128.81704475299452
C          103.27898878389654      109.09880499672694      128.22640562266042
H          105.01916539969169      108.67768260550059      127.03880749092471
H          103.52290095294474      108.03538469153884      126.37209556979890
C          103.20332295452832      110.49848794184592      127.64336827285624
H          102.26104814626568      108.71574372114098      128.32881050170170
H          103.73212974968918      109.12188703391850      129.21772291352195
N          103.29211343349093      111.49526497068146      128.53431268663067
C          103.32030627642065      112.90613446761380      128.18900169603623
H          103.41980455307456      111.27545476526622      129.51054863942676
O          107.38606405681954      106.63918673137093      127.07024506982441
C          102.74815958726533      113.76749873901122      129.31289724507954
H          104.36014802068644      113.20273270403796      128.00844066460067
H          102.75690920785401      113.02914627300967      127.26394171493072
C          103.09879220730846      115.25769572570228      129.18971795584150
H          101.66583668385157      113.64608844033788      129.36436616476820
H          103.16614976714423      113.40369487131018      130.25411495616936
C          102.09931442332672      116.11900878366015      128.41549050845771
H          103.15868124061011      115.67145803643621      130.19809916322731
H          104.08322666408067      115.36886898391811      128.73532098219988
C          102.07823961915052      115.87754098411655      126.90850446374503
H          101.09631257073023      115.96484510032019      128.81967897305930
H          102.36550081081353      117.16430928518659      128.58794963189516
C          101.18198959966081      116.90017589930707      126.20699674595349
N          101.03846546444720      116.59149540321043      124.80368107946495
H          100.19179707709364      116.90549772283046      126.67728684068533
H          101.61009139949212      117.90168106555981      126.27999257596699
C          101.31183018913994      117.43061633411992      123.80732736602833
H          100.73163940440463      115.64433240377963      124.57807229058996
O          103.07481201166075      110.68902228889141      126.43889273497585
C          101.14751349608827      116.82613237907364      122.42321754483973
C           99.72491326517626      116.34163551884859      122.12121418537546
H          101.47049419872168      117.55400975568368      121.67818308122122
H          101.82056685051992      115.96877057354897      122.36608840217315
C           99.73798377219236      115.26547861438965      121.03497818357314
H           99.27870964214110      115.91247250209400      123.01819671373472
H           99.10542802394838      117.18304656913793      121.80471325751023
C           98.31913726235547      114.80108472884031      120.69049585481493
H          100.24344442433438      115.65393043487192      120.14865722957592
H          100.30750926143617      114.41065983783474      121.40571441397630
C           98.31505540283862      113.62913091909250      119.72592176184379
H           97.81599213249260      114.48290020408119      121.60467580609671
H           97.75321055444446      115.62557713410874      120.25287665875994
N           98.76971083136699      113.91414125465235      118.49940187580529
C           98.85215427450835      112.93900054465759      117.42885263319381
H           99.11668277297058      114.84021056293827      118.30272564454688
H          103.08912725607694      115.95357911752328      126.50376319756479
H          101.69277032088998      114.88077016031839      126.69341982860566
O          101.69872301675650      118.58621697756476      123.98507527102799
O           97.92168991184316      112.50936190099615      120.03910434535884
C           98.76220027356582      113.62662295094195      116.07200986537811
H           99.79475680520125      112.39001513361373      117.51564761955338
H           98.02955019911437      112.23284604671795      117.56504635590250
C           98.72193156855012      112.64974798445863      114.89573809265627
H           97.85853345436028      114.23824719908507      116.03925800846325
H           99.61951119589028      114.29039948939723      115.95715869169257
C           99.91292856368297      111.69218238086665      114.81849830330168
H           97.80593944386729      112.05939377137861      114.95282251202646
H           98.68398298999372      113.23896249802281      113.97728755851841
C          101.25541024154397      112.41772375988970      114.78234597293357
H           99.89453081999453      111.00647304072471      115.66500521429559
H           99.80820642020653      111.09647592387411      113.90995112922762
C          102.41684376584814      111.46226329339150      114.53324212918538
H          101.24103042690336      113.17435856227536      113.99514086158727
H          101.43322198826660      112.92594701550111      115.73042814444953
N          103.67979630420450      112.13573057511813      114.75091861478796
H          102.37896833269936      110.60569341145168      115.21306906099029
H          102.37587915757989      111.07663532169016      113.50611688426281
C          104.78293869839388      111.51111249882966      115.17395001391721
H          103.71058923769716      113.13411790442839      114.57184164499893
C          106.00459405563936      112.39610357729731      115.29952104134962
C          106.89395660329201      112.20217222166411      114.06767918584140
H          105.71304190126899      113.44174087738398      115.39266825571367
H          106.55472321588397      112.10712393037029      116.19574523980043
C          106.35049050337487      112.92873846015534      112.84257260886297
H          107.89896227903247      112.57065160961889      114.28369057719193
H          106.96355864337410      111.13708174451014      113.84714074952416
C          107.16045037765953      112.63483003094501      111.58271520344024
H          105.31488659546730      112.62573518309914      112.67440728231304
H          106.36457653533813      114.00269653624930      113.03898867917108
C          106.90746477695276      111.24331419846061      111.01631410386310
H          106.91338344627754      113.35798846853568      110.80392752674707
H          108.22901256333095      112.74097798381359      111.78576847803251
N          107.42343042142195      111.06741373681007      109.79664242466419
C          107.24664372026828      109.84195373494386      109.04624575851713
H          107.99072446004396      111.80200309207285      109.38340782114787
O          104.81406243403332      110.30832116096762      115.42359906363397
C          107.26476571398450      110.08934473589238      107.54078958223585
H          108.02981492961189      109.12417316416500      109.31647934713423
H          106.28364604939397      109.41991781897860      109.34726192871503
C          108.68305539582553      110.11865270474688      106.97796646133214
H          106.69149046226028      109.29334906090374      107.06723993872365
H          106.76865520266853      111.03922814444164      107.33832910341354
C          108.75307800707843      110.46507258138472      105.48876281792182
H          109.25580936842908      110.86782191889196      107.52756078694365
H          109.14713150230374      109.14634704597324      107.14975052463193
C          107.85479859768530      109.62383598579498      104.57871126008767
H          108.47028451892189      111.51140237665396      105.36044066691672
H          109.79078325984841      110.36319395565747      105.16471505613637
C          108.08158973795550      108.11890675287856      104.69012942148299
H          106.80861726365934      109.82609981021041      104.80343074734910
H          108.02801305166676      109.92789502923446      103.54387332509144
N          107.18649976619805      107.42988239092824      103.78217793559777
H          109.10565635578145      107.85440143793829      104.41767058171743
H          107.88857437622059      107.77168891596627      105.71065555238117
O          106.26602570307882      110.37409209261564      111.60198265768938
C          107.49776211227977      106.34276465630002      103.08848298019446
H          106.22815181614008      107.77317011489406      103.75451263496979
C          106.39613746842993      105.85765239819206      102.16931207354860
C          106.33858992321619      106.69514372023988      100.87485480884139
H          106.55953612925502      104.80765619002274      101.92605054673032
H          105.44605083915661      105.95523813029465      102.69335844620741
C          106.99130203134615      106.00467294068727       99.67750299969514
H          105.29346253116418      106.88257363809151      100.62631317267233
H          106.81015245798768      107.66599265947302      101.03905288842023
C          108.49600400348254      105.77474397567687       99.85149179501940
H          106.50431837369985      105.04146152126216       99.51290181805436
H          106.83472154996366      106.61447316281713       98.78471115869684
C          109.26626415269382      107.07789288304404       99.74564760513906
H          108.69402398762122      105.29613161623574      100.80812313004780
H          108.84754300632423      105.12737504039821       99.04667686727717
N          109.70591449237953      107.57429026613696      100.91132549891630
O          108.60580470378504      105.79399847693283      103.15835944939977
C          110.54059786150977      108.75926286304065      100.98871813695293
H          109.49965696944079      107.08363729120225      101.77050153257731
C          111.20689615773423      108.86108444548570      102.35592962008737
H          111.28140096765775      108.69075238219990      100.18643434116426
H          109.93256587973184      109.65004634452640      100.78949477260409
C          112.34517244582327      109.88231020507658      102.39313839854822
H          110.45289340069529      109.15489595344185      103.08692324903232
H          111.58991594178137      107.88139166996650      102.64305302913937
C          113.59792051816964      109.46678951415535      101.61683421180959
H          111.98382749062634      110.83383784678433      101.99899497945906
H          112.62613162014938      110.04040902287886      103.43516091328095
C          114.16420139237999      108.12025686526162      102.07389497014407
H          113.38865365647328      109.42876797612045      100.54749907785937
H          114.35599790182752      110.23737092337016      101.76937228789333
C          115.63791909636828      107.97095976932189      101.70378136526617
H          114.06959139820326      108.03139214617521      103.15768180821519
H          113.60503648789928      107.30360618404070      101.61834096220335
N          116.20286786295694      106.77493117828875      102.29217254125670
H          115.76754041446424      107.89537863942144      100.62240314179562
H          116.20281035247372      108.84218968924829      102.06053876134867
C          117.06833611821226      105.95286596858899      101.68493084847857
H          116.01953815722572      106.63290689156945      103.27420791889166
O          109.47635914926150      107.63475054032679       98.67211113200912
C          117.59030239232143      104.83621601518165      102.56057488634454
C          116.59914848547936      103.67672091740205      102.66905669549759
H          118.50277356987993      104.45765807938909      102.10085494779884
H          117.84827341613529      105.21265054851357      103.54942403795758
C          117.19390161339192      102.54367378501168      103.51160592965512
H          115.65883268530548      104.01694845603481      103.10656640754570
H          116.37846574553579      103.31268230929668      101.66294666470094
C          116.62765340873079      101.17169161776714      103.13284960924246
H          118.27635481286974      102.52355359143088      103.37385402079829
H          117.00771023268717      102.72586468491585      104.57008273962190
C          116.92934417809124      100.89678068822268      101.67292481286496
H          117.08920554725427      100.41084481885656      103.76298939650518
H          115.54813011051358      101.15861577298664      103.28893702802014
N          118.21496435929055      100.66671646761552      101.40202581790351
C          118.71011472553380      100.61194671668879      100.04060431809543
H          118.87752795681070      100.55553335928816      102.15758079402588
O          117.41070058871408      106.07549865233938      100.51196631736038
C          120.22432913107899      100.44393228283798       99.97534794372862
H          118.22529076969359       99.77947986543563       99.51652123821732
H          118.40251410706173      101.53200236489251       99.53183547590008
C          121.02868190984026      101.47849743430992      100.76891419652561
H          120.48645957197337       99.44943749985364      100.34233587003511
H          120.50919540919072      100.49681930964157       98.92356611038119
C          120.64168834365256      102.93088103003750      100.48985913165356
H          120.92329662975335      101.28951268006847      101.83863181374626
H          122.08471922387857      101.34308353540828      100.52654205082521
C          121.72029715591216      103.88778238889789      101.00653730343929
H          120.50590193344146      103.08006482826656       99.41710304768380
H          119.69123155109105      103.14744136547614      100.98026242026522
C          121.20174257674982      105.29797968902329      101.30831812948355
H          122.15368458101293      103.48979589654461      101.92620382189399
H          122.52636219486345      103.94999806937591      100.27355513150636
N          120.51900286599430      105.89540566193310      100.18116204057881
H          120.52121738703391      105.27110652873685      102.16266602331764
H          122.04989965132334      105.94192321188127      101.55224771592907
C          121.08052099192103      106.80418882817192       99.37411890400155
H          119.55625411649800      105.62817213279803      100.02459588663227
O          116.06878023570110      100.93951179795627      100.79359728624422
C          120.24789445146529      107.18046243529297       98.16300297330899
C          119.73034787351676      108.61931715854308       98.23623567546771
H          120.88955618474650      107.08065134589954       97.28504800361299
H          119.40521444563534      106.49611905110177       98.06631066462293
C          118.76962450485495      108.82648993156870       99.40563828557086
H          120.57812931661668      109.30131627369654       98.32350923897873
H          119.21717198159820      108.84903346924595       97.29986232937648
C          117.89136755493406      110.06695535729811       99.21996947898681
H          118.12430146821762      107.95202562472036       99.50362881531545
H          119.34209774431812      108.92213198427828      100.32966324276322
C          118.73277592290161      111.31500182927121       99.05385637281320
H          117.26838862382111      109.94994473566095       98.33200021986360
H          117.24822866227360      110.19065271780748      100.09218559205817
N          119.42792302308600      111.65903657643864      100.13450152809226
O          122.19115459048049      107.28660697740736       99.58253282164131
C          120.31785540209546      112.80055043209612      100.17851702652679
H          119.26430331152085      111.17672946972043      101.01513693828960
C          121.22033631886910      112.69097532453553      101.39971404203793
H          120.90537021058039      112.81881509230131       99.25447906586814
H          119.72467574543148      113.72092631219002      100.21575566009903
C          122.13872139199465      113.89521963061831      101.59821661168463
H          120.58195052919018      112.55540649571866      102.27307839648368
H          121.83891006385808      111.79558015727930      101.29670412681777
C          121.42692003960815      115.24659971215110      101.69932144679788
H          122.72589298183946      113.72949811613752      102.50222971154960
H          122.83650285978457      113.94658241587793      100.75950099465861
C          120.24962820338615      115.30567619683544      102.67045728599808
H          122.16434830170878      115.99163121002780      102.00279712291004
H          121.06232546106399      115.53082988487562      100.71270427242401
C          120.61326882583722      114.90217483945024      104.09162394447320
H          119.87032308003606      116.33046688317852      102.68923163229236
H          119.43598227827673      114.66844305714831      102.32154411238044
N          119.50490964399448      115.17406534068054      104.98410637115197
H          120.85289943377475      113.83737566650531      104.13111272730038
H          121.48661404640758      115.46032551145943      104.44208367299981
C          119.67313249768878      115.53266932868539      106.26180915670037
H          118.60605734450463      115.34160894509479      104.54186599183625
O          118.77626537523675      111.94700978756694       97.99563150776400
C          118.38366714856691      115.87692668684046      106.98848225511996
C          117.99029218559149      114.78430078611404      107.98637520346648
H          118.55201088438133      116.80134039557075      107.54000899344223
H          117.59048245673503      116.04062314336876      106.25981307285410
C          116.78477312575764      115.20893005176441      108.82480357662483
H          117.75745915136112      113.86351616844726      107.45000271394396
H          118.83776975143367      114.58723438354282      108.64613517060708
C          116.54906629123246      114.28340261749931      110.02291800863108
H          116.95136060149949      116.21566067671534      109.20980102581369
H          115.88676345834617      115.22778794392966      108.20402158942970
C          116.08593565827510      112.92049830469696      109.56187275558487
H          117.47474242559450      114.17274147633327      110.58259661174078
H          115.79056618788911      114.71633245652475      110.67549110227776
N          117.06828277043972      112.02415979271653      109.48241556141308
C          116.89239233593504      110.65657411518525      109.05208659334710
H          117.99568382405282      112.29980972700113      109.78612729529718
O          120.77041589022613      115.55379707226598      106.81093296665692
C          117.91435616563875      109.74986072724579      109.72267057237283
H          115.86920032123223      110.35836091825499      109.29432459374344
H          117.01560420253507      110.59615924315659      107.96406690383093
C          117.92796066302296      108.35002888929834      109.11510337454159
H          118.90170240305486      110.19910604403844      109.60085235987511
H          117.70875017683430      109.69255707078644      110.79277962578379
C          119.03585152694568      107.50957628322737      109.74120302769634
H          116.96326666496589      107.86552197593636      109.27557264898354
H          118.08250561403520      108.42152918593776      108.03993616353549
C          119.25353532313274      106.15669025533471      109.07096551509701
H          119.97120370057632      108.06802672553381      109.69327821166053
H          118.79643403704448      107.34726293168580      110.79193643822745
C          119.83992853381305      106.27886587127360      107.66610195748409
H          119.95863677035749      105.57586087756778      109.66969905023804
H          118.31617700765624      105.60004842726190      109.03122639227239
N          120.33387189003626      104.99168026153254      107.22661177708100
H          119.10026243085365      106.62064894342633      106.94053928921760
H          120.67225087857196      106.99068467507917      107.68431234143719
C          120.16837660565029      104.49303736161205      106.00130781692718
H          120.83951874266354      104.46621068937586      107.93244877128193
O          114.92069778608959      112.67520766833405      109.25163096375331
C          120.80194030462674      103.12625258159295      105.79322893663173
C          122.31660919438497      103.26682109755066      105.62679711363299
H          120.57562793201281      102.48314558682203      106.64505480935479
H          120.37528191510359      102.67591077579912      104.89565624343855
C          122.96841777310762      101.93004641895800      105.28712792800812
H          122.52698449751753      103.97958242533890      104.82565347401024
H          122.75206090573649      103.66290279157937      106.54707656253215
C          124.49142281170212      102.03871707430542      105.22381630416419
H          122.68483528815145      101.18149049140018      106.03029431502983
H          122.60071266022332      101.59225064699879      104.31607004592178
C          124.92752322348443      102.78794073930126      103.97517332316720
H          124.88475970452569      102.52871554744456      106.11368713716517
H          124.92048955751453      101.03664996858497      105.15599546718688
N          125.76029437157192      103.81234892007048      104.18904913987593
O          119.57867571128016      105.08002398239896      105.09888330182868
C          126.36116806066360      104.54230536405616      103.08778011747660
H          126.04676921211933      104.03159072356318      105.13767722581828
C          127.36036754956264      105.58636053851809      103.56980126354870
H          126.85525632673919      103.81785890017076      102.42896325725256
H          125.56505011984952      105.01616936730288      102.50104545930917
C          126.68601997366741      106.82284814649088      104.16061831756755
H          128.01738383968012      105.13089217647907      104.31373309311314
H          127.97520317923347      105.88573175838154      102.71900056259612
C          127.69725010996275      107.89455917688352      104.55971133255443
H          125.99946916646982      107.24300932422521      103.42144716568221
H          126.09962223704451      106.53693814335600      105.03252824635614
C          127.01204554765958      109.15171648260920      105.09168523738813
H          128.37470601647621      107.49723253891669      105.31969108258809
H          128.29587702343281      108.14415384760558      103.67933600595173
C          127.98827255648287      110.31003368397013      105.33695588981601
H          126.25779666839132      109.47979357842513      104.37187166924568
H          126.51499515749676      108.92482183246989      106.03516191156946
N          128.71084687776593      110.77248936973329      104.16132226224984
H          127.41962577822447      111.16221938393656      105.72116598435363
H          128.72264040509944      110.02575486520011      106.09512793264705
H          129.39642142312985      110.07992551642575      103.88285044752460
H          128.05157253568194      110.86208828774764      103.39386653944305
O          124.54950348184894      102.46149858843860      102.85309407428836
C          117.29844972921875      131.87480291270182      120.54003050559301
C          115.79415339626154      131.85484245663136      120.66988486398893
C          117.74374506121401      131.24974247562156      119.21052369177163
C          117.06143907631174      131.86855500738000      117.98919555837237
H          118.82395127198069      131.37078436452282      119.12859362404630
H          117.52002355763645      130.18291754243111      119.23380262587492
C          117.53302929283585      133.30291390309807      117.70472836666065
H          117.26927767922703      131.24704419198068      117.11711771471587
H          115.98064443472113      131.85281818815625      118.14277441566757
C          116.42262804172486      134.19706911956081      117.19507402080129
H          117.93925847279762      133.74934453719436      118.61313822469464
H          118.33839325044040      133.29642302683118      116.97045312992495
N          115.41783103429380      134.38172384229713      118.05312628936900
O          115.29610649614158      130.65346723329085      120.80734153798917
O          115.10927470149751      132.86160855332832      120.62612384039386
H          114.28408412524259      130.66600419915576      120.85385499897616
H          117.72195265466350      131.28748952782246      121.35543947782779
H          117.65311900962358      132.90191890196056      120.62340247232746
C          114.26903570431354      135.22689621423726      117.78444723408326
H          115.44260438947029      133.93814057718086      118.96404885460998
C          113.52657003659910      135.56913571132961      119.07239416264468
H          114.61712962729416      136.12989044993861      117.27375455869630
H          113.59332058190604      134.70153849791274      117.09881025917886
C          114.19469589011747      136.65753421508310      119.91489299188038
H          112.52302324489293      135.90272206183070      118.80663682663386
H          113.43019202063066      134.66120672026119      119.66961020719982
C          115.58151260257023      136.26285597235545      120.41996405785090
H          114.27176829239758      137.57527784400008      119.32790066223970
H          113.55167895013341      136.86903709467489      120.77167015013130
C          116.14987889707558      137.27967717757409      121.40876460424627
H          115.52722473939681      135.28722673248305      120.90528209314746
H          116.25499015319261      136.17785069939407      119.56642750543736
C          117.59503166540136      136.95491261294825      121.79244394235764
H          116.11332670837156      138.28201063872615      120.97629275027404
H          115.54430416547372      137.28718533780167      122.31554561348997
N          118.49458612042928      137.23494506775160      120.69318131304621
H          117.92439530947290      137.58248190300662      122.62339508819731
H          117.67891771669370      135.90615167847093      122.09696061363773