3536
 energy: -3716.261015077672 gnorm: 0.000832791606 xtb: 6.6.1 (8d0f1dd)
C           74.01078862929258       54.58979827284251       44.71335990180666
C           72.64579204916605       54.00977580430546       45.08485430495642
C           71.80621949573724       53.81315593459279       43.82443583888998
C           71.95874731351384       54.93886908253918       46.09235640900339
C           70.58299470984690       54.49222825872748       46.60832930903607
C           70.00482821350545       55.59984972121458       47.48630197701853
C           70.68821621107205       53.16740297045764       47.37256218687319
C           69.39326898069096       52.62552327275571       48.00055975989984
C           69.71146083705445       51.28156519093002       48.65610276085802
C           68.29235517662805       52.49524059556504       46.94245617615317
C           66.98239320740228       51.81838640055192       47.37583275443097
C           66.02587083869152       51.84350008990430       46.18288915785816
C           66.38454885940965       52.50906955702859       48.60923242595826
C           64.95706133321342       52.10110081592984       49.00628328083587
C           64.50748972588852       52.96235806137053       50.18713844119137
C           64.86530605241427       50.61360694072260       49.36864570007067
C           63.45748803593939       49.99812823410978       49.29872497315547
C           63.49776259592916       48.61822700773273       49.95287879000984
C           62.99027320714369       49.92836251474387       47.83673732996314
C           61.75147503609858       49.07810505937577       47.52225324928083
C           61.53192661726939       49.09155721607408       46.00843820817651
C           60.50835788100262       49.57546124183339       48.26725501203558
C           59.23094326329771       48.74860659413027       48.04825781672395
C           58.05743804916061       49.44625095010404       48.73345587783478
C           59.41251687901185       47.32319444983008       48.57861713835707
C           58.25847416349681       46.33772855132454       48.34763340760788
C           58.60141129456484       45.03876735036291       49.07777469908505
C           58.02786618296053       46.07616185216731       46.85502913051570
C           56.75554903489563       45.27581400965710       46.54168186882993
C           56.92041454377233       44.52291918137037       45.22412110358693
C           55.51848200903036       46.18151543129058       46.49982057580512
C           54.18812554460013       45.43435505767052       46.71272287501851
C           53.37301461735436       45.37263801492919       45.42055083954985
C           53.33305477722816       46.09033629041046       47.80545746341276
C           53.93523434941034       46.09062673792115       49.21491148792710
C           54.21502859103878       44.66747443102713       49.69713199931688
C           52.99536104046555       46.77827299888186       50.21490883997271
C           52.68035553708915       48.26254574492855       49.97283369180610
C           53.93854517161495       49.12318673492706       50.03396058322633
C           51.65359314944259       48.70590139475918       51.02343335751077
C           51.06396377197637       50.11900972995614       50.89121600887274
C           50.04576114246305       50.29460212644208       52.01643739590087
C           50.44011713133568       50.31058993978343       49.50481340409409
C           49.52104027463105       51.52450231921883       49.30901082762228
C           49.06063420723530       51.53526056092931       47.85098329454982
C           50.22116112954804       52.83118644483736       49.69553972891130
C           49.44770233270677       54.13162402913502       49.42409016150656
C           50.23444445518574       55.29334819957019       50.02810840951108
C           48.02268907149758       54.09093752617581       49.98415489145270
C           47.11632448660410       55.27768588672308       49.61557153201994
C           45.80038531610151       55.11897256072061       50.37878103976691
C           46.86909208673431       55.31931642475080       48.10279745334005
C           46.06584143773866       56.51743371624980       47.57492198656496
C           45.45155725753450       56.14876184763396       46.22466758793861
C           46.94006585434681       57.77760257934473       47.47949677558108
C           46.14729397552016       59.05184554070270       47.13605210867777
C           46.26076381448073       59.38585977169058       45.64625779866618
C           46.58950049995070       60.30532923755464       47.90850436777588
C           46.63038595604352       60.24491087830107       49.44210987727800
C           45.47147429606185       59.44894764753360       50.03798679248925
C           46.57176504230483       61.66111550511929       50.03865503759761
C           47.56323252539043       62.69021552639624       49.48795694966499
C           49.00887198874190       62.21993173126866       49.63490575205100
C           47.41511591218669       64.03635299216303       50.21322317256337
C           46.02740461963341       64.69374154109336       50.18782832455101
C           45.51708505511375       64.86167111838471       48.75980079833110
C           46.12898897262249       66.04988537842283       50.90106764241925
C           44.79665099778242       66.71501661317983       51.27122330466482
C           45.02602889616654       68.20442402835181       51.52985042810225
C           44.16612699822736       66.06036479040729       52.50589956704324
C           42.68907919402938       66.43939289195450       52.72666854940616
C           42.49294125664046       67.03936325517432       54.12043860645873
C           41.74778960797046       65.23757657304762       52.56789592679436
C           41.73462381533860       64.56930297760056       51.18852346626156
C           41.21413308242910       65.51935606266655       50.10977739909857
C           40.84596162383443       63.31544769844220       51.19294323036662
C           41.20631025116075       62.20824817128799       52.19328740159654
C           42.63177468820599       61.70393882301758       51.98805923034693
C           40.19605060904259       61.05856692837811       52.05002612939298
C           40.04581627626334       60.14696999116147       53.27846093105974
C           39.23982071281690       58.91231514855902       52.87765689065189
C           39.37959082163444       60.91048520977299       54.42952433015158
C           39.04757622421617       60.11527485867520       55.70232357639879
C           38.44906095159192       61.08771483145939       56.72084434133480
C           40.28525220581043       59.40330382670001       56.26240539990782
C           40.11991680327160       58.72728241381433       57.63265658909227
C           41.44611853279658       58.07674312120300       58.02817741736833
C           38.98472264888896       57.69911097300069       57.62121457169691
C           38.69314919982885       57.07720584330826       58.98574741165289
C           37.40245565604545       56.26666903371988       58.95580143665441
H           73.89286600866049       55.55767638593749       44.22998723533151
H           74.62705982630598       54.72258842648704       45.60001129764481
H           74.53568454636073       53.92728288046085       44.02861315248925
H           37.20421803125821       55.81710239767262       59.92548432441754
H           36.55801933834712       56.90081205222207       58.69244390070720
H           37.47167538101513       55.47120874114238       58.21707167776847
H           38.06967798272134       58.18272973001773       57.27454716369758
H           39.22721582883345       56.90464839087485       56.91284193716842
H           40.60717700679936       58.64268993481316       55.54792027500225
H           41.09180705608907       60.13751616185419       56.34446724122681
H           38.28638141561336       59.36980854314940       55.45321219145455
H           37.64271054614257       61.66030014262442       56.26632960802548
H           38.04207556919388       60.56408738898996       57.58148747411429
H           39.20761572759454       61.78637747323940       57.06884344419883
H           40.02769453049803       61.74029413236885       54.72019789531226
H           38.44710547471543       61.34345605531360       54.05511221475666
H           39.21100058570342       61.47477677674853       51.82126487838449
H           40.49293047741421       60.44706038426146       51.19439656589788
H           39.88612457704274       59.49532456206526       58.37798370094316
H           42.26083360509604       58.79331621953301       57.93790424736406
H           41.41844546261544       57.72792727029402       59.05684035974831
H           41.66132687133046       57.22722473800699       57.38320154689209
H           41.03967714621019       59.82331761113429       53.59749245271794
H           39.71414681628308       58.41358841646527       52.03510659112131
H           39.17112251496650       58.19815573595355       53.69355193294808
H           38.23074610364163       59.19632672177911       52.58420236793967
H           41.12111934503982       62.61582399757717       53.20331723764600
H           43.35828951776232       62.48891226536031       52.18119246944462
H           42.84544399157174       60.87742422834240       52.65922999391618
H           42.77128212554396       61.35513302012969       50.96769287753210
H           39.81794952574471       63.63321179269936       51.39218159863857
H           40.86096314448459       62.88388356583764       50.18777478384591
H           42.75274036660773       64.28049700090233       50.91530071624447
H           41.84079407050723       66.40310938886360       50.02502548109909
H           41.20327419783005       65.02311085398598       49.14129636149353
H           40.20020016122476       65.84273683398001       50.34109621703607
H           42.03416133848112       64.49930505765057       53.31847915508503
H           40.72872105350790       65.56011734615579       52.80121435395122
H           42.40192605804044       67.20364252530537       51.99846005904790
H           41.45848618757406       67.34433412729159       54.26868266124606
H           42.74475730715472       66.30947853507331       54.88784717903226
H           43.12775270050771       67.91240370812454       54.25579553761523
H           44.24930084753901       64.97644558538137       52.42135573077530
H           44.75075109183211       66.35712776277825       53.38002137714890
H           44.10478574566570       66.61367234118038       50.42973217503022
H           45.41807797296380       68.69680253821578       50.64187152270711
H           44.09984103489751       68.70136937175411       51.81009161755057
H           45.74234838475108       68.33896212493364       52.33761393511600
H           46.70730342166218       65.91958183365908       51.81918286028154
H           46.69306005182272       66.72754688124982       50.25562320352774
H           45.32530349657669       64.05920391076997       50.73733840020779
H           44.58297852333093       65.41731168270252       48.74173523213412
H           46.24760427761194       65.39916137403512       48.15939538175429
H           45.33602649807501       63.89456146461877       48.29907382377417
H           47.70662154791844       63.89550194055234       51.25759540732467
H           48.12681661632273       64.73916612701674       49.77008988558187
H           47.36555907645594       62.84557239934043       48.42442231213236
H           49.23696624599896       62.01007890844019       50.67755370494535
H           49.18850896961062       61.31895441813374       49.05535634041654
H           49.69402602751165       62.98792148064889       49.28152855212017
H           45.55907406410255       62.03608112590960       49.87659487977855
H           46.71856652814856       61.58467022696868       51.11899173759191
H           47.56500185215393       59.76955921150352       49.75829503368112
H           44.51928210595588       59.83694144530872       49.68525148466745
H           45.53544349321685       58.39723374927368       49.78081825488762
H           45.48950435931481       59.53416903479494       51.12208957968915
H           47.57999185185843       60.59339606995670       47.54909362162205
H           45.90083650062785       61.10516120818862       47.62235130955922
H           45.09269810774055       58.87176871448215       47.36709546352395
H           47.29109330015837       59.63925184626054       45.39884827332833
H           45.96020965624232       58.55275477880248       45.01935674265720
H           45.63243274865079       60.24015624629529       45.40009774095871
H           47.44749124926279       57.91300991966796       48.43439324421693
H           47.71520164019890       57.61609564851315       46.72640679121000
H           45.24029632341130       56.72152088167489       48.26324598817551
H           44.85198266538596       55.24473200877819       46.31553954616184
H           44.80325634176467       56.94056652791046       45.86075493807972
H           46.22756595309051       55.96878036052019       45.48287864428953
H           47.82501712384332       55.30391924549726       47.57612746068142
H           46.33639265429767       54.40157531099193       47.83717569232080
H           47.58915143635744       56.21096390881374       49.93597008475633
H           45.15632651958092       55.98703598088298       50.26432196949170
H           45.26022885604771       54.24238026367576       50.02370359842057
H           45.99758566378358       54.98600308005428       51.44060142230523
H           47.52053369348207       53.18690179114515       49.63756351602921
H           48.08739199119014       54.02550836295018       51.07384620641209
H           49.40206669190756       54.27741993448785       48.34273114192209
H           50.22642253321715       55.23586708889811       51.11458131095957
H           51.26851762663793       55.26360724180311       49.69542303779719
H           49.81290757556164       56.24910035862917       49.73147586297605
H           50.46105904650589       52.79903227901279       50.75914609952589
H           51.17026972442397       52.88737977862364       49.15501263529427
H           48.64192363133409       51.38834806440452       49.94455407782866
H           48.60169269259172       50.58224224732316       47.59354551000276
H           48.33370192667073       52.31962899801222       47.66300610231748
H           49.90927838003280       51.68986583100540       47.18686976585304
H           51.24639365376071       50.37565180501620       48.76979092300130
H           49.85503550751624       49.41771693247552       49.27534806006091
H           51.86171156431671       50.85515759175306       51.03175678496268
H           49.21425475442325       49.60658805752747       51.88611971864931
H           50.52040612834098       50.08395869036736       52.97258342228012
H           49.65038210136188       51.30470488128478       52.05679140189082
H           50.81869189874605       47.99865371815720       51.00142955089479
H           52.11948132962640       48.62602999320911       52.00902701372454
H           52.22862656381042       48.36751330946950       48.98323954182879
H           54.43586105460211       49.00582152213727       50.99435053295355
H           54.63790116070886       48.84567637003742       49.24933434974547
H           53.69198595366780       50.17324310013154       49.89975160937362
H           52.05172213362258       46.22430645338540       50.22459251015264
H           53.43693145191747       46.68468475995602       51.21004922128213
H           54.88551324859149       46.63122718817488       49.20923930201351
H           53.32554463519198       44.04854203390450       49.60689346312667
H           55.01303693889874       44.20883841317639       49.11926037152698
H           54.52046474114908       44.67180945779518       50.74051194109024
H           53.13762677960361       47.12059258269807       47.49989807405772
H           52.37052235378579       45.57287432283391       47.84626286525728
H           54.40187040557131       44.40340524545490       47.01170334548491
H           53.95174861736361       44.93348090503004       44.61165438838589
H           52.47430605839303       44.77360753002882       45.56017949043694
H           53.07082077772792       46.37268249615615       45.11533359529628
H           55.62649414901114       46.94888948251759       47.26599592524012
H           55.49494778453054       46.69944276046506       45.53877543276370
H           56.60838988411378       44.53791308484685       47.33593742557365
H           56.04871775756445       43.90547622040267       45.02414193884768
H           57.04641028041829       45.22095714902760       44.39984278021251
H           57.79190273686093       43.87191077018118       45.25566121601513
H           57.97247280206008       47.02469777050582       46.31916026233451
H           58.89393905904063       45.53236370638405       46.46976209337037
H           57.34395564850697       46.74264367929795       48.78991187114376
H           58.86633203800168       45.24879980776865       50.11092457282707
H           57.76459722633063       44.34582702111908       49.08372777841816
H           59.44905023487885       44.54692207634362       48.60309755165498
H           60.30526795707148       46.88462625076230       48.12835587420916
H           59.59060518981164       47.39197390495500       49.65542473653350
H           59.02077906848518       48.71488677977582       46.97630349289228
H           58.20802427571711       49.47696147770410       49.81097302676147
H           57.95781396817102       50.46616471770380       48.36965513839615
H           57.12368134728031       48.92947700359756       48.52905939172197
H           60.71847668328408       49.59735146880274       49.33824615446201
H           60.31280205722475       50.60476270698822       47.95429146412451
H           61.96635569548952       48.04910690017701       47.82024084934618
H           60.75979471090447       48.38597998408117       45.71537107017717
H           61.24026708709398       50.08573508481949       45.67396830683524
H           62.44745741800471       48.81421513746050       45.48959764422368
H           62.79888687927762       50.94372376135282       47.48109716969212
H           63.81508674092217       49.52215589147082       47.24269862909269
H           62.76487731088687       50.62749426656018       49.86676557362716
H           63.91195306253447       48.69052159219622       50.95645203960918
H           62.50523741683645       48.18556552573045       50.03011061452718
H           64.12734144886305       47.94302067811228       49.37826476225198
H           65.50731316278204       50.03630909594150       48.70145216275461
H           65.25712778453793       50.48430447633878       50.38149146261011
H           64.29222339173155       52.31191002990739       48.16598107957532
H           63.51739404609544       52.66928182424295       50.52762639638904
H           65.20064074148671       52.85675611754163       51.02034483315398
H           64.47289237279745       54.01339120264066       49.90928795983303
H           67.03906470067767       52.32720596978991       49.46410478518990
H           66.38654979695353       53.58494885969824       48.42352004565480
H           67.20028161625319       50.77292509289406       47.61163709968051
H           65.70420825536489       52.86134820066491       45.97498172604205
H           66.52286019327357       51.45483024284336       45.29545036418971
H           65.14791112768914       51.23339988701854       46.36793161341266
H           68.04152259075352       53.49352081067494       46.57800149520690
H           68.69956949612684       51.93091451844970       46.09781133481184
H           69.06217770274371       53.31632541229282       48.78055238336430
H           70.54732541736470       51.38702203063880       49.34509421343657
H           68.86169138064149       50.90123062995229       49.21488200966458
H           69.98194557720380       50.54390049549638       47.90317329488474
H           71.06749721732837       52.40306091093012       46.69045444158110
H           71.42827316596913       53.29034655107822       48.16882448213273
H           69.92106738450005       54.35786569049212       45.74883000220360
H           68.97622556425507       55.38231155960368       47.75532834213743
H           70.58934093945908       55.70650468323148       48.39820737511735
H           70.01979186927170       56.55134074166064       46.95945728765698
H           72.62346917300636       55.06900918907437       46.95115481751915
H           71.84546518186370       55.91903675616840       45.61956660471055
H           72.81194024730665       53.03320355458550       45.55116543463702
H           70.88012512001102       53.29020276996438       44.04687021048252
H           71.56179711427023       54.77492387722643       43.37785391686131
H           72.35729347703501       53.22636691271794       43.09253232933216
H           39.51631210923954       56.42614480132717       59.28419217797139
H           38.60460193954889       57.86873423512797       59.73487658293178
C           64.91259890778900       45.02129118335271       63.29330822863054
C           66.21888644741708       45.07917888708307       62.50408154157494
C           67.30694223853816       45.72206612457646       63.36463355641934
C           66.06748455422456       45.87457497700973       61.20101799793624
C           65.08728406954491       45.29277536620689       60.17603746634201
C           65.59793807144841       43.96655874996182       59.61226357522359
C           64.84778226816027       46.26646037055284       59.01273319055416
C           64.25853572782471       47.63463362751475       59.38008322816221
C           63.06058236954167       47.51446999487055       60.32173366692334
C           63.80083592825351       48.38780632553259       58.12357845578677
C           64.87641541964716       48.83252751732766       57.12242631173480
C           65.79440804380793       49.87878095210268       57.74413705876022
C           64.14470838436969       49.38007675785109       55.88604981636534
C           64.97364651152643       50.12538353501876       54.83236326915561
C           64.02566202121750       50.63497737847679       53.74595844068318
C           66.07604996802537       49.24350013266850       54.23768272300052
C           67.09778608556709       49.98949376698779       53.36689755862529
C           68.04108659415733       48.97587338948817       52.71838139964950
C           67.88450039754315       51.04468296317874       54.17104425866703
C           67.71684929905562       52.47346693736620       53.63835096360518
C           68.55254240098382       52.66440228941498       52.37307602981252
C           68.11615469288276       53.52739150706201       54.68053146651113
C           67.12929306480478       53.75176113124253       55.83722489153055
C           65.73521809908259       54.10183384690831       55.31892256162617
C           67.65625174185347       54.89333843714461       56.72076241260756
C           67.04788928261554       54.95236551563016       58.13186655574584
C           67.06485463794908       56.39430868750452       58.63612156685883
C           67.82199047148858       54.03399515313331       59.08708466953163
C           67.09357363701061       53.69541788029028       60.39835798982066
C           68.11586640363279       53.32116844918965       61.47024858372850
C           66.08506009942315       52.56356061192711       60.17337938850561
C           65.13351205896063       52.29635426341330       61.35470905440415
C           65.50383139928381       51.00031113298257       62.07735858147345
C           63.66885805878664       52.20474285166767       60.90153608598725
C           63.04430594516167       53.52873087341711       60.44870989375170
C           62.87168637363590       54.48183477489582       61.63122261595424
C           61.67133129083575       53.30894291419741       59.79583367720044
C           61.63475089722206       52.47398593591407       58.50583366606462
C           62.63619434247443       52.98916819586152       57.47655713678027
C           60.20190058010961       52.50933360637180       57.95174022820396
C           59.87211317219940       51.54758675574852       56.79910413423997
C           58.42492332655490       51.78057150426299       56.36303517936599
C           60.09576141095560       50.09517380574957       57.23334141941311
C           59.59011418944301       49.00071781907940       56.28386690736449
C           59.88328156027575       47.64545244958479       56.92526286092551
C           60.24148525355943       49.13210440117815       54.90272427952593
C           59.91368104216707       48.03062277183703       53.88665055073380
C           60.76737045149262       48.24721413273051       52.63697175128198
C           58.42752924286331       48.00099148358051       53.50755744314145
C           57.95683928472082       46.64399995636816       52.95792583130745
C           56.70741454840417       46.83537643016957       52.10256858910137
C           57.70842325194581       45.67504591950395       54.12078034803906
C           57.24343127777267       44.25382303712598       53.76890606351235
C           57.06162461779352       43.47307084873714       55.06996008917064
C           58.25079653309990       43.55991316967591       52.84705518498460
C           57.95673653033646       42.09916071296416       52.47515993344914
C           59.09428109563223       41.58735608930746       51.59022305759426
C           56.60306652216857       41.98555497671269       51.76567972450574
C           56.20375698285351       40.59103879284590       51.26148992027561
C           54.91328473980633       40.72121134232781       50.45351368873755
C           56.03331421935555       39.61226596944500       52.42853938435552
C           55.72449646220617       38.15406418510037       52.05507974973421
C           55.34674861405426       37.39319975114817       53.32646003878618
C           56.92599812635144       37.50023821325324       51.36127736430054
C           56.68852320894667       36.07684430473719       50.83674546154271
C           58.03120455555367       35.38020234479426       50.61593345551837
C           55.86921616561776       36.08400336599876       49.54021249158890
C           55.27921885581167       34.70666320080628       49.17788831612187
C           55.87542672490709       34.18883171484372       47.86811488669348
C           53.75042309331214       34.75208041389471       49.04729597511876
C           52.98891091201968       35.08583924997847       50.33818272068322
C           53.02289035213055       33.91386749545314       51.31677373463177
C           51.54037125287275       35.46692539591826       49.99669316783168
C           50.78291723915402       36.23830482143135       51.08802387524437
C           49.29349857437155       36.24832509760796       50.74558684853108
C           51.31837353962391       37.66869817967011       51.21718034309124
C           50.87798012659406       38.43416685855839       52.47294552109207
C           51.28966163840394       39.89674098871497       52.31466233421775
C           51.48509757122468       37.82987529330035       53.75253191332498
C           50.48278068098860       37.64027777538748       54.89654008627966
C           50.05867985826050       38.98870520692801       55.47670706083484
C           51.06772844164988       36.77641580841324       56.02236369894120
C           51.39302233309947       35.32222632948534       55.66218071916789
C           50.17513474321801       34.60048510887390       55.08334725432757
C           51.87200805366849       34.54806989605471       56.89929260694434
C           53.11699110665577       35.09320718002363       57.60870776484458
C           54.29842696380365       35.24060031187779       56.65115895373754
C           53.52083212368805       34.17496243465047       58.77063453158776
C           52.50525134382544       34.12051824230139       59.90968399636952
C           53.05725235252655       33.37638824129366       61.11988886494159
H           64.54559543262535       46.02702327803960       63.48944645587280
H           64.14809240260739       44.47038531767787       62.75134990264949
H           65.07290657915475       44.52523762550579       64.24898759360890
H           53.31738366005997       32.35410466550847       60.85335757990103
H           53.95183693924638       33.86771658341434       61.49745945692890
H           52.32064395364345       33.34355928934179       61.92017008396633
H           53.69230801943452       33.16441256137325       58.39014324665749
H           54.46843880795338       34.53509678385711       59.17832700000660
H           51.04656235131853       34.52041490845687       57.61431708076422
H           52.07860282818250       33.51675406167554       56.59740040232402
H           52.18975087211729       35.29847016659890       54.91294179394593
H           50.39112310252945       33.54216443578608       54.94610815542142
H           49.32493694314538       34.69109117120705       55.75613422604996
H           49.89319706648576       35.01003900643639       54.11703186363215
H           51.97624946400715       37.26362823233977       56.38171975924318
H           50.35333774258222       36.76342625790874       56.85005943631210
H           51.92591399847621       36.86354299979241       53.51154616843014
H           52.29688339391733       38.46972944363161       54.10569071584550
H           52.88418797407301       36.07792273742941       58.02704357247810
H           54.09659110708218       35.98408141848478       55.88553610070164
H           55.18647009300616       35.55371704681612       57.19640306477859