3864
 energy: -5104.217681744115 gnorm: 0.000777571874 xtb: 6.6.1 (8d0f1dd)
C           56.26983643295465       55.50804592019976       69.15728925326243
C           56.32299150352605       54.63484746352390       70.23509646170487
C           55.41726059109166       53.58063758076907       70.27686941266772
C           54.48369481796556       53.40836766467884       69.27176140231705
C           54.43780525106553       54.29116464187720       68.20612030205402
C           55.33826491009975       55.33999945754429       68.14876047358570
C           57.32075778579451       54.86141263045131       71.34393815601838
C           56.58967669856055       55.21873743325795       72.64162002356360
C           58.22702232819672       53.64186637812436       71.55735196522743
C           59.04880601042680       53.29546963283661       70.31344142510115
C           59.93261384475983       54.41990950886680       69.82882222661048
C           60.12705397128015       54.58341878263861       68.46226385143117
C           61.00955781516787       55.53022061314942       67.97463299502287
C           61.70356417542035       56.35034257469810       68.84778425965577
C           61.51327968177518       56.20324115582191       70.21096873268240
C           60.64494703386878       55.23990020314321       70.69604852625702
C           59.97956818776931       52.09235436703316       70.55161372974247
C           59.29535613920446       50.76698066645914       70.92345872243064
C           60.37036539367445       49.72263462208351       71.09985860432977
C           61.12526765363106       49.27914154164047       70.01985652980525
C           62.11096829259703       48.32433327156694       70.18691622575717
C           62.36870061843881       47.80262487217656       71.44342100411083
C           61.63218664716255       48.24392968639286       72.52904457095512
C           60.64104606505515       49.19460326926148       72.35540157537577
C           58.26097213818392       50.33824777837771       69.87350011293231
C           57.72330876016133       48.92383877936741       70.12390780359549
C           57.23023193039671       48.76038269014487       71.54056299164992
C           56.27039424699415       49.61580889087056       72.07045338754600
C           55.80492326804412       49.44877413095616       73.36179387318077
C           56.28690338424601       48.41443848287539       74.14633450396630
C           57.23487339486363       47.54960733568387       73.62741247444966
C           57.70024001438762       47.72319487345674       72.33545044925349
C           56.57190366503865       48.54847074846789       69.17760855833242
C           56.95462499191666       48.43529476765542       67.69194232431653
C           57.01605541416490       49.78183129073683       67.01742827952074
C           55.89766500630596       50.60492803197221       66.96946578669191
C           55.94857923671677       51.83728201399001       66.34745885752041
C           57.12379559924782       52.27478550971546       65.76587890444375
C           58.24650237440630       51.46700267207854       65.80660623815010
C           58.18889237323250       50.22732059926300       66.41886223742614
C           55.93294474856371       47.53648507122853       66.97931733985386
C           56.27673023431120       47.23611288241590       65.51248874077869
C           57.62667988002529       46.57436371543576       65.38969217747510
C           58.64836875676794       47.18431348337789       64.67134018282502
C           59.88724537168732       46.58283754848945       64.53625596927122
C           60.12853782620216       45.35157318626014       65.12010535266641
C           59.12705422633198       44.73903857072705       65.85300456121541
C           57.89073801540721       45.34684169350103       65.98642771863739
C           55.16234224758562       46.35651465812463       64.92831946629141
C           55.35650236031439       45.96948772867683       63.45657513277502
C           55.19042182772022       47.16487672550205       62.55348821271240
C           53.93165989916453       47.68927658941622       62.28554774095115
C           53.77720539174672       48.74059937884108       61.40177418001750
C           54.88055722528431       49.29060416841651       60.77293033839219
C           56.14008981410205       48.78995338282421       61.04761544350123
C           56.29177329208685       47.74143073536678       61.93634224990743
C           54.35749718183337       44.86344502114657       63.07279355499803
C           54.81983865276968       43.46228352760146       63.50122205705368
C           55.96196443593836       43.00054218432182       62.63436383982229
C           55.76612339151295       42.62898477200063       61.30996379098853
C           56.83177840743460       42.26176418591069       60.51072433356786
C           58.11762942120916       42.26134637286595       61.02377507921118
C           58.32631231219667       42.61672396954200       62.34436366394723
C           57.25540268383596       42.98286399750307       63.13998638258875
C           53.63769850945153       42.48525323305819       63.49560987525882
C           54.03080674997142       41.11217026575870       64.06969784955005
C           54.38509830900270       40.14467545061481       62.96393874648548
C           55.63366038099946       39.53816430290097       62.92298727723685
C           55.95628370215855       38.64240445804103       61.91833969623608
C           55.03519315851221       38.33877900236381       60.93173104119491
C           53.78476933388627       38.93130219611111       60.96503520823399
C           53.46506096406222       39.82332224755576       61.97141311046930
C           52.94797792030301       40.46837785449894       64.96123119904145
C           52.32991483458235       41.36465048003350       66.05045762495122
C           51.33974458439479       40.57431629488936       66.87181709858886
C           50.01315057612328       40.98150447363762       66.94649362549241
C           49.09474398274762       40.28285443522883       67.70939929797221
C           49.48919248132979       39.15697769740014       68.41028910558545
C           50.80836439161478       38.74018416960674       68.34486643495011
C           51.72437219867480       39.44491072428592       67.58527587502950
C           53.37389894917823       42.02690619994649       66.96111364625840
C           52.75594607746517       43.08846513589625       67.88769660860171
C           53.70826986103725       43.46784729259452       68.99591319567061
C           54.95779194923045       44.00592489572458       68.71068693977486
C           55.79357782764076       44.44922642739721       69.71883732001001
C           55.39268776380487       44.36010760106826       71.04083684682250
C           54.16434592151207       43.79873943075687       71.34261663083811
C           53.33365031662677       43.35399983088292       70.32850749207213
C           52.37337327667031       44.36404409903778       67.11928149589767
C           51.61962650049324       45.36111136202160       68.01351040805129
C           50.20671753478594       44.88894654258348       68.23758490711700
C           49.78326388816637       44.51812127773496       69.50704620225855
C           48.50444248762988       44.03272116523080       69.71715109048199
C           47.62516151868789       43.91076672559467       68.65548556676649
C           48.03092018463704       44.28893938447591       67.38713389860175
C           49.30917064943611       44.77471987011789       67.18216865526499
C           51.67282034060315       46.77395497486263       67.41655836518683
C           51.07449399660165       47.83964829215644       68.34893145792167
C           51.59288009411596       47.68476045198824       69.75832473075137
C           52.95799504772254       47.64095213522571       70.02305860996509
C           53.42796427774687       47.48565372046226       71.31343894333526
C           52.53772819091574       47.38149914831559       72.36853929453650
C           51.17700660236325       47.43246854471887       72.12132306822356
C           50.71129549003733       47.58181175346390       70.82605368271783
C           51.39286203507677       49.26610800459607       67.86118729985695
C           50.75736379200649       49.62192835045359       66.50487687428424
C           51.61156235507858       50.63662270206568       65.78253512217593
C           51.50967148358592       52.00431372554826       66.00202957538609
C           52.30275436356010       52.89213711776507       65.29560951161521
C           53.22656639030929       52.43083789461221       64.37314442104719
C           53.35664119341988       51.06866937892137       64.16594496488415
C           52.55352857155243       50.18622340774127       64.86309634779312
C           49.29415384613126       50.05773204437116       66.64499169980664
C           48.63314544209516       50.24306923433127       65.26870163024654
C           48.76116878753235       48.95575102834593       64.49717815297157
C           48.06423654276436       47.81443537829188       64.87419396750630
C           48.25631508855341       46.61896924095205       64.20644992704246
C           49.16163072129009       46.53855954509119       63.16227085758614
C           49.85510767171914       47.67231942692050       62.77256193769848
C           49.64802756324030       48.87030973231580       63.43105861174016
C           47.17511525833542       50.69786867248450       65.40386483288779
C           46.47948776478492       50.79310912379857       64.03935362737644
C           47.15236573538341       51.81042204522542       63.15320703888982
C           47.77689650546035       51.41512185201076       61.97684496963087
C           48.38098447352009       52.34051974636694       61.14501926655670
C           48.35065894263985       53.68463451102212       61.47031889706808
C           47.73257669584022       54.09299817663096       62.63992177864458
C           47.14776765985243       53.16192465427137       63.47966719263871
C           44.98869769276838       51.12012346168592       64.19215701080607
C           44.24952280076662       50.96312488612603       62.85712453558254
C           44.15646236280474       49.51458057915016       62.45267940133151
C           43.47257869917082       48.59507063320746       63.23901830512764
C           43.35485025002840       47.27545263631913       62.84405865081921
C           43.91308554939521       46.85700654429798       61.64906271745028
C           44.59898758324512       47.76138683296373       60.85829518736377
C           44.72167927863519       49.07905901897838       61.26117904893039
C           42.84301319042343       51.58576066632364       62.91644844637562
C           42.83916649838462       53.07142471805147       62.51227602241789
C           41.63908403079517       53.75496872244238       63.11445588190201
C           40.34707494118399       53.32963284874810       62.81982147100174
C           39.24997795552686       53.96150871127131       63.37482646865372
C           39.42283395585453       55.02369457966244       64.24648963087992
C           40.70284045974696       55.44609313666915       64.56122193269184
C           41.79908621942054       54.81488486740359       63.99920656538210
C           42.87917227731658       53.20427710677636       60.98102252683069
C           43.25868630108958       54.60864396842435       60.48650669459651
H           57.95069074779152       55.71320478856090       71.06314041308457
H           58.89063090051463       53.83309160199095       72.40316382297233
H           57.61014141117467       52.78243600738949       71.82235220767494
H           58.35495824144680       53.04686332588916       69.50345497813311
H           60.56716201267925       51.93775470231184       69.64312438633132
H           60.68256662163860       52.34932702167795       71.34976440575547
H           58.78730208546253       50.88607226850333       71.88580600771300
H           57.43039359029380       51.04539338006393       69.87448900364505
H           58.71650767923250       50.37473047947012       68.88491612594882
H           58.54193034937692       48.21189417265971       69.96597911962095
H           55.76520656698544       49.27338449604841       69.29560655125630
H           57.93852686814574       47.95630237244664       67.62150607038119
H           55.85386067828140       46.59616567021659       67.52903222773705
H           54.95465696214618       48.02154254274307       67.00892298587506
H           56.30272875092588       48.18110250240372       64.95833576662687
H           55.09630631008182       45.44346872310951       65.52267787752328
H           54.21268312652165       46.88781011033166       65.02989306770326
H           56.37278220348030       45.58071688725494       63.32562210954379
H           53.39468436588744       45.07408664903610       63.54368920293597
H           54.20599619711075       44.87053814155620       61.99215758298428
H           55.19033859420662       43.52947135769972       64.53066729411123
H           54.92590298853284       41.24436087687972       64.68675268145978
H           52.13373760303723       40.10657050996024       64.32876829366305
H           53.39767133786454       39.59026154774973       65.43049931349562
H           51.76110643075251       42.15496035440748       65.55431999548937
H           53.85704946694766       41.26181853493959       67.57290073613171
H           54.14002721185977       42.49694676997589       66.34667077537878
H           51.84980561274216       42.66735884936765       68.33820641591147
H           53.28184686366215       44.83844235045141       66.74692333957842
H           51.75213793477628       44.11139297913394       66.26065802440321
H           52.12802613022836       45.39028577743994       68.98230318952540
H           52.71673867754881       47.02141798165574       67.21497170300690
H           51.13711464713801       46.78176784201987       66.46647828268681
H           49.98770739462748       47.70545600375331       68.37067693460354
H           51.05918093992564       49.98110498026284       68.61774118415175
H           52.47815810515653       49.36448815852411       67.77800385241916
H           50.76581181987151       48.71784773512258       65.89103240096546
H           48.75236925997158       49.28891580622533       67.20039559903313
H           49.21765574218492       50.98533163665768       67.21488818736144
H           49.18091670832519       51.02286621515113       64.72721580624699
H           46.62435692191946       49.99436656832179       66.03234552646340
H           47.14751306338794       51.66883655852481       65.90263482862046
H           46.55503787252002       49.81103086128775       63.55712004037679
H           44.54854151451097       50.45256316363621       64.93587751715464
H           44.86991311817404       52.14073538664009       64.55916324691385
H           44.83219382762292       51.49054495121928       62.09439870469834
H           42.17390873010997       51.03722196012164       62.24981332461016
H           42.44683837766139       51.48626924249361       63.93012623549151
H           56.95866485899480       56.33884218516305       69.11061234191675
H           55.31710806463308       56.04151984398779       67.32660433569676
H           53.69650791549595       54.15762778059513       67.43118006014052
H           53.78432059480528       52.58574812139809       69.32107291328086
H           55.43107540165211       52.89169516880388       71.10973403267920
H           59.58626255540308       53.94829405873337       67.77431080238168
H           61.15496255887043       55.62581731387483       66.90909800160672
H           62.39192250109600       57.09391125534330       68.47167299152748
H           62.05299993453159       56.83529149556628       70.90253116835764
H           60.53100077266702       55.13014961464995       71.76439084452048
H           60.94596463074510       49.68581676650317       69.03562641402979
H           62.68236947643046       47.98999579813628       69.33271308181577
H           63.14043879014817       47.05805532373471       71.57683035663737
H           61.82807158309076       47.84506884723973       73.51424900184425
H           60.06559649257933       49.52725469648850       73.20855990219879
H           55.87783899404818       50.41989570707059       71.46580898050618
H           55.05898535217784       50.12319428490198       73.75790626891093
H           55.92458076286490       48.28233755971900       75.15569582773374
H           57.61505048487782       46.73816517461945       74.23214296329284
H           58.44556086665312       47.04648745866520       71.94008596132544
H           56.19160055432749       47.57763021823759       69.50935861200095
H           54.96733143567323       50.28779773911725       67.41842850842212
H           55.06604450254154       52.45547079187025       66.31637094065026
H           57.15794815466591       53.23773278516907       65.27986704900547
H           59.17076950729653       51.80925628318687       65.36114347441337
H           59.06569581391332       49.59250539069921       66.43395481621013
H           58.46560538256488       48.14712936348999       64.21376296836483
H           60.67388106963985       47.07186690988782       63.98048467927853
H           61.09273550217489       44.87730577915494       65.00227893839374
H           59.30931918746132       43.78168146479068       66.32262452883153
H           57.12717597290688       44.85168457216878       66.56840322505340
H           53.05888373750564       47.26737712420654       62.76239031563120
H           52.79022842820663       49.12684913393090       61.19712610667192
H           54.75838667263707       50.10643934457818       60.07603046831365
H           57.01058288225639       49.20652933549851       60.56210108546021
H           57.27888232963712       47.35039956155251       62.13867905864496
H           54.76963383203790       42.62308077045489       60.89393112912247
H           56.66231280460953       41.98717117267316       59.47881254291446
H           58.95268886498783       41.98764988091686       60.39583236151979
H           59.32586369669377       42.62029979199318       62.75743341096529
H           57.43560233069424       43.26905454296762       64.16755299948726
H           52.84449113334986       42.92943102715302       64.09411268302102
H           53.25111113297635       42.37206159917965       62.48325700587328
H           56.36608839002310       39.77167631822449       63.68433454808969
H           56.92988241939172       38.17192553941057       61.90986681482622
H           55.28875338224260       37.64313487008689       60.14376487970711
H           53.05440455085371       38.69562070486339       60.20559234656178
H           52.48109270969422       40.27032874743619       61.97904580782793
H           49.68892943111253       41.86112614551248       66.40922821040103
H           48.07005323658217       40.62199481196444       67.75784084414738
H           48.77537606562517       38.60697207022037       69.00651591715466
H           51.12485742958424       37.86216427066609       68.89012975602336
H           52.75051391886115       39.10741113322864       67.55332488865393
H           55.28051272587918       44.08140424255294       67.68301974525491
H           56.75915957174514       44.87159437628389       69.47656749344812
H           56.03421701543004       44.72456057523901       71.83026934717027
H           53.84746682791373       43.71464746680871       72.37251055364001
H           52.37392885443371       42.91945401370335       70.57352219362002
H           50.46419275300875       44.61569640837389       70.34167804783766
H           48.19456681087591       43.74547697240930       70.71236925431320
H           46.62825343819590       43.52572176004783       68.81643459640094
H           47.34557929761465       44.19668923065549       66.55628236742395
H           49.60746352173087       45.07451056743977       66.18750573763430
H           53.66681907042513       47.71345965180676       69.21303320812800
H           54.49109541950529       47.44525997727167       71.50100470974034
H           52.90577144756754       47.25988413453047       73.37717969176498
H           50.47438892961999       47.35013137030955       72.93890538940668
H           49.64578006898995       47.60808012183376       70.64216849059156
H           50.80171394527441       52.38741624211797       66.72265656986573
H           52.19346687190207       53.95588596549155       65.46275573846843
H           53.83955904993512       53.12580583582707       63.81831150024517
H           54.07538572366988       50.69123786813321       63.45253556864482
H           52.65287164998812       49.12510824345496       64.68206910382246
H           47.36865367942173       47.85071322946668       65.70016550173284
H           47.70055716292187       45.74466512929333       64.51399478324394
H           49.32509204644541       45.59539656831629       62.66098682231467
H           50.56303688108119       47.62501903380219       61.95778153709239
H           50.19284520377604       49.75409062415095       63.12982612059898
H           47.79002877639769       50.36661557562542       61.71268441775769
H           48.87083518178944       52.01365463352397       60.24011153414654
H           48.81041926132445       54.41008436393155       60.81581534023591
H           47.70894439770540       55.14219668956812       62.90040487989062
H           46.68156025441525       53.49377930121965       64.39814564674928
H           43.01890319464171       48.91327003283337       64.16730297680543
H           42.81844348226033       46.57487456767262       63.46921486249773
H           43.81316548840271       45.82928131991559       61.33665607115709
H           45.03477621801206       47.44041931143537       59.92375514054802
H           45.26266446041137       49.78388229823295       60.64475210818617
H           42.79534831358864       55.15797705087969       64.24259548562058
H           40.84667633763671       56.27118881979702       65.24494931375845
H           38.56450598709084       55.51791501870298       64.67840813307367
H           38.25200537366194       53.62758385145641       63.12744750870242
H           40.19433575930380       52.49806651893682       62.14741469202447
H           57.30364981306638       55.44075758400847       73.43206150179351
H           55.96095701777962       56.09440521641978       72.49144531836630
H           55.95935746649688       54.39560289268660       72.97056754351651
H           43.74247881007722       53.53691137975139       62.92263153319718
H           43.62095102886543       52.49716827172196       60.60201096564889
H           41.90921506698786       52.91814062101884       60.57187106282142
C           42.05126522116502       55.56233543877475       60.47427047892844
C           43.85383914970472       54.57199035844670       59.10007575716190
C           44.99280960723986       55.30951374105511       58.80372361215944
C           45.49464226767835       55.35164313609053       57.51485268206694
C           44.87273049235304       54.64689724459762       56.49995788039447
C           43.75019563231912       53.88916407427228       56.78684982912560
C           43.24572604424296       53.85568620408584       58.07486200379090
H           45.48955740727052       55.85732097340366       59.59369041490203
H           46.37072211005160       55.94621005914682       57.30317905148686
H           45.25804780259690       54.68883332662669       55.49218961054550
H           43.26070371432122       53.32673067442233       56.00350241220321
H           42.36810914479226       53.26270472328495       58.28657804673189
C           42.47876180876047       57.03077495323866       60.40537269092838
H           41.41446734589997       55.33760935869750       59.61610322401971
H           41.45631319824246       55.40973696774631       61.37356532378782
C           41.29086661049305       57.94812114431542       60.36678906144478
C           41.04137249999867       58.74878888737845       59.26062951829071
C           39.94902334747119       59.59814420358478       59.23443504430382
C           39.08073734233424       59.64899238986175       60.31003347318177
C           39.31748252468542       58.85049312511260       61.41694188753852
C           40.41622929596608       58.01201843408737       61.44620605196941
H           41.71450333839774       58.71823674455982       58.41617125693843
H           39.77810990900211       60.23192377970089       58.37504078788182
H           38.22581484112206       60.31004820550158       60.29051957887657
H           38.64542877119953       58.88783782881659       62.26286921421752
H           40.59784941464459       57.40136855569983       62.32002185944623
H           44.01161566664527       55.01526122922950       61.17230357312316
H           43.08390302845655       57.26360240411027       61.28673405799685
H           43.09308576370696       57.19089008985083       59.51728018604662
C           44.37006909152484       66.12982561958971       51.44783383905911
C           45.19198309944794       65.33772286632900       50.65530265753582
C           44.86412791109453       65.18311680180905       49.31386265441398
C           43.75373051514318       65.81091878208264       48.77980329737167
C           42.94501754143526       66.59964752039136       49.57972019609412
C           43.25525121637232       66.75481167963598       50.91980541053515
C           46.37910790060550       64.63967382685910       51.26909467078766
C           46.04169303128275       63.16400083829718       51.49313056046752
C           47.65324540345166       64.77805293295130       50.42741710815635
C           48.00118150601202       66.24376668443723       50.13232319455436
C           48.07167886425421       67.03648562424107       51.41173743943479
C           47.18505470183079       68.07835079142970       51.65188820623197
C           47.22728612801829       68.78943809664433       52.83889112785843
C           48.16151060391525       68.46814676971080       53.80867387335947
C           49.05593270061271       67.43674158270943       53.57659977994901
C           49.01037221170740       66.72917808151969       52.39042394634724
C           49.31933462416291       66.34988666385344       49.35456596175830
C           49.46091628750762       67.70844840554173       48.64776833284056
C           48.49426342019964       67.78181576483173       47.49554519270338
C           47.40480231402070       68.64138567380104       47.53699105260399
C           46.49574787804150       68.68730894742981       46.49358259080194
C           46.66430725320424       67.86987634419309       45.38972128560070
C           47.74943471616616       67.01049865753849       45.33353242900728
C           48.65375971739190       66.97003133661170       46.37791095216445
C           50.91599688791308       67.90165500289396       48.20210336479263
C           51.14136227833888       69.10892961439649       47.28281634697735
C           50.68363099392216       70.39268236262380       47.92342109815346
C           51.31361063431688       70.89078507174291       49.05855172939813
C           50.90975340586117       72.08695782959181       49.62211113041609
C           49.86672472436069       72.80527817505639       49.06189916977834
C           49.23638916166865       72.32131181212597       47.92871989966923
C           49.64576993032160       71.12639020060018       47.36323252643981
C           52.63316287700879       69.20142633676993       46.90635046261675
C           52.96578449807848       68.64370566382419       45.51085819092107
C           54.47129815584100       68.54157227588057       45.44362351399666
C           55.26174178592651       69.68171521021328       45.34359419334140
C           56.64174768542574       69.59540693357208       45.39461163478985
C           57.26008593960613       68.36640015902334       45.55389860021719
C           56.48661324248309       67.22255386978962       45.64754456122712
C           55.10618524163250       67.31402906978015       45.59005977018367
C           52.36544220501577       69.53726062083081       44.40783055862492
C           51.26291555792540       68.88188510761788       43.54961888445637
C           50.35946355210618       69.96730970142607       43.02129969417777
C           50.85265941594245       70.97602043727532       42.20092986486249
C           50.02188934026082       71.97430674634241       41.72824777762165
C           48.68042040291184       71.98478647529748       42.07250037604826
C           48.18035028571348       70.99131584756333       42.89565359327016
C           49.01438582858227       69.99169647568617       43.36540221873275
C           51.87289738727418       68.04870609233330       42.41067748047035
C           50.88352841859347       67.69689321874215       41.29068380361134
C           49.77850293231229       66.76163592467084       41.71111024435542
C           50.05058298213565       65.50354210607439       42.23612208465207
C           49.03126704631861       64.60134034525635       42.48444124960948
C           47.71656550462367       64.94490303209780       42.21976391871113
C           47.43092395105308       66.20341815872030       41.71902910853499
C           48.45380867086833       67.10094969345705       41.46523847729947
C           51.62484384690396       67.06149740868916       40.09784657875092
C           52.30539707224945       68.10375564261848       39.20346474608875
C           51.27835769079278       68.97846931160517       38.52757211566102
C           51.31703487653019       70.35784785454757       38.68570405083664
C           50.38252980378414       71.17339757162509       38.07264380476299