3795
 energy: -5103.696306060456 gnorm: 0.000867745280 xtb: 6.6.1 (8d0f1dd)
C          114.78616629127004      102.69158768787042      129.49245352690190
C          115.53390998533168      103.33832888152116      128.35156253671977
C          113.28121061366492      102.97123446263703      129.39538595276093
C          112.94689399658394      104.43765250242627      129.66174334710342
H          112.93072610493812      102.68702340938989      128.40116290867363
H          112.76479784298284      102.34880094871440      130.12747587805401
C          111.44416683427787      104.68814201232429      129.55900824106516
H          113.28740154782815      104.71429595767758      130.66277323770470
H          113.47170799083624      105.07457745110698      128.94841001966398
C          111.03446261640144      106.09682151619657      129.96607766924848
H          111.11322517518370      104.52572174615221      128.53036928579695
H          110.90547602898553      103.97972949254120      130.18959743021307
N          109.75404020514037      106.18643155103693      130.32515081651832
O          115.19741518386512      102.86918818753624      127.17605616399280
O          116.37903825194775      104.20219828599487      128.49808383288490
H          115.64935545473269      103.38262546979011      126.42033797092023
H          115.18263684075549      103.06396791451546      130.43753596369342
H          114.95136590790281      101.61528904163194      129.42667380789925
C          109.10890769450222      107.37957632083251      130.82840769953580
H          109.13236063002110      105.39546218619103      130.17123131162376
C          108.11954881520244      107.00512288559693      131.92888954034757
H          109.88580528647294      108.05580387411203      131.19486068018293
H          108.56526504208348      107.87355754368423      130.01671127670662
C          107.22154005365068      108.17531262913111      132.32276863013655
H          107.50247174436180      106.18380866488444      131.55681566935746
H          108.66152354005402      106.64149167463681      132.80356640296725
C          106.11902297169875      107.72132500208377      133.27643197019776
H          107.81943337005856      108.95278589060558      132.80156107229655
H          106.77473357881775      108.60071251262053      131.42247222896128
C          105.27591583506407      108.87095198426010      133.83038514566772
H          105.47414537200768      107.01113285235330      132.75518787807445
H          106.57326812502215      107.19506763625081      134.11840850705278
C          104.57272219251202      109.69767298827733      132.75261186294890
H          104.52658866238173      108.45770679043538      134.50861672090974
H          105.91147209992151      109.54431532733109      134.40738028729638
N          103.80607360953182      108.86970037259903      131.84703165619180
H          103.91199701382122      110.42890457649324      133.23178234671281
H          105.29850200124469      110.24022086818813      132.14530415828341
C          103.89205582058634      108.95037995536508      130.51166174360213
H          103.16809010792049      108.20892225014798      132.26158932038729
O          111.80213249747864      107.05834209377159      129.95859112462023
C          103.03564448536355      107.95639743923492      129.75513054272790
C          103.52076220910229      106.50872154385206      129.89587608744267
H          102.01093618442786      108.03992994618339      130.12289512180246
H          103.03846574323187      108.24610889137625      128.70348701396946
C          104.91030711934016      106.30064197301742      129.29616672639881
H          103.52880197730178      106.21323088438943      130.94756573735160
H          102.81214179839708      105.86225625026968      129.37457666857682
C          105.29848671148636      104.81699834622854      129.26682422459197
H          104.91738170689064      106.68470306759136      128.27639691694947
H          105.64738556048445      106.86349178186720      129.87200842612452
C          106.73432802241824      104.66232830608129      128.80684632936052
H          105.20979340426724      104.38639954389720      130.26539971197951
H          104.63509242600560      104.28533618589029      128.58435051231260
N          106.92565073466648      104.81857176329856      127.49745011436846
C          108.24055845050339      104.76321816369227      126.88681429080994
H          106.11928712350523      104.89297305596486      126.88350103510922
O          104.60819281747001      109.77367933866304      129.95189979398990
C          108.15583534793191      104.71251800382082      125.36606197228443
H          108.81599515548442      105.64199092598759      127.20697575119000
H          108.76209348175551      103.87540794245146      127.26499250681185
C          107.59213680548584      105.99915458012433      124.76632489360415
H          109.15687930238757      104.51807298520536      124.97853112792635
H          107.51791180702224      103.87523501071558      125.08140246554807
C          107.50998333633498      105.97062342695423      123.23664671248667
H          106.58459253285194      106.14416858389065      125.15882607390012
H          108.19612723726738      106.84602899759003      125.08835141785366
C          108.82730003991053      106.24923601846807      122.51021966086371
H          107.12378602232549      104.99947215260894      122.92153675970681
H          106.79548431280902      106.73064800857010      122.91234201679688
C          109.37563814455235      107.62736357685932      122.86228854680581
N          110.21887024162373      108.18342447046513      121.82256273506418
H          108.54770654121828      108.32885159714458      123.01827402078055
H          109.94700851114808      107.58466646448929      123.79570420678994
C          110.75652894298089      109.40645065119064      121.98485255814204
H          110.57858608346065      107.57453088892495      121.09851991571975
O          107.65541346618016      104.44540316225314      129.59763842177372
C          111.63349146867903      109.85726638911370      120.83662623376259
C          112.62973226022653      110.93251698511482      121.25692340451296
H          112.14183669349532      108.98431392273108      120.43127517851920
H          110.97542299015642      110.25900551390444      120.06172745538319
C          113.44000076891895      111.46941556161687      120.07884976491891
H          112.07198267836273      111.75045322060569      121.71767379610469
H          113.30030839628418      110.51840290360666      122.01114431027119
C          114.29757033535655      110.38905769800280      119.41035372901095
H          112.75366972298733      111.88527876804035      119.33867937538720
H          114.08821673915745      112.27173901530483      120.43565036293691
C          115.11068798795384      110.96393203859945      118.27108289153054
H          114.96768222736939      109.93684065952826      120.14163932518346
H          113.64966584755990      109.61231699149212      119.00875044487930
N          114.42669548452906      111.13454167633844      117.14136627979899
C          115.04226385345048      111.59509766440723      115.91249347743374
H          113.47276695219954      110.79516606118607      117.08354839199367
H          109.56148714198314      105.47834396637691      122.74814386753482
H          108.64095842979424      106.20979796298617      121.43455748192292
O          110.50385570300178      110.09847896818560      122.96443491960336
O          116.29730595758166      111.28036132874189      118.37184960410414
C          114.21313106251513      111.14099192879034      114.71909001981619
H          115.13917837638279      112.68501940657757      115.93774732245276
H          116.05179996632378      111.17677938307965      115.85958573689139
C          114.79569401164933      111.60742047343260      113.38537925360821
H          114.16597011315847      110.05049452553315      114.74055465176609
H          113.19500798417261      111.51856242873984      114.83191651284949
C          114.53083066108331      113.08583857481986      113.11476866822532
H          115.86868615032792      111.41341533478011      113.38557111006000
H          114.35782779678533      111.02438753641219      112.57321190880603
C          115.34604249536970      113.58754675756803      111.92539125377709
H          113.46638787431014      113.21836469270242      112.91551641527106
H          114.80478700246408      113.65435758836715      114.00196558049410
C          115.11422295515030      115.06263805868439      111.63122171890203
H          116.40365525640516      113.43622848807908      112.14226833727990
H          115.10048886250630      113.00339098477244      111.03823200099993
N          115.47809166514109      115.87449029570375      112.77815737954597
H          115.71098070560286      115.37547114688897      110.76699513405380
H          114.06432652095651      115.24919497094064      111.38838458502151
C          115.37449625308786      117.20526427668041      112.77946101939585
H          115.95404251241578      115.41332101170845      113.54927260388541
C          115.83219175428026      117.85815432267755      114.06973412388605
C          115.05551114657599      119.13372481505942      114.38430427235387
H          115.74387954713985      117.13467494571032      114.87759036667691
H          116.89123983804730      118.10139407032875      113.95513277985349
C          115.59706041628931      119.87080054364840      115.60820722422949
H          115.11477613470640      119.79514382062453      113.51795671560974
H          114.00365984707575      118.89342219413936      114.54744690107889
C          115.34503231802086      119.10201146561963      116.90908835688251
H          116.66818336678202      120.04463143677498      115.48891682548880
H          115.09365923532856      120.83552354386680      115.67746445657532
C          115.75941630562822      119.91317924750594      118.12133757813068
H          114.27897643245637      118.88571806077442      116.97800622275382
H          115.91618207940549      118.17538214949799      116.91244895072137
N          114.85746666353826      120.81873559577132      118.50007188808515
C          115.08468551523828      121.79387421538567      119.54236025134571
H          114.05172387816722      120.97547626839439      117.88995533906264
O          114.93316842754913      117.83247920172249      111.81862885093376
C          115.75975842472539      123.04962226602920      118.99021096402318
H          114.11708980640402      122.05323485007190      119.97884341264057
H          115.72287398219497      121.34464005486394      120.30754702744285
C          115.81084749292381      124.18577090101222      120.00371939532783
H          116.77563438648214      122.79125769917242      118.69308133361818
H          115.21826205967919      123.38311247841793      118.10297831255080
C          116.60462868569900      125.36115800576886      119.44459061501283
H          114.79987385498578      124.51737163412703      120.24498189843597
H          116.27524382287676      123.83722242280611      120.92805343249313
C          116.68630857049887      126.52321739814185      120.42846047953053
H          117.61543818879885      125.02925023797378      119.19353639315361
H          116.12775205650514      125.70595890115031      118.52726621968493
C          117.57228548595991      127.64163228690421      119.90307391441510
H          115.68808824117698      126.92388993623820      120.61020991016473
H          117.08257566183353      126.17415899344192      121.38169735972234
N          116.88718544637655      128.40056367915437      118.87673963385875
H          117.84964198513424      128.32940796985278      120.70990107982342
H          118.50196166488355      127.23793340404883      119.48445223589441
O          116.82373124249561      119.72079612143544      118.71285809683017
C          117.41073107465822      129.51281781066194      118.37142677585912
H          115.96648310053263      128.08158588635391      118.57980953055552
C          116.51230349877149      130.28140152000799      117.42683267961124
C          116.01031949946139      131.54425062368611      118.13627142699477
H          117.08527215289449      130.56940628037390      116.54465526221163
H          115.67228690113413      129.65994852711506      117.11958649811471
C          115.12293038652039      131.22128462762871      119.33760434475012
H          116.87306557182194      132.12530313927991      118.46994488147455
H          115.45249398053902      132.15618057991676      117.42451044884281
C          114.67659510729666      132.49971256271002      120.05244960941783
H          114.24745092667422      130.65944677054995      119.00386922556063
H          115.67394516768741      130.59628188089340      120.04354936254661
C          113.85730615556888      132.19453370093680      121.29360754848393
H          115.56301786722818      133.05388090367015      120.36940935244202
H          114.09386535137541      133.12563280813438      119.37724428057759
N          112.56334041240551      132.49295505880332      121.19335151815626
O          118.53626821992746      129.91338866016568      118.68496102157356
C          111.61367646955128      132.38741640136089      122.28163024767295
H          112.21853778937289      132.91852474270914      120.33737025655029
C          110.20124992807276      132.18656139436408      121.73947845389401
H          111.92947706249861      131.56197013675234      122.92388138354224
H          111.64553255817536      133.30828620866882      122.87914134797025
C          109.11950105917241      132.43730578054121      122.78904201314873
H          110.06050158235983      132.89561790301460      120.92093013797221
H          110.09402958010249      131.18643035941651      121.31800839950652
C          109.09227884192970      131.41663036491477      123.92614887292649
H          109.26020688103247      133.43567517690727      123.21012435932838
H          108.14537930288003      132.42388815070882      122.29577878407943
C          107.98927685847516      131.76566664110965      124.92497231891977
H          108.90655627814201      130.42157203405867      123.51929456286757
H          110.05368090405264      131.40580363797380      124.44211005319718
C          107.93996976642281      130.83146554705357      126.12631510268223
H          108.14336423099326      132.78185497352402      125.29163238362429
H          107.02283529293241      131.73155596361198      124.41859147326031
N          107.49559597927093      129.50602276590016      125.74364631383756
H          108.92560687336854      130.73839318427511      126.59473947108796
H          107.25486423327770      131.23597648282805      126.88280464326881
C          107.66793793652883      128.44035066700971      126.52646231434085
H          106.98633513662375      129.42565519780320      124.86766399576236
O          114.35958818674085      131.70486997442828      122.30698337776447
C          107.04402825356544      127.15700639095535      126.01212485815410
C          107.91551781220112      125.91688226349348      126.23304197329101
H          106.10696464467006      127.03614346138345      126.56354806201055
H          106.80219356365335      127.27845874413251      124.95670581868133
C          109.00761529649921      125.76668132243795      125.17440915876718
H          108.35360941014027      125.96743075530020      127.23114337382336
H          107.27402384990809      125.03321165498541      126.20031318703857
C          110.09634772768074      126.84891900547517      125.21828308764849
H          109.48108482254818      124.78950318586080      125.28929568896170
H          108.53591610011041      125.79512680814240      124.19007329221003
C          111.09956060389858      126.58658860588555      126.32705616311232
H          110.64080868950437      126.83597965912941      124.27309512748643
H          109.64595968560853      127.83184207605387      125.34356520631857
N          110.77948287332748      127.10217340984116      127.51479765749035
C          111.61330583260653      126.99559143702345      128.68971579104465
H          109.91438653543953      127.62649487732992      127.62298848812074
O          108.28147190071593      128.49784491892319      127.59643359397398
C          111.89000210964490      128.37264976465988      129.29282743220179
H          111.10803948655969      126.37130457194226      129.43541184515894
H          112.53925337014249      126.50257593042416      128.38793996609078
C          112.72987826594799      129.27613025850135      128.38794365721199
H          110.92781185991424      128.85310485520827      129.48406700000754
H          112.39592181119723      128.23973914286145      130.25012172540829
C          114.19416255897966      128.84756775783504      128.30599246337241
H          112.29643420698082      129.28229264213613      127.38558324131047
H          112.68051310485264      130.29557143777484      128.77585346613066
C          115.02966722757580      129.84052025251827      127.49974945822753
H          114.60112182415669      128.77415685026170      129.31728776989647
H          114.25744419306652      127.86567108146343      127.83849279663995
C          116.51716434226113      129.50445890487964      127.50250674971362
H          114.67084486971935      129.86604848590696      126.46838583513403
H          114.90799790308994      130.84023094188467      127.91971548674444
N          116.77602863519181      128.25372410673972      126.82204007768314
H          117.07653975207747      130.31697580654006      127.01955381153792
H          116.88806246573573      129.41502543642252      128.52776261403460
C          117.88868159263623      127.53473609403241      126.97190580059318
H          116.12839182321989      127.96980641666745      126.09137679224601
O          112.12314004169835      125.93358982326292      126.13090405113661
C          117.91839476996464      126.26034563129257      126.15080227000936
C          117.21396813016842      125.09640098874191      126.86155447635522
H          117.41603967113633      126.44646707470413      125.20247581524683
H          118.96184850346243      126.00385533170964      125.96435043600708
C          115.74530280523976      125.40278090101783      127.14918151060321
H          117.27823119220471      124.21395181224621      126.22217678181008
H          117.72890377786698      124.86987635730809      127.79923941222003
C          114.95680194465925      124.16396320521267      127.58230576972996
H          115.68979663214127      126.13973881757325      127.95185607430479
H          115.28236303115085      125.83010904617626      126.25875600339263
C          114.73526263304827      123.19574853240802      126.43860610219257
H          115.49286556015888      123.64413411017202      128.37821541998014
H          113.97959351806750      124.47956109207806      127.95104866444994
N          113.91596033163198      123.62819611638487      125.48408243908449
O          118.81287342195108      127.87209048671839      127.71309194879798
C          113.64698688280853      122.87045711434661      124.28159900874567
H          113.41748302872918      124.50055659066219      125.60863906986704
C          113.58556018400679      123.77002665617709      123.05156338548588
H          114.45509164087174      122.14357505073150      124.17705785285852
H          112.71455983417859      122.31116462465440      124.39192936833633
C          112.27176902770958      124.54274003908465      122.93221340574908
H          114.40583830028795      124.48820320315755      123.10577413627603
H          113.73463094580339      123.15342598974055      122.16676229356500
C          111.03428232033141      123.67216332079552      122.70096525290623
H          112.12659803782665      125.12059298373835      123.84538258101080
H          112.36593919585916      125.24815960987641      122.10351148260806
C          111.07486200899822      122.90375613298244      121.38082645968214
H          110.91451873078860      122.96989436893379      123.52442962731259
H          110.15594942303302      124.32187395391104      122.70667247039694
C          109.75965373438662      122.20678866590900      121.06108502017555
H          111.29628022513097      123.60172297054893      120.57218005700945
H          111.86226524519253      122.15037962745153      121.41620516482382
N          109.54523804107002      121.04089290289589      121.89704051409200
H          108.91311787949496      122.88535270628262      121.19585243989253
H          109.74672199646001      121.87337362759412      120.01773780527103
C          108.36420954553761      120.42877217492783      121.95634108071764
H          110.33530197681159      120.66450598750613      122.41432790731460
O          115.27780554034510      122.09024996904722      126.39917237138081
C          108.37123261487569      119.07629076012945      122.63911068771674
C          108.15731844848742      117.99403807046281      121.56835977722348
H          109.32124293639089      118.92815271024183      123.14939629081290
H          107.56114020328626      119.02728074326627      123.36952542487360
C          108.62427134447539      116.61629046214814      122.03764387957142
H          107.09585788506821      117.96503372127053      121.31714941847302
H          108.69361948347773      118.27139385012877      120.65782064316946
C          110.13631733316552      116.43885523230588      121.89138742782346
H          108.33975340823199      116.47704428549612      123.08166658445775
H          108.12521788380006      115.83585193381712      121.46089591592826
C          110.60901068849860      115.13083857862320      122.50916319794885
H          110.38443685862454      116.42387540511314      120.82814358799482
H          110.66744413705496      117.26639819099761      122.35897076914581
N          111.79151134564449      115.20964558192124      123.12307081021500
C          112.40255919197386      114.12390013153525      123.86369696365675
H          112.35723689891304      116.05309236273817      123.04841769241155
O          107.34671028694383      120.90191647184601      121.44585495652434
C          113.30722722884394      114.70776552031089      124.94666111528377
H          111.60644789569288      113.50539397720473      124.28621281992356
H          112.98714134053063      113.48522399661336      123.19080843720782
C          113.79252412665731      113.67210064355739      125.96119907916810
H          114.16017896458960      115.17044248761937      124.45124623875404
H          112.76564476750285      115.49689377554760      125.46944126149312
C          112.76238511988682      113.38512659198898      127.05109273314530
H          114.03402602570975      112.74067609722553      125.45055603055323
H          114.70480849371724      114.03425788959690      126.43623529171711
C          113.26369238525245      112.32755182545930      128.03428874027310
H          112.54241362798032      114.30406282301335      127.59754012060083
H          111.83428871658593      113.03762313422909      126.59423028682944
C          112.21755550101440      112.04897373924598      129.10974684288044
H          113.49226822620436      111.40476952393703      127.49748353032059
H          114.18781423943057      112.66046813508942      128.50940587387473
N          112.63714622435764      111.01658928750565      130.03431648695064
H          112.02891725617869      112.94617388924226      129.70346610080497
H          111.27559465119442      111.73742368661469      128.64439173681541
C          112.58168018506960      111.14981610219722      131.36061862124188
H          113.01908053280829      110.17238887424719      129.63693962922048
O          109.94164903521197      114.09878263878358      122.45677159808510
C          113.03260938660299      109.95278563689342      132.17031414399295
C          114.31335295343247      110.30519844470963      132.93163275349772
H          112.24532453453706      109.71775587208309      132.89140648701613
H          113.18997302380306      109.08404469532429      131.53137560171888
C          114.74458249489372      109.18654249557798      133.87650479047949
H          115.11002759479805      110.52080863690414      132.21523659469344
H          114.13372366504844      111.21539523581879      133.50933537423427
C          115.91203573478079      109.60806032966491      134.77250972135556
H          113.90368938674719      108.90662488744852      134.51618224537617
H          115.02812239904709      108.30348509503449      133.30324954070568
C          117.06946787581285      110.20353806424183      133.99043800920384
H          115.57831799698005      110.35902103862905      135.49172632997687
H          116.27815876816685      108.73882413661050      135.32160161470998
N          117.64951928394940      109.38759366178813      133.11965306328307
O          112.17198961417951      112.17611992674479      131.90255736971011
C          118.77552272628769      109.77331211086884      132.30289119048004
H          117.33455337329291      108.42052500057189      133.03315309856742
C          119.87400099463881      108.70938536177677      132.29170476026735
H          118.42623668144508      109.94122704051067      131.27790695701361
H          119.14788904381031      110.72412818259276      132.69409921385315
C          120.20263579849794      108.14856145489711      133.67603519885597
H          119.56113912173119      107.88297445763767      131.65004269811928
H          120.76514655289046      109.14509890489653      131.83789616289255
C          120.61378269722680      109.19193655170581      134.71631966614461
H          119.32540722534972      107.61337242251965      134.04609805811202
H          121.00855687578728      107.41871050151582      133.56717623302106
C          121.95739277898855      109.85398250072009      134.42238738145065
H          119.84134149879259      109.95791940429567      134.79962334666624
H          120.67925714435385      108.69504347322683      135.68798326321334
C          122.36976496174795      110.80393602013930      135.55614733374884
H          122.72260015820336      109.08074780412213      134.30534668660928
H          121.90179821146602      110.41474121512637      133.48644354625162
N          123.69293247179172      111.39039231550859      135.42617654107625
H          121.64745227077968      111.62258733298134      135.62062752573382
H          122.34476818787118      110.26123069637305      136.50616743507604
H          123.75312989771764      111.92086308850318      134.56344785787292
H          124.39027188722100      110.65576990679129      135.37569045965765
O          117.44099107814246      111.36528834573527      134.17667107117768
C          117.15520301696235       97.57843238847644      111.55740934151480
C          115.83400424875587       97.38815073717858      112.27245285719125
C          117.29281952520950       98.99082267001337      110.99095326456600
C          117.20496231919780      100.05324679882557      112.08464599065556
H          118.24420461824413       99.07510314366593      110.46662816566891
H          116.49377759394156       99.15129308961656      110.26578181623631
C          116.95953696994407      101.45187861906568      111.51608667578434
H          116.37575670887063       99.81154846911835      112.75225233449711
H          118.11661343356921      100.05859801437590      112.68406981524214
C          118.10889112317315      101.92947746599242      110.65195764291536
H          116.04805310996093      101.44633599905610      110.91763004829193
H          116.84553784001019      102.14651999976876      112.34753800885863
N          119.14658784176804      102.39915360100890      111.34251335264750
O          114.81298585712186       97.92701563703162      111.64921977386155
O          115.73705995988460       96.79305407926718      113.32944073158987
H          113.94282661357366       97.85920704986428      112.17788716102211
H          117.19613665262423       96.84899923204460      110.74575784034478
H          117.95506106152691       97.35224812971671      112.26311966535603
C          120.34363540409642      102.93224573119443      110.72269943204054
H          119.08544108548901      102.41527788223264      112.35796768697487
C          121.34859715106492      103.37161077229783      111.77990737843430
H          120.78290896791881      102.17074843107856      110.06753956873744
H          120.06489085734344      103.77784160252091      110.08274319874297
C          122.61399952152105      103.93496610640575      111.13667539640350
H          120.88635636523570      104.12924159008904      112.41603237267955
H          121.59593253492908      102.51477411949746      112.40756639321256
C          123.60283425157230      104.53107265381878      112.13893782496754
H          123.10601829874989      103.15095414695098      110.55779865611099
H          122.32187429446589      104.71931618153118      110.43536288187505
C          124.07602496808599      103.54146957275204      113.20312000909031
H          124.47187011973332      104.88363758466821      111.57955464740542
H          123.14556270427072      105.38883955020943      112.63320365331504
C          125.31238145106143      104.07212573877989      113.92501553969534
H          123.28151386546747      103.37731477127123      113.93226820753009
H          124.31550680412631      102.58674882301501      112.73079882689525
N          125.65228479815650      103.23549090121318      115.05824579890071
H          126.15959435149711      104.11488821264440      113.23089966810016
H          125.13479211536716      105.07681582136159      114.31587327682735