      -----------------------------------------------------------      
     |                   =====================                   |     
     |                           x T B                           |     
     |                   =====================                   |     
     |                         S. Grimme                         |     
     |          Mulliken Center for Theoretical Chemistry        |     
     |                    University of Bonn                     |     
      -----------------------------------------------------------      

   * xtb version 6.6.1 (8d0f1dd) compiled by 'stahn@M-Bot' on 2023-08-01

   xtb is free software: you can redistribute it and/or modify it under
   the terms of the GNU Lesser General Public License as published by
   the Free Software Foundation, either version 3 of the License, or
   (at your option) any later version.
   
   xtb is distributed in the hope that it will be useful,
   but WITHOUT ANY WARRANTY; without even the implied warranty of
   MERCHANTABILITY or FITNESS FOR A PARTICULAR PURPOSE.  See the
   GNU Lesser General Public License for more details.
   
   Cite this work as:
   * C. Bannwarth, E. Caldeweyher, S. Ehlert, A. Hansen, P. Pracht,
     J. Seibert, S. Spicher, S. Grimme, WIREs Comput. Mol. Sci., 2020, 11,
     e01493. DOI: 10.1002/wcms.1493
   
   for GFN2-xTB:
   * C. Bannwarth, S. Ehlert and S. Grimme., J. Chem. Theory Comput., 2019,
     15, 1652-1671. DOI: 10.1021/acs.jctc.8b01176
   for GFN1-xTB:
   * S. Grimme, C. Bannwarth, P. Shushkov, J. Chem. Theory Comput., 2017,
     13, 1989-2009. DOI: 10.1021/acs.jctc.7b00118
   for GFN0-xTB:
   * P. Pracht, E. Caldeweyher, S. Ehlert, S. Grimme, ChemRxiv, 2019, preprint.
     DOI: 10.26434/chemrxiv.8326202.v1
   for GFN-FF:
   * S. Spicher and S. Grimme, Angew. Chem. Int. Ed., 2020, 59, 15665-15673.
     DOI: 10.1002/anie.202004239
   
   for ALPB and GBSA implicit solvation:
   * S. Ehlert, M. Stahn, S. Spicher, S. Grimme, J. Chem. Theory Comput.,
     2021, 17, 4250-4261. DOI: 10.1021/acs.jctc.1c00471
   
   for DFT-D4:
   * E. Caldeweyher, C. Bannwarth and S. Grimme, J. Chem. Phys., 2017,
     147, 034112. DOI: 10.1063/1.4993215
   * E. Caldeweyher, S. Ehlert, A. Hansen, H. Neugebauer, S. Spicher,
     C. Bannwarth and S. Grimme, J. Chem. Phys., 2019, 150, 154122.
     DOI: 10.1063/1.5090222
   * E. Caldeweyher, J.-M. Mewes, S. Ehlert and S. Grimme, Phys. Chem. Chem. Phys.
     2020, 22, 8499-8512. DOI: 10.1039/D0CP00502A
   
   for sTDA-xTB:
   * S. Grimme and C. Bannwarth, J. Chem. Phys., 2016, 145, 054103.
     DOI: 10.1063/1.4959605
   
   in the mass-spec context:
   * V. Asgeirsson, C. Bauer and S. Grimme, Chem. Sci., 2017, 8, 4879.
     DOI: 10.1039/c7sc00601b
   * J. Koopman and S. Grimme, ACS Omega 2019, 4, 12, 15120-15133.
     DOI: 10.1021/acsomega.9b02011
   
   for metadynamics refer to:
   * S. Grimme, J. Chem. Theory Comput., 2019, 155, 2847-2862
     DOI: 10.1021/acs.jctc.9b00143
   
   for SPH calculations refer to:
   * S. Spicher and S. Grimme, J. Chem. Theory Comput., 2021, 17, 1701-1714
     DOI: 10.1021/acs.jctc.0c01306
   
   with help from (in alphabetical order)
   P. Atkinson, C. Bannwarth, F. Bohle, G. Brandenburg, E. Caldeweyher
   M. Checinski, S. Dohm, S. Ehlert, S. Ehrlich, I. Gerasimov, C. Hölzer
   A. Katbashev, J. Koopman, C. Lavigne, S. Lehtola, F. März, M. Müller,
   F. Musil, H. Neugebauer, J. Pisarek, C. Plett, P. Pracht, F. Pultar,
   J. Seibert, P. Shushkov, S. Spicher, M. Stahn, M. Steiner, T. Strunk,
   J. Stückrath, T. Rose, and J. Unsleber
   
 * started run on 2024/06/24 at 23:20:49.431     

           -------------------------------------------------
          |                Calculation Setup                |
           -------------------------------------------------

          program call               : /home/abt-grimme/AK-bin/xtb input.xyz --input input.inp --opt --gbsa water
          hostname                   : boar028.thch.uni-bonn.de
          coordinate file            : input.xyz
          omp threads                :                     8

   ID    Z sym.   atoms
    1    6 C      1-4, 7, 10, 19, 21, 24, 27, 30, 33, 39, 42, 43, 46, 49, 52,
                  56, 59, 62, 65, 68, 71, 75, 78, 79, 82, 85, 88, 92, 98,
                  101, 104, 107, 110, 116, 118, 119, 122, 125, 128, 132, 135,
                  138, 141, 144, 147, 154, 156, 157, 160, 163, 166, 171, 173,
                  176, 179, 182, 185, 191, 194, 195, 198, 201, 204, 208, 211,
                  214, 217, 220, 223, 229, 232, 233, 236, 239, 242, 247, 249,
                  252, 255, 258, 261, 267, 270, 271, 274, 277, 280, 284, 287,
                  290, 293, 296, 299, 305, 308, 309, 312, 315, 318, 323, 325,
                  328, 331, 334, 337, 346-349, 352, 355, 364, 366, 369, 372,
                  375, 378, 384, 387, 388, 391, 394, 397, 401, 404, 407, 410,
                  413, 416, 420, 423, 424, 427, 430, 433, 437, 443, 446, 449,
                  452, 455, 461, 463, 464, 467, 470, 473, 477, 480, 483, 486,
                  489, 492, 499, 501, 502, 505, 508, 511, 516, 518, 521, 524,
                  527, 530, 536, 539, 540, 543, 546, 549, 553, 556, 559, 562,
                  565, 568, 574, 577, 578, 581, 584, 587, 592, 594, 597, 600,
                  603, 606, 612, 615, 616, 619, 622, 625, 629, 632, 635, 638,
                  641, 644, 650, 653, 654, 657, 660, 663, 668, 670, 673, 676,
                  679, 682, 691-694, 697, 700, 709, 711, 714, 717, 720, 723,
                  729, 732, 733, 736, 739, 742, 746, 749, 752, 755, 758, 761,
                  765, 768, 769, 772, 775, 778, 782, 788, 791, 794, 797, 800,
                  806, 808, 809, 812, 815, 818, 822, 825, 828, 831, 834, 837,
                  844, 846, 847, 850, 853, 856, 861, 863, 866, 869, 872, 875,
                  881, 884, 885, 888, 891, 894, 898, 901, 904, 907, 910, 913,
                  919, 922, 923, 926, 929, 932, 937, 939, 942, 945, 948, 951,
                  957, 960, 961, 964, 967, 970, 974, 977, 980, 983, 986, 989,
                  995, 998, 999, 1002, 1005, 1008, 1013, 1015, 1018, 1021,
                  1024, 1027, 1036-1039, 1042, 1045, 1054, 1056, 1059, 1062,
                  1065, 1068, 1074, 1077, 1078, 1081, 1084, 1087, 1091, 1094,
                  1097, 1100, 1103, 1106, 1110, 1113, 1114, 1117, 1120, 1123,
                  1127, 1133, 1136, 1139, 1142, 1145, 1151, 1153, 1154, 1157,
                  1160, 1163, 1167, 1170, 1173, 1176, 1179, 1182, 1189, 1191,
                  1192, 1195, 1198, 1201, 1206, 1208, 1211, 1214, 1217, 1220,
                  1226, 1229, 1230, 1233, 1236, 1239, 1243, 1246, 1249, 1252,
                  1255, 1258, 1264, 1267, 1268, 1271, 1274, 1277, 1282, 1284,
                  1287, 1290, 1293, 1296, 1302, 1305, 1306, 1309, 1312, 1315,
                  1319, 1322, 1325, 1328, 1331, 1334, 1340, 1343, 1344, 1347,
                  1350, 1353, 1358, 1360, 1363, 1366, 1369, 1372, 1381-1384,
                  1387, 1390, 1399, 1401, 1404, 1407, 1410, 1413, 1419, 1422,
                  1423, 1426, 1429, 1432, 1436, 1439, 1442, 1445, 1448, 1451,
                  1455, 1458, 1459, 1462, 1465, 1468, 1472, 1478, 1481, 1484,
                  1487, 1490, 1496, 1498, 1499, 1502, 1505, 1508, 1512, 1515,
                  1518, 1521, 1524, 1527, 1534, 1536, 1537, 1540, 1543, 1546,
                  1551, 1553, 1556, 1559, 1562, 1565, 1571, 1574, 1575, 1578,
                  1581, 1584, 1588, 1591, 1594, 1597, 1600, 1603, 1609, 1612,
                  1613, 1616, 1619, 1622, 1627, 1629, 1632, 1635, 1638, 1641,
                  1647, 1650, 1651, 1654, 1657, 1660, 1664, 1667, 1670, 1673,
                  1676, 1679, 1685, 1688, 1689, 1692, 1695, 1698, 1703, 1705,
                  1708, 1711, 1714, 1717, 1726-1729, 1732, 1735, 1744, 1746,
                  1749, 1752, 1755, 1758, 1764, 1767, 1768, 1771, 1774, 1777,
                  1781, 1784, 1787, 1790, 1793, 1796, 1800, 1803, 1804, 1807,
                  1810, 1813, 1817, 1823, 1826, 1829, 1832, 1835, 1841, 1843,
                  1844, 1847, 1850, 1853, 1857, 1860, 1863, 1866, 1869, 1872,
                  1879, 1881, 1882, 1885, 1888, 1891, 1896, 1898, 1901, 1904,
                  1907, 1910, 1916, 1919, 1920, 1923, 1926, 1929, 1933, 1936,
                  1939, 1942, 1945, 1948, 1954, 1957, 1958, 1961, 1964, 1967,
                  1972, 1974, 1977, 1980, 1983, 1986, 1992, 1995, 1996, 1999,
                  2002, 2005, 2009, 2012, 2015, 2018, 2021, 2024, 2030, 2033,
                  2034, 2037, 2040, 2043, 2048, 2050, 2053, 2056, 2059, 2062,
                  2071-2074, 2077, 2080, 2089, 2091, 2094, 2097, 2100, 2103,
                  2109, 2112, 2113, 2116, 2119, 2122, 2126, 2129, 2132, 2135,
                  2138, 2141, 2145, 2148, 2149, 2152, 2155, 2158, 2162, 2168,
                  2171, 2174, 2177, 2180, 2186, 2188, 2189, 2192, 2195, 2198,
                  2202, 2205, 2208, 2211, 2214, 2217, 2224, 2226, 2227, 2230,
                  2233, 2236, 2241, 2243, 2246, 2249, 2252, 2255, 2261, 2264,
                  2265, 2268, 2271, 2274, 2278, 2281, 2284, 2287, 2290, 2293,
                  2299, 2302, 2303, 2306, 2309, 2312, 2317, 2319, 2322, 2325,
                  2328, 2331, 2337, 2340, 2341, 2344, 2347, 2350, 2354, 2357,
                  2360, 2363, 2366, 2369, 2375, 2378, 2379, 2382, 2385, 2388,
                  2393, 2395, 2398, 2401, 2404, 2407, 2416-2419, 2422, 2425,
                  2434, 2436, 2439, 2442, 2445, 2448, 2454, 2457, 2458, 2461,
                  2464, 2467, 2471, 2474, 2477, 2480, 2483, 2486, 2490, 2493,
                  2494, 2497, 2500, 2503, 2507, 2513, 2516, 2519, 2522, 2525,
                  2531, 2533, 2534, 2537, 2540, 2543, 2547, 2550, 2553, 2556,
                  2559, 2562, 2569, 2571, 2572, 2575, 2578, 2581, 2586, 2588,
                  2591, 2594, 2597, 2600, 2606, 2609, 2610, 2613, 2616, 2619,
                  2623, 2626, 2629, 2632, 2635, 2638, 2644, 2647, 2648, 2651,
                  2654, 2657, 2662, 2664, 2667, 2670, 2673, 2676, 2682, 2685,
                  2686, 2689, 2692, 2695, 2699, 2702, 2705, 2708, 2711, 2714,
                  2720, 2723, 2724, 2727, 2730, 2733, 2738, 2740, 2743, 2746,
                  2749, 2752, 2761-2764, 2767, 2770, 2779, 2781, 2784, 2787,
                  2790, 2793, 2799, 2802, 2803, 2806, 2809, 2812, 2816, 2819,
                  2822, 2825, 2828, 2831, 2835, 2838, 2839, 2842, 2845, 2848,
                  2852, 2858, 2861, 2864, 2867, 2870, 2876, 2878, 2879, 2882,
                  2885, 2888, 2892, 2895, 2898, 2901, 2904, 2907, 2914, 2916,
                  2917, 2920, 2923, 2926, 2931, 2933, 2936, 2939, 2942, 2945,
                  2951, 2954, 2955, 2958, 2961, 2964, 2968, 2971, 2974, 2977,
                  2980, 2983, 2989, 2992, 2993, 2996, 2999, 3002, 3007, 3009,
                  3012, 3015, 3018, 3021, 3027, 3030, 3031, 3034, 3037, 3040,
                  3044, 3047, 3050, 3053, 3056, 3059, 3065, 3068, 3069, 3072,
                  3075, 3078, 3083, 3085, 3088, 3091, 3094, 3097, 3106-3109,
                  3112, 3115, 3124, 3126, 3129, 3132, 3135, 3138, 3144, 3147,
                  3148, 3151, 3154, 3157, 3161, 3164, 3167, 3170, 3173, 3176,
                  3180, 3183, 3184, 3187, 3190, 3193, 3197, 3203, 3206, 3209,
                  3212, 3215, 3221, 3223, 3224, 3227, 3230, 3233, 3237, 3240,
                  3243, 3246, 3249, 3252, 3259, 3261, 3262, 3265, 3268, 3271,
                  3276, 3278, 3281, 3284, 3287, 3290, 3296, 3299, 3300, 3303,
                  3306, 3309, 3313, 3316, 3319, 3322, 3325, 3328, 3334, 3337,
                  3338, 3341, 3344, 3347, 3352, 3354, 3357, 3360, 3363, 3366,
                  3372, 3375, 3376, 3379, 3382, 3385, 3389, 3392, 3395, 3398,
                  3401, 3404, 3410, 3413, 3414, 3417, 3420, 3423, 3428, 3430,
                  3433, 3436, 3439, 3442, 3451-3454, 3457, 3460, 3469, 3471,
                  3474, 3477, 3480, 3483, 3489, 3492, 3493, 3496, 3499, 3502,
                  3506, 3509, 3512, 3515, 3518, 3521, 3525, 3528, 3529, 3532,
                  3535, 3538, 3542, 3548, 3551, 3554, 3557, 3560, 3566, 3568,
                  3569, 3572, 3575, 3578, 3582, 3585, 3588, 3591, 3594, 3597,
                  3604, 3606, 3607, 3610, 3613, 3616, 3621, 3623, 3626, 3629,
                  3632, 3635, 3641, 3644, 3645, 3648, 3651, 3654, 3658, 3661,
                  3664, 3667, 3670, 3673, 3679, 3682, 3683, 3686, 3689, 3692,
                  3697, 3699, 3702, 3705, 3708, 3711, 3717, 3720, 3721, 3724,
                  3727, 3730, 3734, 3737, 3740, 3743, 3746, 3749, 3755, 3758,
                  3759, 3762, 3765, 3768, 3773, 3775, 3778, 3781, 3784, 3787
    2    1 H      5, 6, 8, 9, 11, 12, 16-18, 20, 22, 23, 25, 26, 28, 29, 31,
                  32, 34, 35, 37, 38, 40, 44, 45, 47, 48, 50, 51, 53, 54, 57,
                  60, 61, 63, 64, 66, 67, 69, 70, 73, 74, 76, 80, 81, 83, 84,
                  86, 87, 89, 90, 93-95, 99, 100, 102, 103, 105, 106, 108,
                  109, 111, 112, 114, 115, 117, 120, 121, 123, 124, 126, 127,
                  129, 130, 133, 136, 137, 139, 140, 142, 143, 145, 146, 148,
                  149, 151, 152, 155, 158, 159, 161, 162, 164, 165, 167, 168,
                  172, 174, 175, 177, 178, 180, 181, 183, 184, 186, 187, 189,
                  190, 192, 196, 197, 199, 200, 202, 203, 205, 206, 209, 212,
                  213, 215, 216, 218, 219, 221, 222, 224, 225, 227, 228, 230,
                  234, 235, 237, 238, 240, 241, 243, 244, 248, 250, 251, 253,
                  254, 256, 257, 259, 260, 262, 263, 265, 266, 268, 272, 273,
                  275, 276, 278, 279, 281, 282, 285, 288, 289, 291, 292, 294,
                  295, 297, 298, 300, 301, 303, 304, 306, 310, 311, 313, 314,
                  316, 317, 319, 320, 324, 326, 327, 329, 330, 332, 333, 335,
                  336, 338, 339, 341-344, 350, 351, 353, 354, 356, 357,
                  361-363, 365, 367, 368, 370, 371, 373, 374, 376, 377, 379,
                  380, 382, 383, 385, 389, 390, 392, 393, 395, 396, 398, 399,
                  402, 405, 406, 408, 409, 411, 412, 414, 415, 418, 419, 421,
                  425, 426, 428, 429, 431, 432, 434, 435, 438-440, 444, 445,
                  447, 448, 450, 451, 453, 454, 456, 457, 459, 460, 462, 465,
                  466, 468, 469, 471, 472, 474, 475, 478, 481, 482, 484, 485,
                  487, 488, 490, 491, 493, 494, 496, 497, 500, 503, 504, 506,
                  507, 509, 510, 512, 513, 517, 519, 520, 522, 523, 525, 526,
                  528, 529, 531, 532, 534, 535, 537, 541, 542, 544, 545, 547,
                  548, 550, 551, 554, 557, 558, 560, 561, 563, 564, 566, 567,
                  569, 570, 572, 573, 575, 579, 580, 582, 583, 585, 586, 588,
                  589, 593, 595, 596, 598, 599, 601, 602, 604, 605, 607, 608,
                  610, 611, 613, 617, 618, 620, 621, 623, 624, 626, 627, 630,
                  633, 634, 636, 637, 639, 640, 642, 643, 645, 646, 648, 649,
                  651, 655, 656, 658, 659, 661, 662, 664, 665, 669, 671, 672,
                  674, 675, 677, 678, 680, 681, 683, 684, 686-689, 695, 696,
                  698, 699, 701, 702, 706-708, 710, 712, 713, 715, 716, 718,
                  719, 721, 722, 724, 725, 727, 728, 730, 734, 735, 737, 738,
                  740, 741, 743, 744, 747, 750, 751, 753, 754, 756, 757, 759,
                  760, 763, 764, 766, 770, 771, 773, 774, 776, 777, 779, 780,
                  783-785, 789, 790, 792, 793, 795, 796, 798, 799, 801, 802,
                  804, 805, 807, 810, 811, 813, 814, 816, 817, 819, 820, 823,
                  826, 827, 829, 830, 832, 833, 835, 836, 838, 839, 841, 842,
                  845, 848, 849, 851, 852, 854, 855, 857, 858, 862, 864, 865,
                  867, 868, 870, 871, 873, 874, 876, 877, 879, 880, 882, 886,
                  887, 889, 890, 892, 893, 895, 896, 899, 902, 903, 905, 906,
                  908, 909, 911, 912, 914, 915, 917, 918, 920, 924, 925, 927,
                  928, 930, 931, 933, 934, 938, 940, 941, 943, 944, 946, 947,
                  949, 950, 952, 953, 955, 956, 958, 962, 963, 965, 966, 968,
                  969, 971, 972, 975, 978, 979, 981, 982, 984, 985, 987, 988,
                  990, 991, 993, 994, 996, 1000, 1001, 1003, 1004, 1006,
                  1007, 1009, 1010, 1014, 1016, 1017, 1019, 1020, 1022, 1023,
                  1025, 1026, 1028, 1029, 1031-1034, 1040, 1041, 1043, 1044,
                  1046, 1047, 1051-1053, 1055, 1057, 1058, 1060, 1061, 1063,
                  1064, 1066, 1067, 1069, 1070, 1072, 1073, 1075, 1079, 1080,
                  1082, 1083, 1085, 1086, 1088, 1089, 1092, 1095, 1096, 1098,
                  1099, 1101, 1102, 1104, 1105, 1108, 1109, 1111, 1115, 1116,
                  1118, 1119, 1121, 1122, 1124, 1125, 1128-1130, 1134, 1135,
                  1137, 1138, 1140, 1141, 1143, 1144, 1146, 1147, 1149, 1150,
                  1152, 1155, 1156, 1158, 1159, 1161, 1162, 1164, 1165, 1168,
                  1171, 1172, 1174, 1175, 1177, 1178, 1180, 1181, 1183, 1184,
                  1186, 1187, 1190, 1193, 1194, 1196, 1197, 1199, 1200, 1202,
                  1203, 1207, 1209, 1210, 1212, 1213, 1215, 1216, 1218, 1219,
                  1221, 1222, 1224, 1225, 1227, 1231, 1232, 1234, 1235, 1237,
                  1238, 1240, 1241, 1244, 1247, 1248, 1250, 1251, 1253, 1254,
                  1256, 1257, 1259, 1260, 1262, 1263, 1265, 1269, 1270, 1272,
                  1273, 1275, 1276, 1278, 1279, 1283, 1285, 1286, 1288, 1289,
                  1291, 1292, 1294, 1295, 1297, 1298, 1300, 1301, 1303, 1307,
                  1308, 1310, 1311, 1313, 1314, 1316, 1317, 1320, 1323, 1324,
                  1326, 1327, 1329, 1330, 1332, 1333, 1335, 1336, 1338, 1339,
                  1341, 1345, 1346, 1348, 1349, 1351, 1352, 1354, 1355, 1359,
                  1361, 1362, 1364, 1365, 1367, 1368, 1370, 1371, 1373, 1374,
                  1376-1379, 1385, 1386, 1388, 1389, 1391, 1392, 1396-1398,
                  1400, 1402, 1403, 1405, 1406, 1408, 1409, 1411, 1412, 1414,
                  1415, 1417, 1418, 1420, 1424, 1425, 1427, 1428, 1430, 1431,
                  1433, 1434, 1437, 1440, 1441, 1443, 1444, 1446, 1447, 1449,
                  1450, 1453, 1454, 1456, 1460, 1461, 1463, 1464, 1466, 1467,
                  1469, 1470, 1473-1475, 1479, 1480, 1482, 1483, 1485, 1486,
                  1488, 1489, 1491, 1492, 1494, 1495, 1497, 1500, 1501, 1503,
                  1504, 1506, 1507, 1509, 1510, 1513, 1516, 1517, 1519, 1520,
                  1522, 1523, 1525, 1526, 1528, 1529, 1531, 1532, 1535, 1538,
                  1539, 1541, 1542, 1544, 1545, 1547, 1548, 1552, 1554, 1555,
                  1557, 1558, 1560, 1561, 1563, 1564, 1566, 1567, 1569, 1570,
                  1572, 1576, 1577, 1579, 1580, 1582, 1583, 1585, 1586, 1589,
                  1592, 1593, 1595, 1596, 1598, 1599, 1601, 1602, 1604, 1605,
                  1607, 1608, 1610, 1614, 1615, 1617, 1618, 1620, 1621, 1623,
                  1624, 1628, 1630, 1631, 1633, 1634, 1636, 1637, 1639, 1640,
                  1642, 1643, 1645, 1646, 1648, 1652, 1653, 1655, 1656, 1658,
                  1659, 1661, 1662, 1665, 1668, 1669, 1671, 1672, 1674, 1675,
                  1677, 1678, 1680, 1681, 1683, 1684, 1686, 1690, 1691, 1693,
                  1694, 1696, 1697, 1699, 1700, 1704, 1706, 1707, 1709, 1710,
                  1712, 1713, 1715, 1716, 1718, 1719, 1721-1724, 1730, 1731,
                  1733, 1734, 1736, 1737, 1741-1743, 1745, 1747, 1748, 1750,
                  1751, 1753, 1754, 1756, 1757, 1759, 1760, 1762, 1763, 1765,
                  1769, 1770, 1772, 1773, 1775, 1776, 1778, 1779, 1782, 1785,
                  1786, 1788, 1789, 1791, 1792, 1794, 1795, 1798, 1799, 1801,
                  1805, 1806, 1808, 1809, 1811, 1812, 1814, 1815, 1818-1820,
                  1824, 1825, 1827, 1828, 1830, 1831, 1833, 1834, 1836, 1837,
                  1839, 1840, 1842, 1845, 1846, 1848, 1849, 1851, 1852, 1854,
                  1855, 1858, 1861, 1862, 1864, 1865, 1867, 1868, 1870, 1871,
                  1873, 1874, 1876, 1877, 1880, 1883, 1884, 1886, 1887, 1889,
                  1890, 1892, 1893, 1897, 1899, 1900, 1902, 1903, 1905, 1906,
                  1908, 1909, 1911, 1912, 1914, 1915, 1917, 1921, 1922, 1924,
                  1925, 1927, 1928, 1930, 1931, 1934, 1937, 1938, 1940, 1941,
                  1943, 1944, 1946, 1947, 1949, 1950, 1952, 1953, 1955, 1959,
                  1960, 1962, 1963, 1965, 1966, 1968, 1969, 1973, 1975, 1976,
                  1978, 1979, 1981, 1982, 1984, 1985, 1987, 1988, 1990, 1991,
                  1993, 1997, 1998, 2000, 2001, 2003, 2004, 2006, 2007, 2010,
                  2013, 2014, 2016, 2017, 2019, 2020, 2022, 2023, 2025, 2026,
                  2028, 2029, 2031, 2035, 2036, 2038, 2039, 2041, 2042, 2044,
                  2045, 2049, 2051, 2052, 2054, 2055, 2057, 2058, 2060, 2061,
                  2063, 2064, 2066-2069, 2075, 2076, 2078, 2079, 2081, 2082,
                  2086-2088, 2090, 2092, 2093, 2095, 2096, 2098, 2099, 2101,
                  2102, 2104, 2105, 2107, 2108, 2110, 2114, 2115, 2117, 2118,
                  2120, 2121, 2123, 2124, 2127, 2130, 2131, 2133, 2134, 2136,
                  2137, 2139, 2140, 2143, 2144, 2146, 2150, 2151, 2153, 2154,
                  2156, 2157, 2159, 2160, 2163-2165, 2169, 2170, 2172, 2173,
                  2175, 2176, 2178, 2179, 2181, 2182, 2184, 2185, 2187, 2190,
                  2191, 2193, 2194, 2196, 2197, 2199, 2200, 2203, 2206, 2207,
                  2209, 2210, 2212, 2213, 2215, 2216, 2218, 2219, 2221, 2222,
                  2225, 2228, 2229, 2231, 2232, 2234, 2235, 2237, 2238, 2242,
                  2244, 2245, 2247, 2248, 2250, 2251, 2253, 2254, 2256, 2257,
                  2259, 2260, 2262, 2266, 2267, 2269, 2270, 2272, 2273, 2275,
                  2276, 2279, 2282, 2283, 2285, 2286, 2288, 2289, 2291, 2292,
                  2294, 2295, 2297, 2298, 2300, 2304, 2305, 2307, 2308, 2310,
                  2311, 2313, 2314, 2318, 2320, 2321, 2323, 2324, 2326, 2327,
                  2329, 2330, 2332, 2333, 2335, 2336, 2338, 2342, 2343, 2345,
                  2346, 2348, 2349, 2351, 2352, 2355, 2358, 2359, 2361, 2362,
                  2364, 2365, 2367, 2368, 2370, 2371, 2373, 2374, 2376, 2380,
                  2381, 2383, 2384, 2386, 2387, 2389, 2390, 2394, 2396, 2397,
                  2399, 2400, 2402, 2403, 2405, 2406, 2408, 2409, 2411-2414,
                  2420, 2421, 2423, 2424, 2426, 2427, 2431-2433, 2435, 2437,
                  2438, 2440, 2441, 2443, 2444, 2446, 2447, 2449, 2450, 2452,
                  2453, 2455, 2459, 2460, 2462, 2463, 2465, 2466, 2468, 2469,
                  2472, 2475, 2476, 2478, 2479, 2481, 2482, 2484, 2485, 2488,
                  2489, 2491, 2495, 2496, 2498, 2499, 2501, 2502, 2504, 2505,
                  2508-2510, 2514, 2515, 2517, 2518, 2520, 2521, 2523, 2524,
                  2526, 2527, 2529, 2530, 2532, 2535, 2536, 2538, 2539, 2541,
                  2542, 2544, 2545, 2548, 2551, 2552, 2554, 2555, 2557, 2558,
                  2560, 2561, 2563, 2564, 2566, 2567, 2570, 2573, 2574, 2576,
                  2577, 2579, 2580, 2582, 2583, 2587, 2589, 2590, 2592, 2593,
                  2595, 2596, 2598, 2599, 2601, 2602, 2604, 2605, 2607, 2611,
                  2612, 2614, 2615, 2617, 2618, 2620, 2621, 2624, 2627, 2628,
                  2630, 2631, 2633, 2634, 2636, 2637, 2639, 2640, 2642, 2643,
                  2645, 2649, 2650, 2652, 2653, 2655, 2656, 2658, 2659, 2663,
                  2665, 2666, 2668, 2669, 2671, 2672, 2674, 2675, 2677, 2678,
                  2680, 2681, 2683, 2687, 2688, 2690, 2691, 2693, 2694, 2696,
                  2697, 2700, 2703, 2704, 2706, 2707, 2709, 2710, 2712, 2713,
                  2715, 2716, 2718, 2719, 2721, 2725, 2726, 2728, 2729, 2731,
                  2732, 2734, 2735, 2739, 2741, 2742, 2744, 2745, 2747, 2748,
                  2750, 2751, 2753, 2754, 2756-2759, 2765, 2766, 2768, 2769,
                  2771, 2772, 2776-2778, 2780, 2782, 2783, 2785, 2786, 2788,
                  2789, 2791, 2792, 2794, 2795, 2797, 2798, 2800, 2804, 2805,
                  2807, 2808, 2810, 2811, 2813, 2814, 2817, 2820, 2821, 2823,
                  2824, 2826, 2827, 2829, 2830, 2833, 2834, 2836, 2840, 2841,
                  2843, 2844, 2846, 2847, 2849, 2850, 2853-2855, 2859, 2860,
                  2862, 2863, 2865, 2866, 2868, 2869, 2871, 2872, 2874, 2875,
                  2877, 2880, 2881, 2883, 2884, 2886, 2887, 2889, 2890, 2893,
                  2896, 2897, 2899, 2900, 2902, 2903, 2905, 2906, 2908, 2909,
                  2911, 2912, 2915, 2918, 2919, 2921, 2922, 2924, 2925, 2927,
                  2928, 2932, 2934, 2935, 2937, 2938, 2940, 2941, 2943, 2944,
                  2946, 2947, 2949, 2950, 2952, 2956, 2957, 2959, 2960, 2962,
                  2963, 2965, 2966, 2969, 2972, 2973, 2975, 2976, 2978, 2979,
                  2981, 2982, 2984, 2985, 2987, 2988, 2990, 2994, 2995, 2997,
                  2998, 3000, 3001, 3003, 3004, 3008, 3010, 3011, 3013, 3014,
                  3016, 3017, 3019, 3020, 3022, 3023, 3025, 3026, 3028, 3032,
                  3033, 3035, 3036, 3038, 3039, 3041, 3042, 3045, 3048, 3049,
                  3051, 3052, 3054, 3055, 3057, 3058, 3060, 3061, 3063, 3064,
                  3066, 3070, 3071, 3073, 3074, 3076, 3077, 3079, 3080, 3084,
                  3086, 3087, 3089, 3090, 3092, 3093, 3095, 3096, 3098, 3099,
                  3101-3104, 3110, 3111, 3113, 3114, 3116, 3117, 3121-3123,
                  3125, 3127, 3128, 3130, 3131, 3133, 3134, 3136, 3137, 3139,
                  3140, 3142, 3143, 3145, 3149, 3150, 3152, 3153, 3155, 3156,
                  3158, 3159, 3162, 3165, 3166, 3168, 3169, 3171, 3172, 3174,
                  3175, 3178, 3179, 3181, 3185, 3186, 3188, 3189, 3191, 3192,
                  3194, 3195, 3198-3200, 3204, 3205, 3207, 3208, 3210, 3211,
                  3213, 3214, 3216, 3217, 3219, 3220, 3222, 3225, 3226, 3228,
                  3229, 3231, 3232, 3234, 3235, 3238, 3241, 3242, 3244, 3245,
                  3247, 3248, 3250, 3251, 3253, 3254, 3256, 3257, 3260, 3263,
                  3264, 3266, 3267, 3269, 3270, 3272, 3273, 3277, 3279, 3280,
                  3282, 3283, 3285, 3286, 3288, 3289, 3291, 3292, 3294, 3295,
                  3297, 3301, 3302, 3304, 3305, 3307, 3308, 3310, 3311, 3314,
                  3317, 3318, 3320, 3321, 3323, 3324, 3326, 3327, 3329, 3330,
                  3332, 3333, 3335, 3339, 3340, 3342, 3343, 3345, 3346, 3348,
                  3349, 3353, 3355, 3356, 3358, 3359, 3361, 3362, 3364, 3365,
                  3367, 3368, 3370, 3371, 3373, 3377, 3378, 3380, 3381, 3383,
                  3384, 3386, 3387, 3390, 3393, 3394, 3396, 3397, 3399, 3400,
                  3402, 3403, 3405, 3406, 3408, 3409, 3411, 3415, 3416, 3418,
                  3419, 3421, 3422, 3424, 3425, 3429, 3431, 3432, 3434, 3435,
                  3437, 3438, 3440, 3441, 3443, 3444, 3446-3449, 3455, 3456,
                  3458, 3459, 3461, 3462, 3466-3468, 3470, 3472, 3473, 3475,
                  3476, 3478, 3479, 3481, 3482, 3484, 3485, 3487, 3488, 3490,
                  3494, 3495, 3497, 3498, 3500, 3501, 3503, 3504, 3507, 3510,
                  3511, 3513, 3514, 3516, 3517, 3519, 3520, 3523, 3524, 3526,
                  3530, 3531, 3533, 3534, 3536, 3537, 3539, 3540, 3543-3545,
                  3549, 3550, 3552, 3553, 3555, 3556, 3558, 3559, 3561, 3562,
                  3564, 3565, 3567, 3570, 3571, 3573, 3574, 3576, 3577, 3579,
                  3580, 3583, 3586, 3587, 3589, 3590, 3592, 3593, 3595, 3596,
                  3598, 3599, 3601, 3602, 3605, 3608, 3609, 3611, 3612, 3614,
                  3615, 3617, 3618, 3622, 3624, 3625, 3627, 3628, 3630, 3631,
                  3633, 3634, 3636, 3637, 3639, 3640, 3642, 3646, 3647, 3649,
                  3650, 3652, 3653, 3655, 3656, 3659, 3662, 3663, 3665, 3666,
                  3668, 3669, 3671, 3672, 3674, 3675, 3677, 3678, 3680, 3684,
                  3685, 3687, 3688, 3690, 3691, 3693, 3694, 3698, 3700, 3701,
                  3703, 3704, 3706, 3707, 3709, 3710, 3712, 3713, 3715, 3716,
                  3718, 3722, 3723, 3725, 3726, 3728, 3729, 3731, 3732, 3735,
                  3738, 3739, 3741, 3742, 3744, 3745, 3747, 3748, 3750, 3751,
                  3753, 3754, 3756, 3760, 3761, 3763, 3764, 3766, 3767, 3769,
                  3770, 3774, 3776, 3777, 3779, 3780, 3782, 3783, 3785, 3786,
                  3788, 3789, 3791-3794
    3    7 N      13, 36, 55, 72, 91, 113, 131, 150, 169, 188, 207, 226, 245,
                  264, 283, 302, 321, 340, 358, 381, 400, 417, 436, 458, 476,
                  495, 514, 533, 552, 571, 590, 609, 628, 647, 666, 685, 703,
                  726, 745, 762, 781, 803, 821, 840, 859, 878, 897, 916, 935,
                  954, 973, 992, 1011, 1030, 1048, 1071, 1090, 1107, 1126,
                  1148, 1166, 1185, 1204, 1223, 1242, 1261, 1280, 1299, 1318,
                  1337, 1356, 1375, 1393, 1416, 1435, 1452, 1471, 1493, 1511,
                  1530, 1549, 1568, 1587, 1606, 1625, 1644, 1663, 1682, 1701,
                  1720, 1738, 1761, 1780, 1797, 1816, 1838, 1856, 1875, 1894,
                  1913, 1932, 1951, 1970, 1989, 2008, 2027, 2046, 2065, 2083,
                  2106, 2125, 2142, 2161, 2183, 2201, 2220, 2239, 2258, 2277,
                  2296, 2315, 2334, 2353, 2372, 2391, 2410, 2428, 2451, 2470,
                  2487, 2506, 2528, 2546, 2565, 2584, 2603, 2622, 2641, 2660,
                  2679, 2698, 2717, 2736, 2755, 2773, 2796, 2815, 2832, 2851,
                  2873, 2891, 2910, 2929, 2948, 2967, 2986, 3005, 3024, 3043,
                  3062, 3081, 3100, 3118, 3141, 3160, 3177, 3196, 3218, 3236,
                  3255, 3274, 3293, 3312, 3331, 3350, 3369, 3388, 3407, 3426,
                  3445, 3463, 3486, 3505, 3522, 3541, 3563, 3581, 3600, 3619,
                  3638, 3657, 3676, 3695, 3714, 3733, 3752, 3771, 3790
    4    8 O      14, 15, 41, 58, 77, 96, 97, 134, 153, 170, 193, 210, 231,
                  246, 269, 286, 307, 322, 345, 359, 360, 386, 403, 422, 441,
                  442, 479, 498, 515, 538, 555, 576, 591, 614, 631, 652, 667,
                  690, 704, 705, 731, 748, 767, 786, 787, 824, 843, 860, 883,
                  900, 921, 936, 959, 976, 997, 1012, 1035, 1049, 1050, 1076,
                  1093, 1112, 1131, 1132, 1169, 1188, 1205, 1228, 1245, 1266,
                  1281, 1304, 1321, 1342, 1357, 1380, 1394, 1395, 1421, 1438,
                  1457, 1476, 1477, 1514, 1533, 1550, 1573, 1590, 1611, 1626,
                  1649, 1666, 1687, 1702, 1725, 1739, 1740, 1766, 1783, 1802,
                  1821, 1822, 1859, 1878, 1895, 1918, 1935, 1956, 1971, 1994,
                  2011, 2032, 2047, 2070, 2084, 2085, 2111, 2128, 2147, 2166,
                  2167, 2204, 2223, 2240, 2263, 2280, 2301, 2316, 2339, 2356,
                  2377, 2392, 2415, 2429, 2430, 2456, 2473, 2492, 2511, 2512,
                  2549, 2568, 2585, 2608, 2625, 2646, 2661, 2684, 2701, 2722,
                  2737, 2760, 2774, 2775, 2801, 2818, 2837, 2856, 2857, 2894,
                  2913, 2930, 2953, 2970, 2991, 3006, 3029, 3046, 3067, 3082,
                  3105, 3119, 3120, 3146, 3163, 3182, 3201, 3202, 3239, 3258,
                  3275, 3298, 3315, 3336, 3351, 3374, 3391, 3412, 3427, 3450,
                  3464, 3465, 3491, 3508, 3527, 3546, 3547, 3584, 3603, 3620,
                  3643, 3660, 3681, 3696, 3719, 3736, 3757, 3772, 3795

molecular fragmentation (1/2 indicates fragments):
111111111111111111111111111111111111111111111111111111111111111111111111
111111111111111111111111111111111111111111111111111111111111111111111111
111111111111111111111111111111111111111111111111111111111111111111111111
111111111111111111111111111111111111111111111111111111111111111111111111
111111111111111111111111111111111111111111111111111111111222222222222222
222222222222222222222222222222222222222222222222222222222222222222222222
222222222222222222222222222222222222222222222222222222222222222222222222
222222222222222222222222222222222222222222222222222222222222222222222222
222222222222222222222222222222222222222222222222222222222222222222222222
222222222222222222222222222222222222222222222222222222222222222222222222
222222222222222222222222222222222222222222222222222222222222222222222222
222222222222222222222222222222222222222222222222222222222222222222222222
222222222222222222222222222222222222222222222222222222222222222222222222
222222222222222222222222222222222222222222222222222222222222222222222222
222222222222222222222222222222222222222222222222222222222222222222222222
222222222222222222222222222222222222222222222222222222222222222222222222
222222222222222222222222222222222222222222222222222222222222222222222222
222222222222222222222222222222222222222222222222222222222222222222222222
222222222222222222222222222222222222222222222222222222222222222222222222
222222222222222222222222222222222222222222222222222222222222222222222222
222222222222222222222222222222222222222222222222222222222222222222222222
222222222222222222222222222222222222222222222222222222222222222222222222
222222222222222222222222222222222222222222222222222222222222222222222222
222222222222222222222222222222222222222222222222222222222222222222222222
222222222222222222222222222222222222222222222222222222222222222222222222
222222222222222222222222222222222222222222222222222222222222222222222222
222222222222222222222222222222222222222222222222222222222222222222222222
222222222222222222222222222222222222222222222222222222222222222222222222
222222222222222222222222222222222222222222222222222222222222222222222222
222222222222222222222222222222222222222222222222222222222222222222222222
222222222222222222222222222222222222222222222222222222222222222222222222
222222222222222222222222222222222222222222222222222222222222222222222222
222222222222222222222222222222222222222222222222222222222222222222222222
222222222222222222222222222222222222222222222222222222222222222222222222
222222222222222222222222222222222222222222222222222222222222222222222222
222222222222222222222222222222222222222222222222222222222222222222222222
222222222222222222222222222222222222222222222222222222222222222222222222
222222222222222222222222222222222222222222222222222222222222222222222222
222222222222222222222222222222222222222222222222222222222222222222222222
222222222222222222222222222222222222222222222222222222222222222222222222
222222222222222222222222222222222222222222222222222222222222222222222222
222222222222222222222222222222222222222222222222222222222222222222222222
222222222222222222222222222222222222222222222222222222222222222222222222
222222222222222222222222222222222222222222222222222222222222222222222222
222222222222222222222222222222222222222222222222222222222222222222222222
222222222222222222222222222222222222222222222222222222222222222222222222
222222222222222222222222222222222222222222222222222222222222222222222222
222222222222222222222222222222222222222222222222222222222222222222222222
222222222222222222222222222222222222222222222222222222222222222222222222
222222222222222222222222222222222222222222222222222222222222222222222222
222222222222222222222222222222222222222222222222222222222222222222222222
222222222222222222222222222222222222222222222222222222222222222222222222
222222222222222222222222222222222222222222222222222
# atoms in fragment 1/2:   345  3450
 fragment masses (1/2) :     2054.86    20548.57
CMA distance (Bohr)    :  22.898
constraining FC (au)   :  0.0500

           -------------------------------------------------
          |                 G F N 2 - x T B                 |
           -------------------------------------------------

        Reference                      10.1021/acs.jctc.8b01176
      * Hamiltonian:
        H0-scaling (s, p, d)           1.850000    2.230000    2.230000
        zeta-weighting                 0.500000
      * Dispersion:
        s8                             2.700000
        a1                             0.520000
        a2                             5.000000
        s9                             5.000000
      * Repulsion:
        kExp                           1.500000    1.000000
        rExp                           1.000000
      * Coulomb:
        alpha                          2.000000
        third order                    shell-resolved
        anisotropic                    true
        a3                             3.000000
        a5                             4.000000
        cn-shift                       1.200000
        cn-exp                         4.000000
        max-rad                        5.000000

      * Solvation model:               GBSA
        Solvent                        water
        Parameter file                 internal GFN2-xTB/GBSA
        Dielectric constant                8.0200E+01
        Reference state                gsolv [1 M gas/solution]
        Free energy shift                  1.8574E-03 Eh       1.1656E+00 kcal/mol
        Temperature                        2.9815E+02 K
        Density                            1.0000E+00 kg/L
        Solvent mass                       1.8000E+01 g/mol
        Interaction kernel             Still
        Born radius scaling (c1)           1.5524E+00
        Born radii integrator          GBOBC
        Born offset                        2.4628E-02 a0       4.6540E-02 AA
        H-bond correction              true
        Ion screening                  false
        Surface tension                    1.0000E-05 Eh       1.5569E+01 dyn/cm
        Grid points                               230 per atom
q/qsh data taken from xtbrestart
CAMM data taken from xtbrestart

          ...................................................
          :                      SETUP                      :
          :.................................................:
          :  # basis functions                8580          :
          :  # atomic orbitals                8580          :
          :  # shells                         5390          :
          :  # electrons                      9196          :
          :  max. iterations                   250          :
          :  Hamiltonian                  GFN2-xTB          :
          :  restarted?                       true          :
          :  GBSA solvation                   true          :
          :  PC potential                    false          :
          :  electronic temp.          300.0000000     K    :
          :  accuracy                    1.0000000          :
          :  -> integral cutoff          0.2500000E+02      :
          :  -> integral neglect         0.1000000E-07      :
          :  -> SCF convergence          0.1000000E-05 Eh   :
          :  -> wf. convergence          0.1000000E-03 e    :
          :  Broyden damping             0.4000000          :
          ...................................................

 iter      E             dE          RMSdq      gap      omega  full diag
   1  -5162.9298020 -0.516293E+04  0.510E-05    2.71       0.0  T
   2  -5162.9298020 -0.221462E-08  0.389E-05    2.71      41.7  T
   3  -5162.9298020 -0.170894E-08  0.268E-05    2.71      60.5  T

   *** convergence criteria satisfied after 3 iterations ***

         #    Occupation            Energy/Eh            Energy/eV
      -------------------------------------------------------------
         1        2.0000           -0.7385230             -20.0962
       ...           ...                  ...                  ...
      4592        2.0000           -0.3611237              -9.8267
      4593        2.0000           -0.3601561              -9.8003
      4594        2.0000           -0.3594948              -9.7824
      4595        2.0000           -0.3554133              -9.6713
      4596        2.0000           -0.3534741              -9.6185
      4597        2.0000           -0.3531267              -9.6091
      4598        2.0000           -0.3510617              -9.5529 (HOMO)
      4599                         -0.2513222              -6.8388 (LUMO)
      4600                         -0.2506464              -6.8204
      4601                         -0.2489016              -6.7730
      4602                         -0.2473528              -6.7308
      4603                         -0.2467755              -6.7151
       ...                                ...                  ...
      8580                          0.6713457              18.2682
      -------------------------------------------------------------
                  HL-Gap            0.0997395 Eh            2.7141 eV
             Fermi-level           -0.3011919 Eh           -8.1958 eV

 SCC (total)                   0 d,  0 h, 14 min,  5.546 sec
 SCC setup                      ...        0 min,  2.341 sec (  0.277%)
 Dispersion                     ...        0 min,  5.169 sec (  0.611%)
 classical contributions        ...        0 min,  0.196 sec (  0.023%)
 integral evaluation            ...        0 min,  9.494 sec (  1.123%)
 iterations                     ...        7 min, 39.402 sec ( 54.332%)
 molecular gradient             ...        5 min, 49.554 sec ( 41.341%)
 printout                       ...        0 min, 19.389 sec (  2.293%)

         :::::::::::::::::::::::::::::::::::::::::::::::::::::
         ::                     SUMMARY                     ::
         :::::::::::::::::::::::::::::::::::::::::::::::::::::
         :: total energy           -5102.489716787506 Eh    ::
         :: total w/o Gsasa/hb     -5102.331620762810 Eh    ::
         :: gradient norm              0.824379804388 Eh/a0 ::
         :: HOMO-LUMO gap              2.714050234597 eV    ::
         ::.................................................::
         :: SCC energy             -5162.929802008359 Eh    ::
         :: -> isotropic ES            9.201897897590 Eh    ::
         :: -> anisotropic ES          0.104133129771 Eh    ::
         :: -> anisotropic XC          2.010629720829 Eh    ::
         :: -> dispersion             -5.425014290656 Eh    ::
         :: -> Gsolv                  -0.760726932459 Eh    ::
         ::    -> Gelec               -0.602630907763 Eh    ::
         ::    -> Gsasa               -0.090200714193 Eh    ::
         ::    -> Ghb                 -0.069752753630 Eh    ::
         ::    -> Gshift               0.001857443127 Eh    ::
         :: repulsion energy          59.502014218341 Eh    ::
         :: add. restraining           0.000000000000 Eh    ::
         :: total charge              -0.000000000018 e     ::
         :::::::::::::::::::::::::::::::::::::::::::::::::::::

      ----------------------------------------------------------- 
     |              Fast Inertial Relaxation Engine              |
      ----------------------------------------------------------- 

          ...................................................
          :                      SETUP                      :
          :.................................................:
          :   energy convergence        0.5000000E-05 Eh    :
          :   grad. convergence         0.1000000E-02 Eh/a0 :
          :   optimization log               true           :
          :   writing optlog all                1     steps :
          :   Hessian reset                    20     steps :
          :   time step scaling                 5     steps :
          :   maximium step len.        1.0000000     a0    :
          :   initial time step         0.2500000     fs    :
          :   maximum time step         1.2500000     fs    :
          :   power reset thr           0.0000000     au    :
          :   alpha parameter           0.1000000           :
          :   BFGS update                   false           :
          :   preconditioning               false           :
          ...................................................

........................................................................
.............................. CYCLE    1 ..............................
........................................................................

 iter      E             dE          RMSdq      gap      omega  full diag
   1  -5163.1411286 -0.516314E+04  0.118E-02    2.74       0.0  T
   2  -5163.1413110 -0.182339E-03  0.607E-03    2.74       1.0  T
   3  -5163.1413204 -0.940243E-05  0.329E-03    2.74       1.0  T
   4  -5163.1413217 -0.129151E-05  0.882E-04    2.74       1.8  T
   5  -5163.1413226 -0.950022E-06  0.343E-04    2.74       4.7  T
   6  -5163.1413227 -0.114460E-06  0.187E-04    2.74       8.7  T
     SCC iter.                  ...       15 min, 11.442 sec
     gradient                   ...        5 min, 52.523 sec
 * total energy  : -5102.5663578 Eh     change    :  -0.7664104E-01 Eh
   gradient norm :     0.7689577 Eh/a0  converged?    E=F G=F D=F
   time step     :     0.2500000 fs     power     :   0.3923848E-05
   step length   :     0.0966156 a0     speed     :   0.9348074E-02

........................................................................
.............................. CYCLE    2 ..............................
........................................................................

 iter      E             dE          RMSdq      gap      omega  full diag
   1  -5163.4508773 -0.516345E+04  0.170E-02    2.77       0.0  T
   2  -5163.4512519 -0.374590E-03  0.883E-03    2.78       1.0  T
   3  -5163.4512714 -0.194242E-04  0.478E-03    2.78       1.0  T
   4  -5163.4512744 -0.300301E-05  0.129E-03    2.78       1.3  T
   5  -5163.4512764 -0.202207E-05  0.518E-04    2.78       3.1  T
   6  -5163.4512766 -0.269488E-06  0.292E-04    2.78       5.6  T
   7  -5163.4512768 -0.119430E-06  0.181E-04    2.78       9.0  T
     SCC iter.                  ...       17 min, 41.030 sec
     gradient                   ...        6 min, 10.233 sec
 * total energy  : -5102.6692421 Eh     change    :  -0.1028843E+00 Eh
   gradient norm :     0.6900881 Eh/a0  converged?    E=F G=F D=F
   time step     :     0.2500000 fs     power     :   0.5154718E-05
   step length   :     0.1415095 a0     speed     :   0.1369181E-01

........................................................................
.............................. CYCLE    3 ..............................
........................................................................

 iter      E             dE          RMSdq      gap      omega  full diag
   1  -5163.8487786 -0.516385E+04  0.214E-02    2.83       0.0  T
   2  -5163.8493477 -0.569060E-03  0.112E-02    2.83       1.0  T
   3  -5163.8493769 -0.292534E-04  0.603E-03    2.83       1.0  T
   4  -5163.8493819 -0.500400E-05  0.160E-03    2.83       1.0  T
   5  -5163.8493850 -0.311116E-05  0.632E-04    2.83       2.6  T
   6  -5163.8493854 -0.388255E-06  0.354E-04    2.83       4.6  T
   7  -5163.8493856 -0.169480E-06  0.217E-04    2.83       7.5  T
     SCC iter.                  ...       17 min, 42.351 sec
     gradient                   ...        5 min, 50.273 sec
 * total energy  : -5102.7850800 Eh     change    :  -0.1158379E+00 Eh
   gradient norm :     0.5942091 Eh/a0  converged?    E=F G=F D=F
   time step     :     0.2500000 fs     power     :   0.5654158E-05
   step length   :     0.1817372 a0     speed     :   0.1758405E-01

........................................................................
.............................. CYCLE    4 ..............................
........................................................................

 iter      E             dE          RMSdq      gap      omega  full diag
   1  -5164.3222713 -0.516432E+04  0.247E-02    2.89       0.0  T
   2  -5164.3229830 -0.711705E-03  0.131E-02    2.89       1.0  T
   3  -5164.3230192 -0.362288E-04  0.696E-03    2.90       1.0  T
   4  -5164.3230268 -0.755163E-05  0.183E-03    2.89       1.0  T
   5  -5164.3230308 -0.405860E-05  0.723E-04    2.90       2.2  T
   6  -5164.3230313 -0.493272E-06  0.406E-04    2.90       4.0  T
   7  -5164.3230315 -0.222584E-06  0.246E-04    2.90       6.6  T
     SCC iter.                  ...       17 min, 42.719 sec
     gradient                   ...        5 min, 50.128 sec
 * total energy  : -5102.8998234 Eh     change    :  -0.1147434E+00 Eh
   gradient norm :     0.4904260 Eh/a0  converged?    E=F G=F D=F
   time step     :     0.2500000 fs     power     :   0.5414640E-05
   step length   :     0.2160137 a0     speed     :   0.2090049E-01

........................................................................
.............................. CYCLE    5 ..............................
........................................................................

 iter      E             dE          RMSdq      gap      omega  full diag
   1  -5164.8566549 -0.516486E+04  0.268E-02    2.96       0.0  T
   2  -5164.8574169 -0.761976E-03  0.144E-02    2.96       1.0  T
   3  -5164.8574549 -0.379684E-04  0.751E-03    2.97       1.0  T
   4  -5164.8574654 -0.105429E-04  0.195E-03    2.97       1.0  T
   5  -5164.8574700 -0.459574E-05  0.770E-04    2.97       2.1  T
   6  -5164.8574705 -0.535914E-06  0.433E-04    2.97       3.8  T
   7  -5164.8574708 -0.250156E-06  0.258E-04    2.97       6.3  T
     SCC iter.                  ...       17 min, 41.319 sec
     gradient                   ...        5 min, 56.275 sec
 * total energy  : -5103.0010837 Eh     change    :  -0.1012603E+00 Eh
   gradient norm :     0.3917591 Eh/a0  converged?    E=F G=F D=F
   time step     :     0.2500000 fs     power     :   0.4557983E-05
   step length   :     0.2432658 a0     speed     :   0.2353728E-01

........................................................................
.............................. CYCLE    6 ..............................
........................................................................

 iter      E             dE          RMSdq      gap      omega  full diag
   1  -5165.4966806 -0.516550E+04  0.305E-02    3.06       0.0  T
   2  -5165.4975467 -0.866080E-03  0.167E-02    3.06       1.0  T
   3  -5165.4975876 -0.409605E-04  0.843E-03    3.06       1.0  T
   4  -5165.4976047 -0.171051E-04  0.215E-03    3.06       1.0  T
   5  -5165.4976102 -0.552461E-05  0.848E-04    3.06       1.9  T
   6  -5165.4976109 -0.604134E-06  0.469E-04    3.06       3.5  T
   7  -5165.4976111 -0.284145E-06  0.276E-04    3.06       5.9  T
     SCC iter.                  ...       17 min, 42.142 sec
     gradient                   ...        5 min, 50.193 sec
 * total energy  : -5103.0872008 Eh     change    :  -0.8611704E-01 Eh
   gradient norm :     0.3104040 Eh/a0  converged?    E=F G=F D=F
   time step     :     0.2750000 fs     power     :   0.3167482E-05
   step length   :     0.2909375 a0     speed     :   0.2559069E-01

........................................................................
.............................. CYCLE    7 ..............................
........................................................................

 iter      E             dE          RMSdq      gap      omega  full diag
   1  -5166.2259461 -0.516623E+04  0.329E-02    3.15       0.0  T
   2  -5166.2268155 -0.869448E-03  0.184E-02    3.14       1.0  T
   3  -5166.2268527 -0.371928E-04  0.887E-03    3.15       1.0  T
   4  -5166.2268776 -0.249192E-04  0.219E-03    3.15       1.0  T
   5  -5166.2268832 -0.558246E-05  0.879E-04    3.15       1.8  T
   6  -5166.2268838 -0.574580E-06  0.463E-04    3.15       3.5  T
   7  -5166.2268841 -0.260938E-06  0.268E-04    3.15       6.1  T
     SCC iter.                  ...       17 min, 40.923 sec
     gradient                   ...        5 min, 53.829 sec
 * total energy  : -5103.1465960 Eh     change    :  -0.5939518E-01 Eh
   gradient norm :     0.2808274 Eh/a0  converged?    E=F G=F D=F
   time step     :     0.3025000 fs     power     :   0.1551444E-05
   step length   :     0.3331515 a0     speed     :   0.2663983E-01

........................................................................
.............................. CYCLE    8 ..............................
........................................................................

 iter      E             dE          RMSdq      gap      omega  full diag
   1  -5166.9934600 -0.516699E+04  0.337E-02    3.23       0.0  T
   2  -5166.9943153 -0.855389E-03  0.191E-02    3.23       1.0  T
   3  -5166.9943509 -0.355334E-04  0.899E-03    3.23       1.0  T
   4  -5166.9943771 -0.262361E-04  0.205E-03    3.23       1.0  T
   5  -5166.9943819 -0.479952E-05  0.870E-04    3.23       1.9  T
   6  -5166.9943824 -0.452978E-06  0.430E-04    3.23       3.8  T
   7  -5166.9943826 -0.190410E-06  0.230E-04    3.23       7.1  T
     SCC iter.                  ...       17 min, 40.531 sec
     gradient                   ...        5 min, 50.563 sec
 * total energy  : -5103.1762697 Eh     change    :  -0.2967370E-01 Eh
   gradient norm :     0.3081594 Eh/a0  converged?    E=F G=F D=F
   time step     :     0.3327500 fs     power     :   0.2288795E-06
   step length   :     0.3602209 a0     speed     :   0.2618580E-01

........................................................................
.............................. CYCLE    9 ..............................
........................................................................

 iter      E             dE          RMSdq      gap      omega  full diag
   1  -5167.7261905 -0.516773E+04  0.338E-02    3.29       0.0  T
   2  -5167.7270997 -0.909222E-03  0.191E-02    3.29       1.0  T
   3  -5167.7271409 -0.411808E-04  0.920E-03    3.30       1.0  T
   4  -5167.7271598 -0.189703E-04  0.182E-03    3.29       1.0  T
   5  -5167.7271639 -0.403005E-05  0.836E-04    3.29       1.9  T
   6  -5167.7271642 -0.316969E-06  0.344E-04    3.29       4.7  T
   7  -5167.7271643 -0.878508E-07  0.168E-04    3.29       9.6  T
     SCC iter.                  ...       17 min, 40.304 sec
     gradient                   ...        5 min, 50.280 sec
 * total energy  : -5103.1851679 Eh     change    :  -0.8898285E-02 Eh
   gradient norm :     0.3514196 Eh/a0  converged?    E=F G=F D=F
   time step     :     0.3660250 fs     power     :  -0.4289968E-06
   step length   :     0.3698991 a0     speed     :   0.2444487E-01

........................................................................
.............................. CYCLE   10 ..............................
........................................................................
 * reset velocities

 iter      E             dE          RMSdq      gap      omega  full diag
   1  -5167.7174466 -0.516772E+04  0.140E-03    3.29       0.0  T
   2  -5167.7174488 -0.214337E-05  0.750E-04    3.29       2.2  T
   3  -5167.7174489 -0.829559E-07  0.397E-04    3.29       4.1  T
   4  -5167.7174489 -0.179789E-07  0.962E-05    3.29      16.9  T
     SCC iter.                  ...       10 min,  8.940 sec
     gradient                   ...        5 min, 53.821 sec
 * total energy  : -5103.1890045 Eh     change    :  -0.3836590E-02 Eh
   gradient norm :     0.3439046 Eh/a0  converged?    E=F G=F D=F
   time step     :     0.1830125 fs     power     :   0.2751644E-06
   step length   :     0.0110356 a0     speed     :   0.1458584E-02

........................................................................
.............................. CYCLE   11 ..............................
........................................................................

 iter      E             dE          RMSdq      gap      omega  full diag
   1  -5167.6982798 -0.516770E+04  0.276E-03    3.28       0.0  T
   2  -5167.6982881 -0.833658E-05  0.148E-03    3.28       1.1  T
   3  -5167.6982885 -0.335175E-06  0.785E-04    3.28       2.1  T
   4  -5167.6982885 -0.730233E-07  0.190E-04    3.28       8.6  T
     SCC iter.                  ...       10 min,  6.431 sec
     gradient                   ...        5 min, 54.767 sec
 * total energy  : -5103.1963527 Eh     change    :  -0.7348167E-02 Eh
   gradient norm :     0.3292168 Eh/a0  converged?    E=F G=F D=F
   time step     :     0.1830125 fs     power     :   0.5210767E-06
   step length   :     0.0218351 a0     speed     :   0.2885949E-02

........................................................................
.............................. CYCLE   12 ..............................
........................................................................

 iter      E             dE          RMSdq      gap      omega  full diag
   1  -5167.6702099 -0.516767E+04  0.404E-03    3.27       0.0  T
   2  -5167.6702276 -0.176656E-04  0.218E-03    3.27       1.0  T
   3  -5167.6702283 -0.722077E-06  0.115E-03    3.27       1.4  T
   4  -5167.6702285 -0.176379E-06  0.282E-04    3.27       5.8  T
   5  -5167.6702286 -0.110610E-06  0.102E-04    3.27      15.9  T
     SCC iter.                  ...       12 min, 38.559 sec
     gradient                   ...        5 min, 49.593 sec
 * total energy  : -5103.2065974 Eh     change    :  -0.1024473E-01 Eh
   gradient norm :     0.3079328 Eh/a0  converged?    E=F G=F D=F
   time step     :     0.1830125 fs     power     :   0.7176242E-06
   step length   :     0.0321715 a0     speed     :   0.4252126E-02

........................................................................
.............................. CYCLE   13 ..............................
........................................................................

 iter      E             dE          RMSdq      gap      omega  full diag
   1  -5167.6340976 -0.516763E+04  0.522E-03    3.26       0.0  T
   2  -5167.6341264 -0.288320E-04  0.281E-03    3.26       1.0  T
   3  -5167.6341276 -0.115900E-05  0.148E-03    3.26       1.1  T
   4  -5167.6341279 -0.299185E-06  0.361E-04    3.26       4.5  T
   5  -5167.6341281 -0.183299E-06  0.133E-04    3.26      12.2  T
     SCC iter.                  ...       12 min, 38.572 sec
     gradient                   ...        5 min, 50.878 sec
 * total energy  : -5103.2188955 Eh     change    :  -0.1229806E-01 Eh
   gradient norm :     0.2808832 Eh/a0  converged?    E=F G=F D=F
   time step     :     0.1830125 fs     power     :   0.8496439E-06
   step length   :     0.0418332 a0     speed     :   0.5529118E-02

........................................................................
.............................. CYCLE   14 ..............................
........................................................................

 iter      E             dE          RMSdq      gap      omega  full diag
   1  -5167.5911651 -0.516759E+04  0.625E-03    3.25       0.0  T
   2  -5167.5912052 -0.400553E-04  0.339E-03    3.25       1.0  T
   3  -5167.5912068 -0.159670E-05  0.177E-03    3.25       1.0  T
   4  -5167.5912072 -0.453411E-06  0.429E-04    3.25       3.8  T
   5  -5167.5912075 -0.262567E-06  0.160E-04    3.25      10.2  T
     SCC iter.                  ...       12 min, 37.802 sec
     gradient                   ...        5 min, 56.974 sec
 * total energy  : -5103.2322629 Eh     change    :  -0.1336742E-01 Eh
   gradient norm :     0.2493066 Eh/a0  converged?    E=F G=F D=F
   time step     :     0.1830125 fs     power     :   0.9087322E-06
   step length   :     0.0506275 a0     speed     :   0.6691457E-02

........................................................................
.............................. CYCLE   15 ..............................
........................................................................

 iter      E             dE          RMSdq      gap      omega  full diag
   1  -5167.5430661 -0.516754E+04  0.711E-03    3.23       0.0  T
   2  -5167.5431157 -0.495596E-04  0.388E-03    3.23       1.0  T
   3  -5167.5431176 -0.194829E-05  0.201E-03    3.23       1.0  T
   4  -5167.5431182 -0.627812E-06  0.480E-04    3.23       3.4  T
   5  -5167.5431186 -0.337130E-06  0.182E-04    3.23       8.9  T
     SCC iter.                  ...       12 min, 38.517 sec
     gradient                   ...        5 min, 54.506 sec
 * total energy  : -5103.2456778 Eh     change    :  -0.1341485E-01 Eh
   gradient norm :     0.2148829 Eh/a0  converged?    E=F G=F D=F
   time step     :     0.1830125 fs     power     :   0.8941838E-06
   step length   :     0.0583859 a0     speed     :   0.7716890E-02

........................................................................
.............................. CYCLE   16 ..............................
........................................................................

 iter      E             dE          RMSdq      gap      omega  full diag
   1  -5167.4864075 -0.516749E+04  0.861E-03    3.21       0.0  T
   2  -5167.4864759 -0.683822E-04  0.475E-03    3.21       1.0  T
   3  -5167.4864785 -0.261634E-05  0.242E-03    3.21       1.0  T
   4  -5167.4864795 -0.100489E-05  0.568E-04    3.21       2.9  T
   5  -5167.4864800 -0.484736E-06  0.216E-04    3.21       7.5  T
   6  -5167.4864800 -0.429382E-07  0.136E-04    3.21      12.0  T
     SCC iter.                  ...       15 min,  9.081 sec
     gradient                   ...        5 min, 54.276 sec
 * total energy  : -5103.2594299 Eh     change    :  -0.1375216E-01 Eh
   gradient norm :     0.1763660 Eh/a0  converged?    E=F G=F D=F
   time step     :     0.2013138 fs     power     :   0.8013185E-06
   step length   :     0.0721910 a0     speed     :   0.8674101E-02

........................................................................
.............................. CYCLE   17 ..............................
........................................................................

 iter      E             dE          RMSdq      gap      omega  full diag
   1  -5167.4238466 -0.516742E+04  0.101E-02    3.19       0.0  T
   2  -5167.4239317 -0.851402E-04  0.563E-03    3.19       1.0  T
   3  -5167.4239348 -0.306851E-05  0.278E-03    3.19       1.0  T
   4  -5167.4239363 -0.153656E-05  0.635E-04    3.19       2.6  T
   5  -5167.4239370 -0.630661E-06  0.237E-04    3.19       6.9  T
   6  -5167.4239370 -0.494192E-07  0.144E-04    3.19      11.2  T
     SCC iter.                  ...       15 min, 10.631 sec
     gradient                   ...        5 min, 59.874 sec
 * total energy  : -5103.2721117 Eh     change    :  -0.1268179E-01 Eh
   gradient norm :     0.1389920 Eh/a0  converged?    E=F G=F D=F
   time step     :     0.2214451 fs     power     :   0.6288407E-06
   step length   :     0.0869271 a0     speed     :   0.9495202E-02

........................................................................
.............................. CYCLE   18 ..............................
........................................................................

 iter      E             dE          RMSdq      gap      omega  full diag
   1  -5167.3623071 -0.516736E+04  0.113E-02    3.16       0.0  T
   2  -5167.3623991 -0.920160E-04  0.642E-03    3.16       1.0  T
   3  -5167.3624020 -0.294482E-05  0.302E-03    3.16       1.0  T
   4  -5167.3624044 -0.234153E-05  0.668E-04    3.16       2.4  T
   5  -5167.3624051 -0.728242E-06  0.254E-04    3.16       6.4  T
   6  -5167.3624052 -0.559912E-07  0.152E-04    3.16      10.7  T
     SCC iter.                  ...       15 min,  9.077 sec
     gradient                   ...        5 min, 50.739 sec
 * total energy  : -5103.2821898 Eh     change    :  -0.1007811E-01 Eh
   gradient norm :     0.1152575 Eh/a0  converged?    E=F G=F D=F
   time step     :     0.2435896 fs     power     :   0.4010670E-06
   step length   :     0.1014590 a0     speed     :   0.1007504E-01

........................................................................
.............................. CYCLE   19 ..............................
........................................................................

 iter      E             dE          RMSdq      gap      omega  full diag
   1  -5167.3155002 -0.516732E+04  0.118E-02    3.14       0.0  T
   2  -5167.3155804 -0.802378E-04  0.689E-03    3.14       1.0  T
   3  -5167.3155822 -0.178909E-05  0.298E-03    3.14       1.0  T
   4  -5167.3155855 -0.336241E-05  0.626E-04    3.14       2.6  T
   5  -5167.3155862 -0.669754E-06  0.249E-04    3.14       6.5  T
   6  -5167.3155863 -0.517502E-07  0.143E-04    3.14      11.3  T
     SCC iter.                  ...       15 min,  7.920 sec
     gradient                   ...        5 min, 52.602 sec
 * total energy  : -5103.2887658 Eh     change    :  -0.6575965E-02 Eh
   gradient norm :     0.1191646 Eh/a0  converged?    E=F G=F D=F
   time step     :     0.2679486 fs     power     :   0.1828701E-06
   step length   :     0.1134018 a0     speed     :   0.1023726E-01

........................................................................
.............................. CYCLE   20 ..............................
........................................................................

 iter      E             dE          RMSdq      gap      omega  full diag
   1  -5167.3003290 -0.516730E+04  0.116E-02    3.12       0.0  T
   2  -5167.3003850 -0.560575E-04  0.689E-03    3.12       1.0  T
   3  -5167.3003852 -0.132961E-06  0.263E-03    3.12       1.0  T
   4  -5167.3003892 -0.408564E-05  0.506E-04    3.12       3.2  T
   5  -5167.3003897 -0.447622E-06  0.219E-04    3.12       7.4  T
   6  -5167.3003897 -0.355103E-07  0.120E-04    3.12      13.5  T
     SCC iter.                  ...       15 min, 11.508 sec
     gradient                   ...        5 min, 49.904 sec
 * total energy  : -5103.2925309 Eh     change    :  -0.3765098E-02 Eh
   gradient norm :     0.1426204 Eh/a0  converged?    E=F G=F D=F
   time step     :     0.2947435 fs     power     :   0.5725467E-07
   step length   :     0.1205057 a0     speed     :   0.9889597E-02
 * RMSD in coord.:     0.0332239 a0     energy gain  -0.8028141E+00 Eh

........................................................................
.............................. CYCLE   21 ..............................
........................................................................

 iter      E             dE          RMSdq      gap      omega  full diag
   1  -5167.3203848 -0.516732E+04  0.837E-03    3.11       0.0  T
   2  -5167.3204079 -0.230640E-04  0.504E-03    3.11       1.0  T
   3  -5167.3204077  0.253033E-06  0.174E-03    3.11       1.0  T
   4  -5167.3204098 -0.213902E-05  0.298E-04    3.11       5.5  T
   5  -5167.3204100 -0.155580E-06  0.143E-04    3.11      11.4  T
   6  -5167.3204100 -0.130131E-07  0.695E-05    3.11      23.3  T
     SCC iter.                  ...       15 min, 10.397 sec
     gradient                   ...        5 min, 50.188 sec
 * total energy  : -5103.2950664 Eh     change    :  -0.2535501E-02 Eh
   gradient norm :     0.1606223 Eh/a0  converged?    E=F G=F D=F
   time step     :     0.2500000 fs     power     :   0.7700015E-07
   step length   :     0.0951865 a0     speed     :   0.9209804E-02

........................................................................
.............................. CYCLE   22 ..............................
........................................................................

 iter      E             dE          RMSdq      gap      omega  full diag
   1  -5167.3714812 -0.516737E+04  0.732E-03    3.11       0.0  T
   2  -5167.3715000 -0.187631E-04  0.436E-03    3.11       1.0  T
   3  -5167.3715001 -0.157956E-06  0.155E-03    3.11       1.0  T
   4  -5167.3715012 -0.110184E-05  0.231E-04    3.11       7.0  T
   5  -5167.3715013 -0.991395E-07  0.112E-04    3.11      14.6  T
   6  -5167.3715013 -0.520049E-08  0.382E-05    3.11      42.5  T
     SCC iter.                  ...       15 min, 13.130 sec
     gradient                   ...        5 min, 51.060 sec
 * total energy  : -5103.2987791 Eh     change    :  -0.3712722E-02 Eh
   gradient norm :     0.1695341 Eh/a0  converged?    E=F G=F D=F
   time step     :     0.2500000 fs     power     :   0.1634553E-06
   step length   :     0.0894713 a0     speed     :   0.8656833E-02

........................................................................
.............................. CYCLE   23 ..............................
........................................................................

 iter      E             dE          RMSdq      gap      omega  full diag
   1  -5167.4499592 -0.516745E+04  0.681E-03    3.12       0.0  T
   2  -5167.4499818 -0.225766E-04  0.395E-03    3.12       1.0  T
   3  -5167.4499823 -0.538940E-06  0.160E-03    3.12       1.0  T
   4  -5167.4499829 -0.558572E-06  0.222E-04    3.12       7.3  T
   5  -5167.4499830 -0.880527E-07  0.109E-04    3.12      14.9  T
     SCC iter.                  ...       12 min, 41.014 sec
     gradient                   ...        5 min, 56.816 sec
 * total energy  : -5103.3043048 Eh     change    :  -0.5525718E-02 Eh
   gradient norm :     0.1682608 Eh/a0  converged?    E=F G=F D=F
   time step     :     0.2500000 fs     power     :   0.2694974E-06
   step length   :     0.0863599 a0     speed     :   0.8355781E-02

........................................................................
.............................. CYCLE   24 ..............................
........................................................................

 iter      E             dE          RMSdq      gap      omega  full diag
   1  -5167.5511927 -0.516755E+04  0.682E-03    3.13       0.0  T
   2  -5167.5512227 -0.299615E-04  0.382E-03    3.13       1.0  T
   3  -5167.5512235 -0.779150E-06  0.170E-03    3.13       1.0  T
   4  -5167.5512239 -0.440702E-06  0.263E-04    3.13       6.2  T
   5  -5167.5512240 -0.115594E-06  0.132E-04    3.13      12.3  T
     SCC iter.                  ...       12 min, 41.205 sec
     gradient                   ...        5 min, 55.235 sec
 * total energy  : -5103.3115166 Eh     change    :  -0.7211829E-02 Eh
   gradient norm :     0.1576988 Eh/a0  converged?    E=F G=F D=F
   time step     :     0.2500000 fs     power     :   0.3576589E-06
   step length   :     0.0859519 a0     speed     :   0.8316306E-02

........................................................................
.............................. CYCLE   25 ..............................
........................................................................

 iter      E             dE          RMSdq      gap      omega  full diag
   1  -5167.6698155 -0.516767E+04  0.715E-03    3.14       0.0  T
   2  -5167.6698531 -0.375781E-04  0.393E-03    3.14       1.0  T
   3  -5167.6698540 -0.966917E-06  0.181E-03    3.14       1.0  T
   4  -5167.6698546 -0.508160E-06  0.328E-04    3.14       4.9  T
   5  -5167.6698547 -0.182607E-06  0.161E-04    3.14      10.1  T
     SCC iter.                  ...       12 min, 41.416 sec
     gradient                   ...        5 min, 55.340 sec
 * total energy  : -5103.3197670 Eh     change    :  -0.8250339E-02 Eh
   gradient norm :     0.1398052 Eh/a0  converged?    E=F G=F D=F
   time step     :     0.2500000 fs     power     :   0.4042975E-06
   step length   :     0.0876015 a0     speed     :   0.8475911E-02

........................................................................
.............................. CYCLE   26 ..............................
........................................................................

 iter      E             dE          RMSdq      gap      omega  full diag
   1  -5167.8138299 -0.516781E+04  0.842E-03    3.16       0.0  T
   2  -5167.8138833 -0.533968E-04  0.462E-03    3.16       1.0  T
   3  -5167.8138846 -0.134079E-05  0.214E-03    3.17       1.0  T
   4  -5167.8138855 -0.831630E-06  0.432E-04    3.16       3.8  T
   5  -5167.8138858 -0.321478E-06  0.204E-04    3.17       8.0  T
     SCC iter.                  ...       12 min, 43.167 sec
     gradient                   ...        6 min,  3.622 sec
 * total energy  : -5103.3290013 Eh     change    :  -0.9234341E-02 Eh
   gradient norm :     0.1150809 Eh/a0  converged?    E=F G=F D=F
   time step     :     0.2750000 fs     power     :   0.3948834E-06
   step length   :     0.1000617 a0     speed     :   0.8801372E-02

........................................................................
.............................. CYCLE   27 ..............................
........................................................................

 iter      E             dE          RMSdq      gap      omega  full diag
   1  -5167.9775386 -0.516798E+04  0.983E-03    3.19       0.0  T
   2  -5167.9776081 -0.695956E-04  0.543E-03    3.19       1.0  T
   3  -5167.9776098 -0.168690E-05  0.247E-03    3.19       1.0  T
   4  -5167.9776113 -0.141950E-05  0.528E-04    3.19       3.1  T
   5  -5167.9776117 -0.476230E-06  0.242E-04    3.19       6.7  T
   6  -5167.9776118 -0.596774E-07  0.150E-04    3.19      10.8  T
     SCC iter.                  ...       15 min, 12.215 sec
     gradient                   ...        5 min, 53.205 sec
 * total energy  : -5103.3379273 Eh     change    :  -0.8925985E-02 Eh
   gradient norm :     0.0893522 Eh/a0  converged?    E=F G=F D=F
   time step     :     0.3025000 fs     power     :   0.3217167E-06
   step length   :     0.1148653 a0     speed     :   0.9184985E-02

........................................................................
.............................. CYCLE   28 ..............................
........................................................................

 iter      E             dE          RMSdq      gap      omega  full diag
   1  -5168.1462333 -0.516815E+04  0.111E-02    3.22       0.0  T
   2  -5168.1463139 -0.805960E-04  0.618E-03    3.22       1.0  T
   3  -5168.1463157 -0.181804E-05  0.273E-03    3.22       1.0  T
   4  -5168.1463179 -0.222078E-05  0.573E-04    3.22       2.8  T
   5  -5168.1463185 -0.546460E-06  0.251E-04    3.22       6.5  T
   6  -5168.1463185 -0.587324E-07  0.151E-04    3.22      10.7  T
     SCC iter.                  ...       15 min, 11.169 sec
     gradient                   ...        5 min, 54.823 sec
 * total energy  : -5103.3451068 Eh     change    :  -0.7179529E-02 Eh
   gradient norm :     0.0767134 Eh/a0  converged?    E=F G=F D=F
   time step     :     0.3327500 fs     power     :   0.2044858E-06
   step length   :     0.1303293 a0     speed     :   0.9474123E-02

........................................................................
.............................. CYCLE   29 ..............................
........................................................................

 iter      E             dE          RMSdq      gap      omega  full diag
   1  -5168.2920867 -0.516829E+04  0.116E-02    3.25       0.0  T
   2  -5168.2921654 -0.786804E-04  0.655E-03    3.24       1.0  T
   3  -5168.2921671 -0.179822E-05  0.282E-03    3.25       1.0  T
   4  -5168.2921700 -0.289489E-05  0.550E-04    3.25       2.9  T
   5  -5168.2921705 -0.485467E-06  0.252E-04    3.25       6.4  T
   6  -5168.2921706 -0.536647E-07  0.149E-04    3.25      10.9  T
     SCC iter.                  ...       15 min,  9.767 sec
     gradient                   ...        5 min, 54.508 sec
 * total energy  : -5103.3499675 Eh     change    :  -0.4860699E-02 Eh
   gradient norm :     0.0866399 Eh/a0  converged?    E=F G=F D=F
   time step     :     0.3660250 fs     power     :   0.1017685E-06
   step length   :     0.1429645 a0     speed     :   0.9447840E-02

........................................................................
.............................. CYCLE   30 ..............................
........................................................................

 iter      E             dE          RMSdq      gap      omega  full diag
   1  -5168.3866723 -0.516839E+04  0.112E-02    3.26       0.0  T
   2  -5168.3867361 -0.637550E-04  0.642E-03    3.26       1.0  T
   3  -5168.3867376 -0.153023E-05  0.267E-03    3.26       1.0  T
   4  -5168.3867405 -0.294082E-05  0.476E-04    3.26       3.4  T
   5  -5168.3867409 -0.366260E-06  0.231E-04    3.26       7.0  T
   6  -5168.3867409 -0.401424E-07  0.119E-04    3.26      13.6  T
     SCC iter.                  ...       15 min,  9.680 sec
     gradient                   ...        5 min, 56.646 sec
 * total energy  : -5103.3536403 Eh     change    :  -0.3672789E-02 Eh
   gradient norm :     0.1031968 Eh/a0  converged?    E=F G=F D=F
   time step     :     0.4026275 fs     power     :   0.6909830E-07
   step length   :     0.1510935 a0     speed     :   0.9077313E-02

........................................................................
.............................. CYCLE   31 ..............................
........................................................................

 iter      E             dE          RMSdq      gap      omega  full diag
   1  -5168.4120073 -0.516841E+04  0.106E-02    3.27       0.0  T
   2  -5168.4120560 -0.487244E-04  0.610E-03    3.27       1.0  T
   3  -5168.4120571 -0.108068E-05  0.243E-03    3.27       1.0  T
   4  -5168.4120596 -0.258535E-05  0.415E-04    3.27       3.9  T
   5  -5168.4120599 -0.297236E-06  0.200E-04    3.27       8.1  T
   6  -5168.4120600 -0.221498E-07  0.765E-05    3.27      21.2  T
     SCC iter.                  ...       15 min, 12.220 sec
     gradient                   ...        5 min, 50.349 sec
 * total energy  : -5103.3581936 Eh     change    :  -0.4553306E-02 Eh
   gradient norm :     0.1094295 Eh/a0  converged?    E=F G=F D=F
   time step     :     0.4428903 fs     power     :   0.1027064E-06
   step length   :     0.1588588 a0     speed     :   0.8676216E-02

........................................................................
.............................. CYCLE   32 ..............................
........................................................................

 iter      E             dE          RMSdq      gap      omega  full diag
   1  -5168.3601290 -0.516836E+04  0.105E-02    3.26       0.0  T
   2  -5168.3601792 -0.501608E-04  0.608E-03    3.26       1.0  T
   3  -5168.3601801 -0.926470E-06  0.237E-03    3.26       1.0  T
   4  -5168.3601822 -0.207690E-05  0.433E-04    3.26       3.7  T
   5  -5168.3601825 -0.350259E-06  0.182E-04    3.26       8.9  T
   6  -5168.3601826 -0.135178E-07  0.877E-05    3.26      18.5  T
     SCC iter.                  ...       15 min, 13.073 sec
     gradient                   ...        5 min, 56.038 sec
 * total energy  : -5103.3648614 Eh     change    :  -0.6667757E-02 Eh
   gradient norm :     0.0989052 Eh/a0  converged?    E=F G=F D=F
   time step     :     0.4871793 fs     power     :   0.1485561E-06
   step length   :     0.1710813 a0     speed     :   0.8494324E-02

........................................................................
.............................. CYCLE   33 ..............................
........................................................................

 iter      E             dE          RMSdq      gap      omega  full diag
   1  -5168.2377708 -0.516824E+04  0.114E-02    3.24       0.0  T
   2  -5168.2378460 -0.751683E-04  0.661E-03    3.24       1.0  T
   3  -5168.2378473 -0.137959E-05  0.268E-03    3.24       1.0  T
   4  -5168.2378491 -0.172141E-05  0.516E-04    3.25       3.1  T
   5  -5168.2378496 -0.518921E-06  0.197E-04    3.24       8.2  T
   6  -5168.2378496 -0.168602E-07  0.991E-05    3.24      16.4  T
     SCC iter.                  ...       15 min, 11.061 sec
     gradient                   ...        5 min, 57.115 sec
 * total energy  : -5103.3726523 Eh     change    :  -0.7790916E-02 Eh
   gradient norm :     0.0769060 Eh/a0  converged?    E=F G=F D=F
   time step     :     0.5358972 fs     power     :   0.1429201E-06
   step length   :     0.1895563 a0     speed     :   0.8556020E-02

........................................................................
[...]
  3538   6 C     3541   7 N                                       1.3304022
  3541   7 N     3542   6 C                                       1.4462686
  3541   7 N     3543   1 H                                       1.0186347
  3518   6 C     3544   1 H                                       1.0902996
  3518   6 C     3545   1 H                                       1.0903721
  3525   6 C     3546   8 O                                       1.2324281
  3538   6 C     3547   8 O                                       1.2349206
  3542   6 C     3548   6 C                                       1.5280981
  3542   6 C     3549   1 H                                       1.0934480
  3542   6 C     3550   1 H                                       1.0914693
  3548   6 C     3551   6 C                                       1.5309582
  3548   6 C     3552   1 H                                       1.0907055
  3548   6 C     3553   1 H                                       1.0896431
  3551   6 C     3554   6 C                                       1.5303414
  3551   6 C     3555   1 H                                       1.0924594
  3551   6 C     3556   1 H                                       1.0909290
  3554   6 C     3557   6 C                                       1.5272751
  3554   6 C     3558   1 H                                       1.0898193
  3554   6 C     3559   1 H                                       1.0921918
  3557   6 C     3560   6 C                                       1.5267391
  3557   6 C     3561   1 H                                       1.0896088
  3557   6 C     3562   1 H                                       1.0870496
  3560   6 C     3563   7 N                                       1.4447544
  3560   6 C     3564   1 H                                       1.0950896
  3560   6 C     3565   1 H                                       1.0922649
  3563   7 N     3566   6 C                                       1.3324593
  3563   7 N     3567   1 H                                       1.0129512
  3568   6 C     3569   6 C                                       1.5266951
  3568   6 C     3570   1 H                                       1.0902278
  3568   6 C     3571   1 H                                       1.0938493
  3569   6 C     3572   6 C                                       1.5254251
  3569   6 C     3573   1 H                                       1.0912525
  3569   6 C     3574   1 H                                       1.0939353
  3572   6 C     3575   6 C                                       1.5248466
  3572   6 C     3576   1 H                                       1.0916916
  3572   6 C     3577   1 H                                       1.0913311
  3575   6 C     3579   1 H                                       1.0904759
  3575   6 C     3580   1 H                                       1.0944616
  3578   6 C     3581   7 N                                       1.3413529
  3581   7 N     3582   6 C                                       1.4436166
  3581   7 N     3583   1 H                                       1.0120661
  3566   6 C     3584   8 O                                       1.2318439
  3582   6 C     3585   6 C                                       1.5222149
  3582   6 C     3586   1 H                                       1.0936637
  3582   6 C     3587   1 H                                       1.0957548
  3585   6 C     3588   6 C                                       1.5272980
  3585   6 C     3589   1 H                                       1.0918610
  3585   6 C     3590   1 H                                       1.0893725
  3588   6 C     3591   6 C                                       1.5265506
  3588   6 C     3592   1 H                                       1.0919155
  3588   6 C     3593   1 H                                       1.0917944
  3591   6 C     3594   6 C                                       1.5286070
  3591   6 C     3595   1 H                                       1.0921283
  3591   6 C     3596   1 H                                       1.0922971
  3594   6 C     3597   6 C                                       1.5266430
  3594   6 C     3598   1 H                                       1.0919230
  3594   6 C     3599   1 H                                       1.0909049
  3597   6 C     3600   7 N                                       1.4486412
  3597   6 C     3601   1 H                                       1.0963462
  3597   6 C     3602   1 H                                       1.0927862
  3578   6 C     3603   8 O                                       1.2263932
  3600   7 N     3604   6 C                                       1.3318711
  3600   7 N     3605   1 H                                       1.0104250
  3606   6 C     3607   6 C                                       1.5312797
  3606   6 C     3608   1 H                                       1.0895745
  3606   6 C     3609   1 H                                       1.0915116
  3607   6 C     3610   6 C                                       1.5271220
  3607   6 C     3611   1 H                                       1.0919519
  3607   6 C     3612   1 H                                       1.0922755
  3610   6 C     3613   6 C                                       1.5243902
  3610   6 C     3614   1 H                                       1.0903721
  3610   6 C     3615   1 H                                       1.0907576
  3613   6 C     3617   1 H                                       1.0917734
  3613   6 C     3618   1 H                                       1.0934964
  3616   6 C     3619   7 N                                       1.3339425
  3604   6 C     3620   8 O                                       1.2353854
  3619   7 N     3621   6 C                                       1.4498462
  3619   7 N     3622   1 H                                       1.0189298
  3621   6 C     3623   6 C                                       1.5264962
  3621   6 C     3624   1 H                                       1.0942148
  3621   6 C     3625   1 H                                       1.0927269
  3623   6 C     3626   6 C                                       1.5290429
  3623   6 C     3627   1 H                                       1.0902049
  3623   6 C     3628   1 H                                       1.0919657
  3626   6 C     3629   6 C                                       1.5293049
  3626   6 C     3630   1 H                                       1.0896336
  3626   6 C     3631   1 H                                       1.0914621
  3629   6 C     3632   6 C                                       1.5265348
  3629   6 C     3633   1 H                                       1.0920822
  3629   6 C     3634   1 H                                       1.0905340
  3632   6 C     3635   6 C                                       1.5272290
  3632   6 C     3636   1 H                                       1.0913201
  3632   6 C     3637   1 H                                       1.0916799
  3635   6 C     3638   7 N                                       1.4466278
  3635   6 C     3639   1 H                                       1.0968142
  3635   6 C     3640   1 H                                       1.0919615
  3638   7 N     3641   6 C                                       1.3353894
  3638   7 N     3642   1 H                                       1.0157712
  3616   6 C     3643   8 O                                       1.2292577
  3644   6 C     3645   6 C                                       1.5305221
  3644   6 C     3646   1 H                                       1.0899738
  3644   6 C     3647   1 H                                       1.0894859
  3645   6 C     3648   6 C                                       1.5271797
  3645   6 C     3649   1 H                                       1.0922058
  3645   6 C     3650   1 H                                       1.0927270
  3648   6 C     3651   6 C                                       1.5324220
  3648   6 C     3652   1 H                                       1.0912464
  3648   6 C     3653   1 H                                       1.0918819
  3651   6 C     3655   1 H                                       1.0868465
  3651   6 C     3656   1 H                                       1.0923745
  3654   6 C     3657   7 N                                       1.3426263
  3657   7 N     3658   6 C                                       1.4467120
  3657   7 N     3659   1 H                                       1.0107892
  3641   6 C     3660   8 O                                       1.2306098
  3658   6 C     3661   6 C                                       1.5273543
  3658   6 C     3662   1 H                                       1.0930458
  3658   6 C     3663   1 H                                       1.0971751
  3661   6 C     3664   6 C                                       1.5321580
  3661   6 C     3665   1 H                                       1.0910337
  3661   6 C     3666   1 H                                       1.0923156
  3664   6 C     3667   6 C                                       1.5283501
  3664   6 C     3668   1 H                                       1.0929621
  3664   6 C     3669   1 H                                       1.0905653
  3667   6 C     3670   6 C                                       1.5327367
  3667   6 C     3671   1 H                                       1.0909913
  3667   6 C     3672   1 H                                       1.0904426
  3670   6 C     3673   6 C                                       1.5281205
  3670   6 C     3674   1 H                                       1.0910476
  3670   6 C     3675   1 H                                       1.0916339
  3673   6 C     3676   7 N                                       1.4448122
  3673   6 C     3677   1 H                                       1.0908696
  3673   6 C     3678   1 H                                       1.0960106
  3676   7 N     3679   6 C                                       1.3381231
  3676   7 N     3680   1 H                                       1.0126851
  3654   6 C     3681   8 O                                       1.2251212
  3682   6 C     3683   6 C                                       1.5268963
  3682   6 C     3684   1 H                                       1.0890011
  3682   6 C     3685   1 H                                       1.0933418
  3683   6 C     3686   6 C                                       1.5260380
  3683   6 C     3687   1 H                                       1.0913675
  3683   6 C     3688   1 H                                       1.0912823
  3686   6 C     3689   6 C                                       1.5336435
  3686   6 C     3690   1 H                                       1.0896235
  3686   6 C     3691   1 H                                       1.0909455
  3689   6 C     3693   1 H                                       1.0904060
  3689   6 C     3694   1 H                                       1.0899218
  3692   6 C     3695   7 N                                       1.3354329
  3679   6 C     3696   8 O                                       1.2311212
  3695   7 N     3697   6 C                                       1.4476992
  3695   7 N     3698   1 H                                       1.0128280
  3697   6 C     3699   6 C                                       1.5260423
  3697   6 C     3700   1 H                                       1.0932337
  3697   6 C     3701   1 H                                       1.0962234
  3699   6 C     3702   6 C                                       1.5264886
  3699   6 C     3703   1 H                                       1.0907551
  3699   6 C     3704   1 H                                       1.0913824
  3702   6 C     3705   6 C                                       1.5278849
  3702   6 C     3706   1 H                                       1.0913636
  3702   6 C     3707   1 H                                       1.0888739
  3705   6 C     3708   6 C                                       1.5270893
  3705   6 C     3709   1 H                                       1.0912861
  3705   6 C     3710   1 H                                       1.0914669
  3708   6 C     3711   6 C                                       1.5272455
  3708   6 C     3712   1 H                                       1.0913273
  3708   6 C     3713   1 H                                       1.0901671
  3711   6 C     3714   7 N                                       1.4502408
  3711   6 C     3715   1 H                                       1.0962831
  3711   6 C     3716   1 H                                       1.0933121
  3714   7 N     3717   6 C                                       1.3371671
  3714   7 N     3718   1 H                                       1.0087531
  3692   6 C     3719   8 O                                       1.2328757
  3720   6 C     3721   6 C                                       1.5287191
  3720   6 C     3722   1 H                                       1.0890556
  3720   6 C     3723   1 H                                       1.0935164
  3721   6 C     3724   6 C                                       1.5278756
  3721   6 C     3725   1 H                                       1.0922299
  3721   6 C     3726   1 H                                       1.0914378
  3724   6 C     3727   6 C                                       1.5346468
  3724   6 C     3728   1 H                                       1.0921113
  3724   6 C     3729   1 H                                       1.0923455
  3727   6 C     3731   1 H                                       1.0873054
  3727   6 C     3732   1 H                                       1.0924088
  3730   6 C     3733   7 N                                       1.3358229
  3733   7 N     3734   6 C                                       1.4479889
  3733   7 N     3735   1 H                                       1.0180168
  3717   6 C     3736   8 O                                       1.2273150
  3734   6 C     3737   6 C                                       1.5281283
  3734   6 C     3738   1 H                                       1.0934644
  3734   6 C     3739   1 H                                       1.0926447
  3737   6 C     3740   6 C                                       1.5273786
  3737   6 C     3741   1 H                                       1.0918354
  3737   6 C     3742   1 H                                       1.0902911
  3740   6 C     3743   6 C                                       1.5271893
  3740   6 C     3744   1 H                                       1.0903990
  3740   6 C     3745   1 H                                       1.0915749
  3743   6 C     3746   6 C                                       1.5283791
  3743   6 C     3747   1 H                                       1.0905076
  3743   6 C     3748   1 H                                       1.0891210
  3746   6 C     3749   6 C                                       1.5275237
  3746   6 C     3750   1 H                                       1.0907335
  3746   6 C     3751   1 H                                       1.0910155
  3749   6 C     3752   7 N                                       1.4459786
  3749   6 C     3753   1 H                                       1.0914154
  3749   6 C     3754   1 H                                       1.0953062
  3752   7 N     3755   6 C                                       1.3297670
  3752   7 N     3756   1 H                                       1.0159953
  3730   6 C     3757   8 O                                       1.2295991
  3758   6 C     3759   6 C                                       1.5279245
  3758   6 C     3760   1 H                                       1.0928500
  3758   6 C     3761   1 H                                       1.0891139
  3759   6 C     3762   6 C                                       1.5253843
  3759   6 C     3763   1 H                                       1.0925092
  3759   6 C     3764   1 H                                       1.0918960
  3762   6 C     3765   6 C                                       1.5254065
  3762   6 C     3766   1 H                                       1.0893784
  3762   6 C     3767   1 H                                       1.0913698
  3765   6 C     3769   1 H                                       1.0910696
  3765   6 C     3770   1 H                                       1.0938024
  3768   6 C     3771   7 N                                       1.3313778
  3755   6 C     3772   8 O                                       1.2326666
  3771   7 N     3773   6 C                                       1.4464323
  3771   7 N     3774   1 H                                       1.0153678
  3773   6 C     3775   6 C                                       1.5249431
  3773   6 C     3776   1 H                                       1.0929757
  3773   6 C     3777   1 H                                       1.0976073
  3775   6 C     3778   6 C                                       1.5284984
  3775   6 C     3779   1 H                                       1.0900595
  3775   6 C     3780   1 H                                       1.0901796
  3778   6 C     3781   6 C                                       1.5287675
  3778   6 C     3782   1 H                                       1.0910224
  3778   6 C     3783   1 H                                       1.0916706
  3781   6 C     3784   6 C                                       1.5289227
  3781   6 C     3785   1 H                                       1.0912426
  3781   6 C     3786   1 H                                       1.0896294
  3784   6 C     3787   6 C                                       1.5294758
  3784   6 C     3788   1 H                                       1.0913360
  3784   6 C     3789   1 H                                       1.0913034
  3787   6 C     3790   7 N                                       1.4584247
  3787   6 C     3791   1 H                                       1.0929838
  3787   6 C     3792   1 H                                       1.1038939
  3790   7 N     3793   1 H                                       1.0141524
  3790   7 N     3794   1 H                                       1.0153491
  3768   6 C     3795   8 O                                       1.2346829

 * 6 distinct bonds (by element types)

   Z      Z             #   av. dist./Å        max./Å        min./Å
   1 H    6 C        1980     1.0918884     1.1047179     1.0865981
   6 C    6 C         791     1.5282751     1.5387260     1.5196759
   1 H    7 N         209     1.0148593     1.0328878     1.0071605
   6 C    7 N         385     1.3933479     1.4638805     1.3209257
   1 H    8 O           3     0.9972749     0.9994497     0.9931102
   6 C    8 O         208     1.2346788     1.3195131     1.2126280


optimized geometry written to: xtbopt.xyz


           -------------------------------------------------
          | TOTAL ENERGY            -5103.638010396404 Eh   |
          | GRADIENT NORM               0.000947373838 Eh/α |
          | HOMO-LUMO GAP               3.300330456238 eV   |
           -------------------------------------------------

------------------------------------------------------------------------
 * finished run on 2024/07/12 at 22:01:18.761     
------------------------------------------------------------------------
 total:
 * wall-time:    17 d, 22 h, 40 min, 29.328 sec
 *  cpu-time:   105 d, 10 h, 49 min, 58.832 sec
 * ratio c/w:     5.876 speedup
 SCF:
 * wall-time:     0 d,  0 h, 14 min,  5.749 sec
 *  cpu-time:     0 d,  1 h, 20 min,  6.392 sec
 * ratio c/w:     5.683 speedup
 ANC optimizer:
 * wall-time:    17 d, 22 h, 25 min, 17.230 sec
 *  cpu-time:   105 d,  9 h, 28 min, 26.596 sec
 * ratio c/w:     5.877 speedup

