3258
 energy: -3427.556049396820 gnorm: 0.000719058791 xtb: 6.6.1 (8d0f1dd)
C          112.13664780707553      121.71869102264661       95.66801798966161
C          111.80851790788053      122.48109264899371       96.94573813111772
C          111.15366990301133      123.82881701650957       96.65016381695808
C          110.93005570675037      124.69099417587127       97.89413071417074
C          109.91734698807998      124.10066377153319       98.87230555730333
C          109.61348544379379      125.04743144707132      100.03167426903144
C          108.65416875796764      124.41179608763373      101.03388473727784
C          108.27859933374802      125.34359111920452      102.18436684317572
C          107.31229185361910      124.65656424040989      103.14534322764224
C          106.85371822166256      125.54343577959268      104.30205118187067
C          105.89276996920763      124.77374391094409      105.20372140682373
C          105.35796167191181      125.55984053051050      106.39813936506842
C          104.49183337810194      124.64754628762623      107.26371153997742
C          103.86563474677494      125.32320569423180      108.47985400046494
C          103.11432672149529      124.29309812227726      109.32022465654016
C          102.49078158392318      124.86360101904744      110.59067299129556
C          101.99030628972429      123.74365810358067      111.50050891566607
C          101.34968666787400      124.25909240160694      112.78561321061925
C          101.02134701709626      123.11939673859288      113.74802660670854
C          100.34130324982881      123.62400100014042      115.01799882149648
C          100.03025489536073      122.51675677153081      116.02620916219558
C          101.27729675000707      121.92834589684651      116.68382702414310
C          100.92466007506526      120.98809504388916      117.83406348679065
C          102.16609551319927      120.41933162632535      118.51636397824599
C          101.81136472389879      119.50949514046556      119.68988554381974
C          103.04701447870755      118.88493405548083      120.33376769423626
C          102.68400710450588      117.97879650097299      121.50758205267810
C          103.91163508565937      117.32310021831486      122.13561912678541
C          103.53000561804635      116.41053699639755      123.29902972177713
C          104.72998358371868      115.85307353717670      124.06591773233193
C          105.58472835281221      114.88702986128264      123.24799099620361
C          106.62376939796984      114.17705234414389      124.11350217959530
C          107.51696436265527      113.23839712720326      123.30540081738702
C          108.47267481129718      112.45676782934476      124.20187408109938
C          109.39262768071404      111.50279243889639      123.44001067791277
C          108.64147495011649      110.40189975437910      122.69109842974244
C          109.52802013007805      109.19630660414833      122.38617196864253
C          108.75088351688296      108.07874425213397      121.69541039605424
C          109.61023260800224      106.85027598679184      121.40856181703231
C          108.80248732110606      105.71664355195055      120.77869311912164
C          109.67613831022217      104.51370487968332      120.43104992729751
C          108.88566246765892      103.35077882276093      119.83367112044580
C          109.79561371262632      102.16687580853721      119.51420348824374
C          109.05688270621654      100.98083639107924      118.89779797878502
C          110.00604408902463       99.81777025127097      118.61486617337886
C          109.32107140084995       98.63453374828389      117.93558100617579
C          110.29073807301397       97.47604756541699      117.70971761021123
C          109.64054686852916       96.28577605406548      117.00960879899461
C          110.60668347688177       95.11229975681806      116.86072343129966
C          109.97431936873123       93.92150516806214      116.14616379858488
C          110.96597300651028       92.78039657317882      115.92634588748692
C          110.32131718072891       91.60707023874402      115.19190017646140
C          111.28744951146136       90.44894614401801      114.92589313744982
C          111.50048045292941       89.50933553496272      116.12093851800364
C          110.72864116139084       88.19124858862310      116.00924378971879
C          109.20635557427904       88.33486224079451      116.01675607292314
C          108.65225126523136       88.71681504712781      117.38728635697360
C          107.15818925273688       89.02748809326665      117.34486293510678
C          106.60486065598381       89.29933587884005      118.74158413328409
C          105.14356321713342       89.75071271295829      118.74700203568794
C          104.89258253141286       91.11771748995911      118.10657055131732
C          105.70033818479436       92.24423349786751      118.74985903713399
C          105.21906882377201       93.61804879883867      118.28791105764098
C          106.16754424035584       94.75370927049467      118.66954012359221
C          106.30422341945986       94.97472948683405      120.17405248741981
C          107.18805737651840       96.18005498538997      120.49110051155623
C          107.33804552330815       96.39717269231697      121.99466566159100
C          108.12038680902123       97.66047752767602      122.35756909611817
C          109.62275403416838       97.55646502316988      122.11018519100726
C          110.36786774242347       98.78767993896187      122.62609695574103
C          111.88167347166748       98.61702492047516      122.51924610780337
C          112.68801988551274       99.69128114498952      123.25213901339070
C          112.74083341038794      101.03022979379222      122.51942507895522
C          113.55518032326496      102.09428199665606      123.26085287263699
C          115.04705955103294      101.77010716604011      123.30770114324572
C          115.88337636495055      102.76814045168888      124.10848546936464
C          116.03989669803970      104.13233999132324      123.44135671579031
C          117.04247373639404      105.00552566535976      124.19146458268162
C          117.16896073779259      106.40280936578682      123.59064392211833
C          118.21994083470462      107.23465347435777      124.32153051863351
C          118.36757673022011      108.65315715505280      123.77067023005530
C          117.11035943098439      109.50022593612606      123.96726422292552
C          117.36807783207612      111.00273754267074      123.86026051312264
C          117.83380959713773      111.44795106867555      122.47616584670564
C          117.96358793621935      112.96676054762771      122.39346828252724
C          118.36759201774873      113.44531565599090      121.00222944146471
C          118.42826182353777      114.96814192343609      120.92045060950711
C          118.70167330555350      115.46205483716732      119.50312860252167
C          118.64473690242680      116.98383705981250      119.40610494173866
C          118.88964474330244      117.47465533947737      117.98281584871833
C          118.73502151180303      118.98747511527371      117.85488270314336
C          119.13244574841215      119.48250112668670      116.46747469767391
C          119.05728619410110      121.00187642413836      116.34535842707187
C          119.63222836488889      121.49072712123406      115.01871095052381
C          119.58206594068352      123.01219778359970      114.89118673613993
C          120.43107529886973      123.54628913241199      113.73687007083373
C          119.95051980234365      123.07526237110500      112.36718338175569
C          120.81791134139715      123.62895080706339      111.23923375794666
C          120.26725322449578      123.31690945152140      109.84685643221717
C          120.09751958812059      121.82898651281516      109.53804674088629
C          121.41638497055973      121.06176784930079      109.50074753060608
C          121.23609979946227      119.59541650310423      109.10115238153894
C          120.73663221802636      118.68368574412423      110.22297167065764
C          121.79632282318765      118.42926550292601      111.29563662367923
C          121.46934179820201      117.24474879662768      112.20711369708346
C          120.32416048120086      117.52694599224512      113.17705378151153
C          119.88779176896550      116.29614233777158      113.97230394470513
C          120.97166512156775      115.72676948030978      114.88476192367820
C          120.45007411563223      114.56204889260597      115.72317424760507
C          121.50676695261157      114.00965860115717      116.67650182560526
C          121.00005948250808      112.79684127079287      117.45490583841357
C          121.95599665667243      112.38625112072026      118.57102629988633
C          121.47981649458063      111.14316354736394      119.32194570558433
C          122.27516922407955      110.93649600057941      120.60872854765894
C          121.81142396333536      109.74154579732281      121.44177652817388
C          122.18789285425518      108.38825477144917      120.84229684069989
C          121.91557040249151      107.24870727818467      121.82199413246174
C          122.37469193474065      105.89480614595860      121.28735467628429
C          122.18828689488588      104.78356537159527      122.31777047418970
C          122.61056828838485      103.42309137265046      121.77714568506033
H          122.77545805458826      105.01819885110891      123.20934296781320
H          121.13870139882921      104.74448916049241      122.61791998492464
H          121.81181800450348      105.65086487047088      120.38437262881956
H          123.43077314874611      105.95413236165940      121.01189657200727
H          122.43684802485329      107.45535242523103      122.76078926384046
H          120.84668046122161      107.20733130946512      122.04499181420368
H          121.62899755880056      108.21679987957550      119.92062707002954
H          123.25096482047510      108.39322594238082      120.58808124134838
H          122.26669842752328      109.81645491556803      122.43313794834886
H          120.72850036966095      109.79096423803662      121.57602128386731
H          123.33400101873933      110.81643531197474      120.36526889121443
H          122.18189782530841      111.83964048954184      121.21872702087103
H          120.42131144403842      111.25462580892152      119.57046047240196
H          121.57993420231526      110.26966223970994      118.67561305936397
H          122.95046385603159      112.20151936408554      118.15629794703395
H          122.04841847633476      113.21660390070764      119.27716959564466
H          120.03055847888977      113.03692951120476      117.89804066451893
H          120.85520711698342      111.95868685854992      116.76964611605838
H          122.40240126418868      113.73273916989440      116.11346635570278
H          121.79692220108416      114.79457811880678      117.38082926625461
H          119.59095488279041      114.89766356235241      116.30790898309013
H          120.10675865458087      113.76384917163247      115.06066985023774
H          121.81796813397112      115.38130011772439      114.28742633429114
H          121.33540664088247      116.51609653762195      115.54826899367409
H          119.02637783567498      116.56727305000275      114.58687303135515
H          119.56290666114049      115.51887265762841      113.27611535504761
H          120.62466221610971      118.31813160812376      113.86865747297212
H          119.46282854814069      117.89052055369356      112.61383592872203
H          121.21588548402656      116.37879183325376      111.59097290900199
H          122.36636680390924      116.99317896819316      112.77744398739799
H          122.74894532935009      118.22520586672604      110.79768462070358
H          121.93382569355688      119.32241864987145      111.90920425341154
H          119.84097508085833      119.11240996043678      110.67236397605141
H          120.45693144079334      117.72308704445534      109.78227977342894
H          120.53614009727741      119.54618721650019      108.26376157448696
H          122.19590923552212      119.20594716477405      108.74988612559645
H          122.07402329559200      121.54662791438182      108.77395845315526
H          121.90886526596364      121.11458309490001      110.47170548542357
H          119.42627792521962      121.37896449197780      110.27033670426613
H          119.62121280540629      121.73938134367830      108.55777562850803
H          119.29593636311533      123.80633370264721      109.74396687145875
H          120.93340281211387      123.75754074540066      109.10056729449191
H          120.88473388234929      124.71592758141504      111.34305686527988
H          121.83202800339585      123.23503409889148      111.33589802765846
H          119.97551214676379      121.98638227338787      112.33799792253470
H          118.91669320772657      123.39438878173561      112.21935369979518
H          120.41540643938900      124.63950068102649      113.76403974331961
H          121.46846144587063      123.23186989241107      113.88185204413756
H          118.54566908284076      123.33214327459879      114.76037229468203
H          119.94668051634575      123.45566823971771      115.82186528042955
H          120.67222795571290      121.16168701070156      114.94160160621918
H          119.07519510071873      121.03111790703460      114.20074368419856
H          118.01806443491515      121.32517782702371      116.43597218691802
H          119.61666386538819      121.45636494241373      117.16769137144188
H          120.15616635102330      119.15982411383735      116.25950612269089
H          118.48487619577865      119.02505405578228      115.71582382535239
H          117.69956638605863      119.26854911182343      118.06231733382701
H          119.36446855095505      119.47699132104921      118.60301271093576
H          119.89727785724823      117.18794187645238      117.67234933855833
H          118.18513288943439      116.98318204202815      117.30767483308682
H          117.66497219434740      117.32915755339459      119.74331772627114
H          119.39240318015182      117.41976227878136      120.07403727789195
H          119.68449638399662      115.11368692872053      119.17807370946367
H          117.95798505521940      115.03461301003026      118.82597880235112
H          117.47658919296259      115.38192808334441      121.26188931971078
H          119.20618212922284      115.33906968397042      121.59294695707226
H          119.34172110851229      113.02701088809913      120.73968914009743
H          117.64054798012100      113.07674327749382      120.27476276198786
H          117.00657104737272      113.42281770390430      122.66062816568518
H          118.70219492759863      113.30761270112686      123.12387806604228
H          118.79967603310213      110.99388008179253      122.24816921203453
H          117.11628610198581      111.10508884504257      121.72720200711014
H          116.44286659878962      111.53205531982330      124.10568898436874
H          118.11574895514340      111.29406600074456      124.60302255033784
H          116.35881538696012      109.21491689437912      123.22912198943170
H          116.69789284018580      109.29359217679820      124.95841013844908
H          119.20404941399735      109.13582686002830      124.28301331896917
H          118.61485746104675      108.60031326340643      122.70880633701667
H          117.96063240790943      107.28906339256163      125.38258849336772
H          119.18563924874277      106.72610522092090      124.24894726201069
H          117.44184866119171      106.32304022782857      122.53607579964255
H          116.20030144584955      106.90103384040549      123.65046507932428
H          116.73399419196870      105.09145764729602      125.23711519147169
H          118.02118600628479      104.51759368529036      124.18123487562130
H          116.38921375534859      103.99452973750964      122.41555732894679
H          115.07608854878362      104.64257849869075      123.40440345753072
H          115.43991839324649      102.89778158957758      125.09923814163270
H          116.88006513239149      102.34047335323335      124.25125343503917
H          115.18403755716649      100.78645173526297      123.76009148335815
H          115.43317559386880      101.72197157397036      122.28640656048587
H          113.41286505601322      103.05266383983091      122.75705117979834
H          113.17400518397264      102.19458375538008      124.28064398842672
H          113.17186187629301      100.87872771007984      121.52776971069918
H          111.72323689336244      101.40453557807939      122.38478444045582
H          112.26588916965540       99.83992058823878      124.24973404674434
H          113.70511209608631       99.31628871080665      123.37984445376753
H          112.14119634548712       97.64689858100954      122.94955305689157
H          112.17623035147579       98.59940699134121      121.46639494104470
H          110.04495441935957       99.66774145952547      122.06672788454159
H          110.10254663639539       98.94895766169427      123.67452576570105
H          110.00656150673997       96.66991972548459      122.62253442828123
H          109.81690993275758       97.43586576771749      121.04276925278072
H          107.71946312384665       98.50467854559844      121.79452198885767
H          107.96479811633625       97.86820248975280      123.42014590157184
H          106.33877281314872       96.46902956297136      122.43419458291035
H          107.82666439446015       95.52704688670673      122.44123396060111
H          108.17190598225056       96.03044055461886      120.04225028385721
H          106.74694618059397       97.07427481380230      120.04266524520951
H          105.31279020999851       95.13064218072154      120.60821764456990
H          106.73379582044615       94.08637029704811      120.64160687382446
H          107.15388770274829       94.53964066445450      118.25017971825621
H          105.80757652979715       95.67788027598462      118.20988793853286
H          105.12650179280880       93.60341185762509      117.19873338132645
H          104.22698244300362       93.81348972365757      118.70331836474227
H          105.61521831555618       92.16892823858201      119.83591408443688
H          106.75395165765283       92.13499656411950      118.48706413103656
H          105.11646855144564       91.07564901432698      117.03889913653903
H          103.82751971434112       91.34541966126289      118.20407080709131
H          104.53909976450886       89.00217988562299      118.22751154052003
H          104.79950103671445       89.78556253105894      119.78446236260420
H          106.68649879206060       88.38371737940028      119.33407201667362
H          107.22007062047022       90.05560827775187      119.23180571256037
H          106.99651786368786       89.89850407444358      116.70739604335830
H          106.62010291278517       88.18571297874729      116.90057862846383
H          108.83485221200999       87.89842180201538      118.08898765954847
H          109.17906001735118       89.59413259903997      117.76745372346144
H          108.90990595719559       89.07946071234733      115.27737642194494
H          108.76159496879164       87.38332131983186      115.71234899046672
H          111.02903745551110       87.69577632088560      115.08176077297810
H          111.02458425052869       87.53926288480875      116.83612971290458
H          112.55982395427502       89.25618723157120      116.19766985834531
H          111.23079099118574       90.01974415240187      117.04599608644759
H          110.91673558714808       89.86370217777878      114.08158272056941
H          112.24715116573103       90.87079214275623      114.62072793451961
H          109.46807228186326       91.25103967169812      115.77110908067569
H          109.93838072058861       91.97110302116575      114.23566340949198
H          111.80928163962875       93.15230639334092      115.33772931430659
H          111.36178471813288       92.44675903495815      116.88798166266859
H          109.12629363678440       93.55437014527499      116.73058210902714
H          109.58824119717316       94.24960238795327      115.17805243912268
H          111.48407597333737       95.43868222572318      116.29885925748461
H          110.95043060245875       94.79957374862605      117.84949946754770
H          108.76701844260165       95.96661076675038      117.58320690017928
H          109.28894596256694       96.59298782105378      116.02177870288219
H          111.13627548525687       97.82581586952161      117.11310603826009
H          110.68965928314971       97.14847830736663      118.67433121977720
H          108.48665830308447       98.29298549283885      118.55378292313357
H          108.91173072894584       98.95590788368658      116.97484239703100
H          110.82162744727820      100.16692051148149      117.97699654251556
H          110.44889717268103       99.48385716744059      119.55662388717795
H          108.26560075770421      100.64981536447532      119.57679040012668
H          108.57897888507121      101.29427924085121      117.96624302975506
H          110.57657147115331      102.49522996871322      118.82409439435520
H          110.29043480575091      101.84055561857677      120.43348264758716
H          108.10899886945242      103.03527430460717      120.53543591820417
H          108.38860076417086      103.68242499053683      118.91887353796946
H          110.44286742559984      104.82425742633713      119.71760766682242
H          110.18833929832356      104.17063961633013      121.33439153911389
H          108.01530115576206      105.40702585216023      121.47233875318894
H          108.31331641564196      106.08445492564887      119.87393628418144
H          110.42495025164031      107.12982287678295      120.73644954643414
H          110.05844622856461      106.49583699748038      122.34090145059226
H          107.91282643627204      107.78721266810572      122.33221738926223
H          108.33523732207561      108.45580107534192      120.75858052059611
H          110.36412719151572      109.50894562972010      121.75459485683572
H          109.94361188533451      108.81379165924984      123.32271565461741
H          107.79881603411199      110.07088520964263      123.30201725432812
H          108.23787230025903      110.79715780927565      121.75774673023342
H          110.00615951974973      112.07061835828280      122.73559189310220
H          110.06489483608885      111.03873884194141      124.16616069928862
H          109.08733549802881      113.16279497999737      124.76658523156901
H          107.89033765998900      111.87924700557663      124.92550898466436
H          106.88804682602535      112.53726989759409      122.75536648696090
H          108.08916979765858      113.81738764217124      122.57688656842340
H          107.24432198090733      114.92179129399291      124.61882581934762
H          106.10977230214971      113.60259863099520      124.88945260386573
H          104.93275490639327      114.14168000486079      122.78667534342844
H          106.09506640693610      115.42878641831332      122.44971291919992
H          105.35079114932077      116.68143827013833      124.41772687522956
H          104.35855565430050      115.32713434927307      124.95019412592062
H          102.90585553787282      116.97639789978643      123.99653378212879
H          102.92696617014020      115.57981440044804      122.92342281252681
H          104.43868009175122      116.74845745652122      121.37242950903266
H          104.58832783388321      118.10244871655682      122.49447599590371
H          102.15892823216382      118.56562833303975      122.26619960307639
H          101.99589423696334      117.20173112511299      121.16517565288035
H          103.59061935289795      118.30480297482210      119.58470272736947
H          103.71363737160381      119.67812254088376      120.68231148506716
H          101.26483974448539      120.08675215872780      120.44042140826950
H          101.14658892389983      118.71512351590707      119.34214091819666
H          102.75024328354228      119.85590878194573      117.78484273674572
H          102.79349137946940      121.24059144199315      118.87226972934693
H          100.32561085419617      121.52954330179659      118.57115031678512
H          100.31373006625316      120.16594872443478      117.45404313682204
H          101.86253920933854      121.38123622419953      115.94256217865640
H          101.89926065031284      122.74243833948698      117.06517257084873
H           99.38794325786186      122.93126412825438      116.80795913482629
H           99.47059772698903      121.72007437917075      115.53030239194287
H          100.97934378717061      124.37217829240808      115.49565048300086
H           99.40755518832380      124.12081365255126      114.74093795619898
H          100.36689585942187      122.40025818891006      113.24962185340486
H          101.94606965563169      122.60054821799866      114.00610113719995
H          102.03446258264137      124.95574278045940      113.27653608556517
H          100.43768152585858      124.81168806066773      112.54583788848601
H          101.26720140129959      123.13131950154151      110.95661485381838
H          102.83390611741089      123.10119425977672      111.76314406742620
H          103.23683723765123      125.45505610838734      111.12644927141865
H          101.66462541352320      125.53059222500471      110.33287514404448
H          102.33361102982023      123.83124344889460      108.71112935843554
H          103.81483283509846      123.50349014643615      109.60275068415365
H          104.64826697544598      125.78489245439050      109.08600244462363
H          103.18349231895013      126.11397158201420      108.15875086175122
H          103.69548246101095      124.22536112967573      106.64574573925753
H          105.10933185908121      123.81514476384058      107.61268780906067
H          106.19092774975317      125.94607952560763      106.98980114535432
H          104.77125033377131      126.41374015289280      106.05099297802670
H          105.04697278829269      124.42669207441838      104.60472313113905
H          106.40934138934820      123.88765770654254      105.58049583180326
H          107.72020547528103      125.87134767583360      104.88052671414336
H          106.35980158539621      126.43584411423465      103.90940335060425
H          106.43259528223142      124.32719477268878      102.58514697360447
H          107.79453970857662      123.76395906645297      103.55070474488514
H          109.18022466132146      125.64476623164339      102.72309979592983
H          107.81643348153956      126.24988299122390      101.78469128360261
H          107.74299141942342      124.10854604139158      100.51105289611381
H          109.11229998599275      123.50797203177738      101.44127848634268
H          110.54591136094297      125.31077833268841      100.53617737037099
H          109.17713079011810      125.97136443701892       99.64313514486361
H          108.98997829691280      123.87579985992012       98.33885659792230
H          110.29947393577936      123.16308081736661       99.27897000179404
H          111.88325383562821      124.83814846922841       98.40809001405870
H          110.57616027516850      125.67524765093754       97.57505313929595
H          111.79156811046859      124.38228412113821       95.95538148823935
H          110.19561338000975      123.66077633623220       96.15114780512272
H          111.13892141689519      121.87216770018476       97.55374082795876
H          112.72557485610520      122.64135525669110       97.51804248747348
H          112.82342703785844      122.28849459891205       95.04504745579561
H          112.59994387144343      120.76336920282868       95.90400186078421
H          111.23198350970881      121.52938404515373       95.09384267383417
H          122.47733707866043      102.65167767701804      122.53230968057684
H          122.01399783511251      103.15707971378620      120.90794034828258
H          123.65792771022662      103.43787144848234      121.48308963404489
C           99.53705292221026      106.38961831153185      122.92779472525058
C           99.06930976037651      107.48920679733375      121.98416510332740
C          100.17500997009695      107.93256300304196      121.03031080619496
C           99.69073038836210      109.00411384979697      120.05811312517049
C          100.81412822079302      109.53189704015784      119.17110271569007
C          100.30961921450636      110.55142329968997      118.15424269205852
C          101.44415431473747      111.15653129837700      117.33428089374983
C          100.93410520297279      112.10765229209116      116.25604210090877
C          102.07759336407058      112.77900976884258      115.50242336412633
C          101.59054880807595      113.58324398266373      114.30098893547644
C          102.74595745905734      114.26082246707733      113.56995358979574
C          102.33689477651693      114.80865189391780      112.20559164278724
C          103.52106777456808      115.42237852262132      111.46529463691036
C          103.18907336756726      115.80896333618387      110.02714397029959
C          104.42925636358933      116.30143130222092      109.28697595658095
C          104.13807200101323      116.70410260998726      107.84400701774764
C          105.39399126108201      117.18303792006412      107.11185735862252
C          106.27529196274746      116.02583738892363      106.64598684648637
C          107.66182508802353      116.47828805569407      106.19652673701236
C          108.47747369672209      115.31670664335627      105.63207988253974
C          109.95947340236533      115.65339945880014      105.49665723306991