3258
 energy: -3427.517999116577 gnorm: 0.000660181588 xtb: 6.6.1 (8d0f1dd)
C           96.44368277267431       99.12604952267154      113.33416296508184
C           96.45820446173583      100.36130374320466      114.22718073060284
C           97.59109964527316      101.31276922799927      113.85105167102350
C           97.59223476816362      102.61245064620196      114.65463903670057
C           97.86151524953598      102.40248467201174      116.14420136652528
C           98.19122924152892      103.70147578951044      116.87843985578962
C           97.00302450482755      104.64111757696818      117.06945555809921
C           97.44666754655388      105.95197148475150      117.71706651777276
C           96.27830328528862      106.81024430094925      118.19447820699109
C           96.76425575546307      108.11938662016352      118.81153437324789
C           95.64534914625654      108.90813133319611      119.48705362739935
C           96.15069582422367      110.23750986972540      120.04420118005848
C           95.09537241757191      110.96455974869424      120.87451185832704
C           95.51560646863904      112.37767145380941      121.28451026092381
C           96.75215196803941      112.41007487745838      122.18074181558478
C           97.06692495903570      113.81632132380427      122.68751982789578
C           98.41311848099063      113.86753346255142      123.40659180458903
C           98.71919424096100      115.25031182623974      123.97645517664729
C          100.10765955670297      115.31442155804974      124.60857962372687
C          100.38006435471711      116.67087724113425      125.25592400767569
C          101.79157180672925      116.79035613564876      125.83529198553938
C          102.86022388098495      116.94800401734264      124.75679699291976
C          104.27540844834019      116.98002677164546      125.32781350102867
C          105.31299491556052      117.18737290537049      124.22751604943099
C          106.74908061663376      117.06688900060429      124.73180660114802
C          107.74807345439712      117.25462420064066      123.59363701769335
C          109.20042698102324      117.13671942893144      124.04942241012814
C          110.19484802342107      117.14215633892972      122.88637427463260
C          110.07089885194775      118.38086621063167      122.00530065497701
C          111.16498260905350      118.48320426155503      120.94728178865910
C          110.90011289883141      119.66485282764357      120.01895249491268
C          111.93403465388040      119.79843562499414      118.90654403335407
C          111.69442276158077      121.02161282961879      118.02177212698157
C          110.36984089603057      120.96942915055646      117.26494823585166
C          110.26766477894742      122.07875215788702      116.22156127589894
C          108.86706426160782      122.22189048072694      115.62654989153309
C          108.32506245154782      120.94841100722272      114.98267066283552
C          106.95247667378769      121.18890767052720      114.35893296892765
C          106.38375994144566      119.96962555126952      113.63432852364842
C          106.16751750995722      118.76854251220411      114.55308494703216
C          105.26853574865122      117.71091683917011      113.91676760411576
C          105.23995147620452      116.42641079048408      114.74091523611611
C          104.27984330826908      115.36777729795344      114.19775936138831
C          102.81527111898703      115.60997492234031      114.55377698148348
C          101.93481395925542      114.42746705866584      114.14625576420592
C          100.55900172932563      114.48986365133280      114.80325431153142
C           99.70309682126457      113.24450683393357      114.56435263270994
C           98.98778235650249      113.19862475522332      113.21341048083947
C           97.76076149454727      114.10652230472679      113.16938306134135
C           97.02251725436740      114.06902673952867      111.83056950557638
C           96.18128633980521      112.81215424954199      111.62207360086414
C           95.34748596120315      112.90181868664172      110.34566403260582
C           94.45828187282569      111.67948328145854      110.13098200733211
C           93.49739245225761      111.87584818553130      108.95977037550992
C           92.64725740082251      110.63448146388878      108.67739805965155
C           93.39003934979422      109.54990840926456      107.89279098244481
C           93.44008207945824      109.84108779049487      106.39401895978453
C           94.13540097276467      108.74299964540656      105.58875446666525
C           95.62912298693546      108.54905515491239      105.86113774806095
C           96.53448523360372      109.68944835053242      105.38030036735799
C           96.81223019146140      110.77213626415688      106.42105229661574
C           97.87449543192325      111.75795530024135      105.93773705103554
C           98.04794040856152      112.92833557301532      106.90183649648660
C           99.18772613205054      113.85690085959203      106.49002607238533
C           99.27665994943598      115.08899903269426      107.38754409229554
C          100.47740822337155      115.98122888254555      107.07477365178993
C          100.39620094256357      116.72841792568008      105.74290893421723
C           99.33691356149768      117.83142203531490      105.67864254421417
C           99.64326431894573      119.01145794111900      106.59832689785142
C           98.71176572449616      120.19839810416158      106.36007318367004
C           98.96045967676955      121.35632922684378      107.33196353080805
C           98.38563614870625      121.09119933011020      108.72171223397314
C           98.67457179909817      122.21636749795316      109.71325688880624
C           98.05346874041552      121.93026419433870      111.08005111870395
C           98.42616411940362      122.97059103587732      112.13367701297192
C           97.67418188963678      122.79054814110721      113.45448750079476
C           98.07542996964081      121.54247887736679      114.24141418363072
C           97.28533100491606      121.44138209596817      115.54539628573033
C           97.71558571787337      120.29330205926814      116.45986817312686
C           97.44306092473737      118.90086797176754      115.89135408351169
C           97.62310257733868      117.81486184103962      116.95320329805925
C           97.48189929384939      116.41054024925222      116.36852247890043
C           97.48271563534139      115.29106117983092      117.41268355770563
C           98.73991862606854      115.27776506680095      118.27942970882800
C           98.90129032029853      114.01610514388766      119.13075778360229
C           99.36465410961658      112.78471767716636      118.35331080225667
C           99.77071725015851      111.64704987704266      119.28803115135312
C          100.20705274236165      110.39201349899274      118.53621692420558
C          100.58204955323870      109.25834160154912      119.48865517164420
C          100.94957352008011      107.97705626558783      118.74536291786627
C          101.21865705425125      106.79961050046087      119.68184470741629
C          101.45042151591846      105.50835467007001      118.90033858184127
C          101.59872039579108      104.27326091307876      119.78404842746686
C          101.56264790539058      102.98809857527318      118.95848277129350
C          101.68536192417417      101.73109516826871      119.81777196545291
C          101.10943549713453      100.48074421970031      119.15398855726843
C          101.81588581345754      100.03705108175798      117.87286387849265
C          101.32659424027231       98.64937655404256      117.46072386164262
C          101.95846835168821       98.10435565573435      116.18091862604670
C          101.51905357577489       96.65891884466581      115.94827578918542
C          102.18755029645678       95.96124921770885      114.76391113420141
C          101.78718739164790       96.53226756141692      113.40733193236488
C          102.24857233209947       95.65181430751595      112.24731880878591
C          101.81290991809979       96.21738203195976      110.89815098691875
C          102.25048210261969       95.35840839421782      109.71445680523476
C          101.76652124399718       95.95152139688534      108.39164508350936
C          102.22578952861406       95.16769627866485      107.16107772264462
C          103.69932038993470       95.38011026598490      106.81953640974710
C          104.10210388093475       94.61944670975240      105.55814951464089
C          105.54651902254619       94.89929791602341      105.14916308667426
C          105.97063164618758       94.04451929713771      103.95628108830900
C          107.35474557598930       94.39036063204058      103.40477967318763
C          108.48539510459136       94.16475687111581      104.40588885393664
C          109.86171504417601       94.39964824238788      103.78688204249960
C          110.98283358432192       94.12859119201619      104.78710409630509
C          112.37259007057719       94.33278220561812      104.18998038344593
C          113.47505356070369       94.00105746292066      105.19335585824037
C          114.86949892948812       94.18273646839941      104.59992178913967
C          115.97051679994338       93.89206383648740      105.61753407536460
C          117.35899056718381       93.94550399099674      104.99066433522501
H          115.90720233578213       94.61838271902947      106.43178739459293
H          115.80896480358207       92.90132074029789      106.04947060025533
H          114.98689087351848       93.51576109628321      103.74186801859163
H          114.97489210358638       95.20819121998457      104.23665696692593
H          113.37081413009875       94.64332115153717      106.07032351521433
H          113.35916224405803       92.96653860252930      105.52728160724635
H          112.48423682593615       93.69708348253566      103.30761435119838
H          112.48127750055808       95.36999720959962      103.86513976267318
H          110.86255545336766       94.78680522827230      105.65028997683220
H          110.89755915791694       93.09984438214946      105.14694986507341
H          109.98675661295269       93.74761045850518      102.91826678217140
H          109.92844683780370       95.43180234703233      103.43465254339253
H          108.36618916332490       94.83937907539593      105.25481505623178
H          108.43017860637170       93.14062057350223      104.78387572066467
H          107.53897375095043       93.77367409929845      102.52056259016851
H          107.36263593129340       95.43302363719474      103.07838097738642
H          105.95447347592972       92.99049724910570      104.24678889230259
H          105.23796159887860       94.17399108481287      103.15473375287974
H          105.64852596023452       95.95669740847369      104.89590894583260
H          106.19904120769530       94.69380957543596      105.99964847840459
H          103.97398268239068       93.54689120512055      105.72853197829424
H          103.43633246914570       94.89808611318004      104.73666598924798
H          103.88255567615191       96.44639510573096      106.67041508328913
H          104.32496532388429       95.04693261442469      107.64870800934709
H          102.03794542560571       94.10243340727290      107.31871419785963
H          101.62412419806303       95.48037051352620      106.30297372469731
H          100.67336211604776       95.97864902770810      108.40543060575028
H          102.11699275629368       96.98308629793475      108.30613531721977
H          103.33884067141750       95.27849344291803      109.71220503736883
H          101.84776444951089       94.34823950390272      109.82592773638704
H          100.72344605890704       96.31454095307595      110.88742442960542
H          102.23533759499202       97.21705504279055      110.77617228028794
H          103.33597226701337       95.56231444771286      112.27144920956663
H          101.83464487868022       94.64722451211063      112.36816066121239
H          100.69941903178479       96.63406763824078      113.36564005126293
H          102.21782745123259       97.52711784376241      113.29467150961980
H          103.27305478477899       96.01548124878548      114.87443321812398
H          101.91011808146847       94.90473597486262      114.79147289571063
H          101.74644779740740       96.08555740903734      116.85067932761631
H          100.43419332921647       96.63333476807830      115.81108228176403
H          101.67047063594974       98.72820176688496      115.33313342794192
H          103.04762202930456       98.14054831014460      116.26659793932224
H          101.54241188758523       97.95282729830225      118.27592802157723
H          100.23993855554691       98.67345576583213      117.33801887205338
H          101.62451036917112      100.75293552907438      117.07116343919790
H          102.89362391352940      100.00282913436649      118.03978364125120
H          101.16341922753153       99.66199615635472      119.87722876603502
H          100.05265916609756      100.65290294939832      118.93255657320634
H          102.73264927367933      101.55893725642386      120.07715250128309
H          101.14381025036367      101.89115505563761      120.75462011432940
H          100.61473929160766      102.95227907499375      118.41810355177444
H          102.36197058245226      103.01143570538935      118.21593897321208
H          102.53604332077639      104.32751530718335      120.34102889609655
H          100.78314943504364      104.25091431660466      120.51235903647161
H          100.60144436576564      105.35398061746398      118.23171414938810
H          102.34283133860812      105.61337436486484      118.28027640453546
H          102.08534580118246      107.01568162222470      120.31182164798379
H          100.35728789101999      106.66602509567161      120.34164866694553
H          100.12741536064893      107.71104463685498      118.07704680167252
H          101.83051768554473      108.15825855602822      118.12524350609549
H          101.42114201702989      109.57488840813080      120.11287039275136
H           99.73718057874373      109.05825364289144      120.15236170676494
H           99.39153667275009      110.06196130689970      117.88759643529529
H          101.06139427741944      110.62680890737461      117.89635420489091
H          100.58736105680653      111.98301134165659      119.93366030463834
H           98.92603363403583      111.39707255401937      119.93352113323459
H           98.56638092444570      112.43636906475375      117.69498639836651
H          100.21872194775382      113.05074413910643      117.72598692723396
H           99.64075665380547      114.22368434331088      119.90878168871033
H           97.95676904991002      113.79405925228384      119.63171559736101
H           99.61600006037995      115.38922069167593      117.63702354660757
H           98.70782068626248      116.13821209705782      118.94877472386450
H           96.60408615133393      115.39274549512149      118.05610832516928
H           97.39670565113796      114.33962236830935      116.88404496369000
H           96.54768717848098      116.35493072447255      115.80267078145189
H           98.30009984057651      116.23802734202822      115.66736344745166
H           98.61236774165887      117.92540937397611      117.40126101428214
H           96.88145268771302      117.95715565399517      117.74388237381382
H           96.42193646640743      118.86016484714524      115.50297355900834
H           98.12244189513702      118.70399051933953      115.05958746814753
H           98.78034950667330      120.38786248909264      116.68149972239499
H           97.17480401605526      120.39430123142746      117.40528333434500
H           97.40381409053415      122.37848936791254      116.09644491858063
H           96.22269663507754      121.33345545023111      115.31111050817869
H           97.89488810400773      120.65153639473637      113.63954849334810
H           99.14322171562731      121.58821291364754      114.46841762985467
H           97.85789702050477      123.66781918602139      114.08072775001922
H           96.60035497415879      122.75541630360661      113.25090674550661
H           99.50113600762309      122.92596337900062      112.32068381558393
H           98.20136079514650      123.96572278955310      111.73963975240078
H           96.96503245237606      121.89547024073069      110.97867816859167
H           98.38481211034842      120.94632523793716      111.41557200467837
H           99.75468988199857      122.33084746024952      109.82220905829044
H           98.28173725613777      123.15964124866797      109.32427251308546
H           97.30422508080524      120.95404414785462      108.63749347649564
H           98.80361883109191      120.16462890943312      109.11727117557068
H          100.03506026267756      121.53909579815512      107.40791827141643
H           98.50206144783043      122.26432670929607      106.93073171590004
H           98.85471614357628      120.55401091406098      105.33595177506560
H           97.67137781038838      119.87377740888516      106.44964268294309
H           99.56144627255748      118.69128319399060      107.63727205809708
H          100.67315067769771      119.33581135279120      106.42745204921995
H           99.28551217124894      118.19898427493304      104.64916639835982
H           98.35419400066034      117.42331909350430      105.92161187929135
H          101.37215699698164      117.18126698239314      105.54992935814992
H          100.21032568781176      116.01092063938691      104.94098425118094
H          100.59372823468190      116.70988417756055      107.87820215113605
H          101.37802857547136      115.36134059622235      107.06684070771844
H           98.35705791369399      115.67082836101726      107.30656335722352
H           99.35375748984281      114.75627746396999      108.42670986547292
H          100.13250910932781      113.30919582295168      106.53762217011237
H           99.03999130324604      114.16228178538250      105.45196767805771
H           97.11282469279928      113.49435804661758      106.94455222748395
H           98.24315092129164      112.54154505378403      107.90441008472543
H           98.82848783880729      111.23611423838113      105.82348504449462
H           97.59353077253984      112.14030122905946      104.95268859799270
H           95.89939969127461      111.32270644394093      106.64990482040679
H           97.15225504659414      110.30384779483522      107.34749133844660
H           97.49661946033022      109.26195416734672      105.08609243818559
H           96.09931989623504      110.14421012677442      104.48766906849562
H           95.79299225457694      108.37619888618053      106.92607325957762
H           95.92546566104835      107.63581119761383      105.33778034535625
H           93.62659318965146      107.79594277571695      105.79277164520200
H           94.00513209336297      108.95638356451080      104.52413639872221
H           92.41399205722000      109.93286614364499      106.02491108623423
H           93.93160686243266      110.79606143672358      106.21204501918932
H           94.40188916430387      109.45294035494959      108.28557684292720
H           92.88458712781417      108.59202662193985      108.04123739887054
H           92.30849420366084      110.22349123332310      109.63177832091293
H           91.75617261018255      110.92510805770986      108.11499633601875
H           92.83713402555938      112.71644798656305      109.18957412386966
H           94.06523116634263      112.14439373757340      108.06713067705343
H           95.08220435153683      110.80156485840759      109.95283322179203
H           93.87693512696468      111.49074660775449      111.03803478185985
H           94.71545758758370      113.79230224082366      110.39778119140304
H           96.00961569854758      113.02188397610739      109.48466151287148
H           96.82771709818570      111.93501990741916      111.57431692060712
H           95.50969487616555      112.68641475561668      112.47608182160631
H           96.35994748433593      114.93667352820707      111.77335904372366
H           97.74644460049537      114.15319102302230      111.01594733397313
H           97.07075440159920      113.81972319397877      113.96713540729922
H           98.06920879153500      115.13482906210986      113.36413698337569
H           99.67898419558821      113.47918405481488      112.41606026415194
H           98.66933328385875      112.17111389256735      113.02631158261887
H          100.34149226679145      112.36347040880432      114.66145880119647
H           98.94688015505650      113.18450196826895      115.35008026866768
H          100.71029148021572      114.59710400804772      115.88032378175663
H          100.03017660983764      115.37893632075300      114.45898088756974
H          101.83409961144001      114.40385125322312      113.05893248290505
H          102.42401170204505      113.49944552332845      114.45390006074683
H          102.73382779070177      115.75648691052912      115.63410243958050
H          102.45302199616117      116.51915335859036      114.07067407148226
H          104.38014582235525      115.31190451500754      113.11109931178287
H          104.57183784552808      114.39767817040844      114.60671565763593
H          106.25046047152053      116.00825350692152      114.76108390829971
H          104.96727242118554      116.65883719305738      115.77403191732365
H          104.25776786739858      118.11119390705133      113.81409682027447
H          105.63443462399890      117.48554913171844      112.91220872333689
H          107.13127373442175      118.31491374926776      114.79548190187629
H          105.71694195937847      119.10458374540306      115.49058731954915
H          105.42635033287360      120.25093726941337      113.18913311684361
H          107.05333922093020      119.68469975425135      112.81889274489211
H          106.25607874183629      121.49267528394346      115.14625704651277
H          107.02127128290738      122.01981742127975      113.65000792521474
H          109.01956482868280      120.59875359824173      114.21513490444462
H          108.24036655064782      120.16861947513323      115.73948682628571
H          108.17808133878603      122.53440616773986      116.41446592321135
H          108.88722466104143      123.01595890830993      114.87434650748230
H          110.53845440049324      123.02961211265701      116.69118863777511
H          110.99026592786240      121.89332752841273      115.42381983860487
H          110.28106142042846      119.99806875752014      116.77568896294372
H          109.54079377729073      121.07221749330171      117.96776915773899
H          111.71680175840039      121.92250443778650      118.64094219563098
H          112.50820807553549      121.09504199704128      117.29605860632473
H          112.93067332604893      119.87274209894694      119.35089634605355
H          111.91717760154927      118.89709571759978      118.28805554355270
H          109.90910082095250      119.53960891185945      119.57879248832542
H          110.88630495877209      120.58539507619605      120.60597079906837
H          112.13848232806912      118.59769441649635      121.42943962393183
H          111.19200765361025      117.55986649404629      120.36257942518415
H          109.10610765627499      118.36544246333514      121.49602933971471
H          110.09392648009907      119.27478011998150      122.63376408926044
H          111.20921868500291      117.08888547718719      123.28915894868594
H          110.03871500859050      116.24940595473315      122.27518220191196
H          109.42816683239531      117.96296120954977      124.72830311756285
H          109.32274093593426      116.20666898996490      124.61090739737681
H          107.55247483928589      116.50647332488957      122.82105682511596
H          107.58038330279932      118.23918768964955      123.15373062435823
H          106.93146198040179      117.81836360700703      125.50409127272650
H          106.89267888368705      116.08389398532148      125.18822763499396
H          105.14806226449785      116.44541808946505      123.44284541364676
H          105.17045137308189      118.17342570999521      123.77792124556035
H          104.35751671881988      117.78054098039281      126.06771367050891
H          104.47541175217633      116.03665969342187      125.84220977860078
H          102.79079153355083      116.11750056916497      124.05225858226780
H          102.67535511595869      117.87251199373087      124.20291471501753
H          101.83202061780527      117.65737324067557      126.49996145326409
H          102.00988725705496      115.90573211103626      126.43829102248979
H          100.22753444779340      117.46125949197074      124.51670685400096
H           99.65176001652149      116.82775551030774      126.05598125677604
H          100.19519921616882      114.53251010870177      125.36761014715515
H          100.85420422580475      115.11330618827097      123.83859394090717
H           98.65597277681130      115.99341343363133      123.17801234800682
H           97.96555613553852      115.50865893871099      124.72509626414455
H           98.41698398866681      113.13431689058966      124.21684709023022
H           99.20204029420134      113.58421097469206      122.70589914313571
H           97.08679388497609      114.51010868079436      121.84331208460823
H           96.27590319152904      114.14747136681559      123.36527139113379
H           96.60104382574124      111.74366239853963      123.03326029842671
H           97.61581617735675      112.04438766174779      121.62400842778061
H           95.70804719570260      112.96737881577268      120.38426764261901
H           94.68280065606197      112.84995606586747      121.81266415791551
H           94.17131294123415      111.03274773221126      120.29347194738322
H           94.87537948445170      110.37895498604269      121.77089151359411
H           97.02623692080032      110.04037509437802      120.66548686564819
H           96.46543139035238      110.88103613937335      119.21922977019743
H           94.84130894792101      109.09041742429798      118.76901731564254
H           95.22608975038528      108.31164508514611      120.30184286687772
H           97.53876929221991      107.89810277395550      119.54988035242134
H           97.22509583732577      108.73476834523335      118.03528890092055
H           95.61002330439960      107.02470642180057      117.35668460227618
H           95.70334583626018      106.25223137402881      118.93866499246154
H           98.08873736543212      105.72814681141269      118.57322301943084
H           98.04342951018985      106.52079555174232      116.99897217782149
H           96.53044879901830      104.85459892318283      116.10917224944397
H           96.25798162366179      104.15357947644144      117.70425112210243
H           98.58597731239588      103.45523661249825      117.86801277135885
H           98.97658913748278      104.22622365579777      116.32847311287858
H           96.99810848163339      101.93088785259441      116.61806779370444
H           98.71094406341899      101.72160979716281      116.25112075135344
H           98.37122345242628      103.26420033782917      114.25022122800570
H           96.63314817250911      103.11680519561742      114.51868006781231
H           98.54718917701030      100.80265636064675      113.99051036597079
H           97.50255906523087      101.55907831625413      112.79000845303356
H           95.50242073795026      100.88379283246451      114.13843314281115
H           96.57001760247735      100.04708312337951      115.26659455926280
H           95.64018725423648       98.45139896813457      113.62162876855636
H           96.29711043723717       99.40832209416094      112.29336285946324
H           97.38651831138830       98.58816587089687      113.41346508907500
H          117.45553746952592       93.18877844857671      104.21485761803143
H          117.54006950632348       94.91848465286735      104.53953088017819
H          118.12620964342378       93.76675385432145      105.74089976668223
C          126.57124484848553      110.36431049603219      105.07223767218484
C          125.65182060823254      111.54006876623167      104.76351553235628
C          125.06145243488734      111.49784321592682      103.35397714261264
C          124.10409647608519      110.32954614241328      103.13346156597787
C          123.45916544804641      110.37084680777302      101.74959108205509
C          122.54877033209777      109.16670945751031      101.52450113490262
C          121.92641216326982      109.10916351235976      100.12964490561814
C          120.94054804091358      110.24635574834311       99.86949595018916
C          120.04825470984011      109.98150288686884       98.65856665770029
C          119.06426132856274      111.12795195115611       98.43387596150465
C          117.92174343490007      110.76786833809622       97.48678839486941
C          116.82825947337825      111.83205299471511       97.52030095406273
C          115.63781114416878      111.49906922932266       96.62628760330841
C          114.50654752821575      112.50641061734481       96.81408033905907
C          113.31999767437250      112.22566071603694       95.89759546615186
C          112.21050304064725      113.27070102798200       96.01272235562632
C          111.44382233423916      113.20883452903460       97.33164311639533
C          110.30621627307055      114.22499067873633       97.36533067998180
C          109.51965827426096      114.19013305596184       98.67309032402557
C          108.45239237631326      115.27975667348537       98.70596710026594
C          107.69209422150445      115.34178137341927      100.02806493196137