      -----------------------------------------------------------      
     |                   =====================                   |     
     |                           x T B                           |     
     |                   =====================                   |     
     |                         S. Grimme                         |     
     |          Mulliken Center for Theoretical Chemistry        |     
     |                    University of Bonn                     |     
      -----------------------------------------------------------      

   * xtb version 6.6.1 (8d0f1dd) compiled by 'stahn@M-Bot' on 2023-08-01

   xtb is free software: you can redistribute it and/or modify it under
   the terms of the GNU Lesser General Public License as published by
   the Free Software Foundation, either version 3 of the License, or
   (at your option) any later version.
   
   xtb is distributed in the hope that it will be useful,
   but WITHOUT ANY WARRANTY; without even the implied warranty of
   MERCHANTABILITY or FITNESS FOR A PARTICULAR PURPOSE.  See the
   GNU Lesser General Public License for more details.
   
   Cite this work as:
   * C. Bannwarth, E. Caldeweyher, S. Ehlert, A. Hansen, P. Pracht,
     J. Seibert, S. Spicher, S. Grimme, WIREs Comput. Mol. Sci., 2020, 11,
     e01493. DOI: 10.1002/wcms.1493
   
   for GFN2-xTB:
   * C. Bannwarth, S. Ehlert and S. Grimme., J. Chem. Theory Comput., 2019,
     15, 1652-1671. DOI: 10.1021/acs.jctc.8b01176
   for GFN1-xTB:
   * S. Grimme, C. Bannwarth, P. Shushkov, J. Chem. Theory Comput., 2017,
     13, 1989-2009. DOI: 10.1021/acs.jctc.7b00118
   for GFN0-xTB:
   * P. Pracht, E. Caldeweyher, S. Ehlert, S. Grimme, ChemRxiv, 2019, preprint.
     DOI: 10.26434/chemrxiv.8326202.v1
   for GFN-FF:
   * S. Spicher and S. Grimme, Angew. Chem. Int. Ed., 2020, 59, 15665-15673.
     DOI: 10.1002/anie.202004239
   
   for ALPB and GBSA implicit solvation:
   * S. Ehlert, M. Stahn, S. Spicher, S. Grimme, J. Chem. Theory Comput.,
     2021, 17, 4250-4261. DOI: 10.1021/acs.jctc.1c00471
   
   for DFT-D4:
   * E. Caldeweyher, C. Bannwarth and S. Grimme, J. Chem. Phys., 2017,
     147, 034112. DOI: 10.1063/1.4993215
   * E. Caldeweyher, S. Ehlert, A. Hansen, H. Neugebauer, S. Spicher,
     C. Bannwarth and S. Grimme, J. Chem. Phys., 2019, 150, 154122.
     DOI: 10.1063/1.5090222
   * E. Caldeweyher, J.-M. Mewes, S. Ehlert and S. Grimme, Phys. Chem. Chem. Phys.
     2020, 22, 8499-8512. DOI: 10.1039/D0CP00502A
   
   for sTDA-xTB:
   * S. Grimme and C. Bannwarth, J. Chem. Phys., 2016, 145, 054103.
     DOI: 10.1063/1.4959605
   
   in the mass-spec context:
   * V. Asgeirsson, C. Bauer and S. Grimme, Chem. Sci., 2017, 8, 4879.
     DOI: 10.1039/c7sc00601b
   * J. Koopman and S. Grimme, ACS Omega 2019, 4, 12, 15120-15133.
     DOI: 10.1021/acsomega.9b02011
   
   for metadynamics refer to:
   * S. Grimme, J. Chem. Theory Comput., 2019, 155, 2847-2862
     DOI: 10.1021/acs.jctc.9b00143
   
   for SPH calculations refer to:
   * S. Spicher and S. Grimme, J. Chem. Theory Comput., 2021, 17, 1701-1714
     DOI: 10.1021/acs.jctc.0c01306
   
   with help from (in alphabetical order)
   P. Atkinson, C. Bannwarth, F. Bohle, G. Brandenburg, E. Caldeweyher
   M. Checinski, S. Dohm, S. Ehlert, S. Ehrlich, I. Gerasimov, C. Hölzer
   A. Katbashev, J. Koopman, C. Lavigne, S. Lehtola, F. März, M. Müller,
   F. Musil, H. Neugebauer, J. Pisarek, C. Plett, P. Pracht, F. Pultar,
   J. Seibert, P. Shushkov, S. Spicher, M. Stahn, M. Steiner, T. Strunk,
   J. Stückrath, T. Rose, and J. Unsleber
   
 * started run on 2024/06/17 at 15:17:36.528     

           -------------------------------------------------
          |                Calculation Setup                |
           -------------------------------------------------

          program call               : /home/abt-grimme/AK-bin/xtb input.xyz --input input.inp --opt --gbsa water
          hostname                   : boar078.thch.uni-bonn.de
          coordinate file            : input.xyz
          omp threads                :                     8

   ID    Z sym.   atoms
    1    6 C      1-120, 363-482, 725-844, 1087-1206, 1449-1568, 1811-1930,
                  2173-2292, 2535-2654, 2897-3016
    2    1 H      121-362, 483-724, 845-1086, 1207-1448, 1569-1810,
                  1931-2172, 2293-2534, 2655-2896, 3017-3258

molecular fragmentation (1/2 indicates fragments):
111111111111111111111111111111111111111111111111111111111111111111111111
111111111111111111111111111111111111111111111111111111111111111111111111
111111111111111111111111111111111111111111111111111111111111111111111111
111111111111111111111111111111111111111111111111111111111111111111111111
111111111111111111111111111111111111111111111111111111111111111111111111
112222222222222222222222222222222222222222222222222222222222222222222222
222222222222222222222222222222222222222222222222222222222222222222222222
222222222222222222222222222222222222222222222222222222222222222222222222
222222222222222222222222222222222222222222222222222222222222222222222222
222222222222222222222222222222222222222222222222222222222222222222222222
222222222222222222222222222222222222222222222222222222222222222222222222
222222222222222222222222222222222222222222222222222222222222222222222222
222222222222222222222222222222222222222222222222222222222222222222222222
222222222222222222222222222222222222222222222222222222222222222222222222
222222222222222222222222222222222222222222222222222222222222222222222222
222222222222222222222222222222222222222222222222222222222222222222222222
222222222222222222222222222222222222222222222222222222222222222222222222
222222222222222222222222222222222222222222222222222222222222222222222222
222222222222222222222222222222222222222222222222222222222222222222222222
222222222222222222222222222222222222222222222222222222222222222222222222
222222222222222222222222222222222222222222222222222222222222222222222222
222222222222222222222222222222222222222222222222222222222222222222222222
222222222222222222222222222222222222222222222222222222222222222222222222
222222222222222222222222222222222222222222222222222222222222222222222222
222222222222222222222222222222222222222222222222222222222222222222222222
222222222222222222222222222222222222222222222222222222222222222222222222
222222222222222222222222222222222222222222222222222222222222222222222222
222222222222222222222222222222222222222222222222222222222222222222222222
222222222222222222222222222222222222222222222222222222222222222222222222
222222222222222222222222222222222222222222222222222222222222222222222222
222222222222222222222222222222222222222222222222222222222222222222222222
222222222222222222222222222222222222222222222222222222222222222222222222
222222222222222222222222222222222222222222222222222222222222222222222222
222222222222222222222222222222222222222222222222222222222222222222222222
222222222222222222222222222222222222222222222222222222222222222222222222
222222222222222222222222222222222222222222222222222222222222222222222222
222222222222222222222222222222222222222222222222222222222222222222222222
222222222222222222222222222222222222222222222222222222222222222222222222
222222222222222222222222222222222222222222222222222222222222222222222222
222222222222222222222222222222222222222222222222222222222222222222222222
222222222222222222222222222222222222222222222222222222222222222222222222
222222222222222222222222222222222222222222222222222222222222222222222222
222222222222222222222222222222222222222222222222222222222222222222222222
222222222222222222222222222222222222222222222222222222222222222222222222
222222222222222222222222222222222222222222222222222222222222222222222222
222222222222222222
# atoms in fragment 1/2:   362  2896
 fragment masses (1/2) :     1685.21    13481.68
CMA distance (Bohr)    :  17.586
constraining FC (au)   :  0.0500

           -------------------------------------------------
          |                 G F N 2 - x T B                 |
           -------------------------------------------------

        Reference                      10.1021/acs.jctc.8b01176
      * Hamiltonian:
        H0-scaling (s, p, d)           1.850000    2.230000    2.230000
        zeta-weighting                 0.500000
      * Dispersion:
        s8                             2.700000
        a1                             0.520000
        a2                             5.000000
        s9                             5.000000
      * Repulsion:
        kExp                           1.500000    1.000000
        rExp                           1.000000
      * Coulomb:
        alpha                          2.000000
        third order                    shell-resolved
        anisotropic                    true
        a3                             3.000000
        a5                             4.000000
        cn-shift                       1.200000
        cn-exp                         4.000000
        max-rad                        5.000000

      * Solvation model:               GBSA
        Solvent                        water
        Parameter file                 internal GFN2-xTB/GBSA
        Dielectric constant                8.0200E+01
        Reference state                gsolv [1 M gas/solution]
        Free energy shift                  1.8574E-03 Eh       1.1656E+00 kcal/mol
        Temperature                        2.9815E+02 K
        Density                            1.0000E+00 kg/L
        Solvent mass                       1.8000E+01 g/mol
        Interaction kernel             Still
        Born radius scaling (c1)           1.5524E+00
        Born radii integrator          GBOBC
        Born offset                        2.4628E-02 a0       4.6540E-02 AA
        H-bond correction              true
        Ion screening                  false
        Surface tension                    1.0000E-05 Eh       1.5569E+01 dyn/cm
        Grid points                               230 per atom
q/qsh data taken from xtbrestart
CAMM data taken from xtbrestart

          ...................................................
          :                      SETUP                      :
          :.................................................:
          :  # basis functions                6498          :
          :  # atomic orbitals                6498          :
          :  # shells                         4338          :
          :  # electrons                      6498          :
          :  max. iterations                   250          :
          :  Hamiltonian                  GFN2-xTB          :
          :  restarted?                       true          :
          :  GBSA solvation                   true          :
          :  PC potential                    false          :
          :  electronic temp.          300.0000000     K    :
          :  accuracy                    1.0000000          :
          :  -> integral cutoff          0.2500000E+02      :
          :  -> integral neglect         0.1000000E-07      :
          :  -> SCF convergence          0.1000000E-05 Eh   :
          :  -> wf. convergence          0.1000000E-03 e    :
          :  Broyden damping             0.4000000          :
          ...................................................

 iter      E             dE          RMSdq      gap      omega  full diag
   1  -3472.3070122 -0.347231E+04  0.736E-05   10.93       0.0  T
   2  -3472.3070122 -0.395403E-08  0.580E-05   10.93      30.2  T
   3  -3472.3070122 -0.593263E-08  0.295E-05   10.93      59.4  T

   *** convergence criteria satisfied after 3 iterations ***

         #    Occupation            Energy/Eh            Energy/eV
      -------------------------------------------------------------
         1        2.0000           -0.6164178             -16.7736
       ...           ...                  ...                  ...
      3243        2.0000           -0.3857180             -10.4959
      3244        2.0000           -0.3853828             -10.4868
      3245        2.0000           -0.3851219             -10.4797
      3246        2.0000           -0.3849240             -10.4743
      3247        2.0000           -0.3844788             -10.4622
      3248        2.0000           -0.3835456             -10.4368
      3249        2.0000           -0.3823258             -10.4036 (HOMO)
      3250                          0.0194607               0.5296 (LUMO)
      3251                          0.0201389               0.5480
      3252                          0.0204486               0.5564
      3253                          0.0204634               0.5568
      3254                          0.0209318               0.5696
       ...                                ...                  ...
      6498                          0.3782546              10.2928
      -------------------------------------------------------------
                  HL-Gap            0.4017865 Eh           10.9332 eV
             Fermi-level           -0.1814326 Eh           -4.9370 eV

 SCC (total)                   0 d,  0 h,  7 min, 33.796 sec
 SCC setup                      ...        0 min,  1.661 sec (  0.366%)
 Dispersion                     ...        0 min,  3.617 sec (  0.797%)
 classical contributions        ...        0 min,  0.139 sec (  0.031%)
 integral evaluation            ...        0 min,  5.887 sec (  1.297%)
 iterations                     ...        3 min,  6.150 sec ( 41.021%)
 molecular gradient             ...        4 min,  7.736 sec ( 54.592%)
 printout                       ...        0 min,  8.606 sec (  1.896%)

         :::::::::::::::::::::::::::::::::::::::::::::::::::::
         ::                     SUMMARY                     ::
         :::::::::::::::::::::::::::::::::::::::::::::::::::::
         :: total energy           -3426.798492646099 Eh    ::
         :: total w/o Gsasa/hb     -3426.713939904212 Eh    ::
         :: gradient norm              0.633111331876 Eh/a0 ::
         :: HOMO-LUMO gap             10.933167108912 eV    ::
         ::.................................................::
         :: SCC energy             -3472.307012197154 Eh    ::
         :: -> isotropic ES            0.278016972526 Eh    ::
         :: -> anisotropic ES          1.273921105145 Eh    ::
         :: -> anisotropic XC          2.132086519467 Eh    ::
         :: -> dispersion             -4.303217283832 Eh    ::
         :: -> Gsolv                  -0.019990473525 Eh    ::
         ::    -> Gelec                0.064562268363 Eh    ::
         ::    -> Gsasa               -0.082873174275 Eh    ::
         ::    -> Ghb                 -0.003537010740 Eh    ::
         ::    -> Gshift               0.001857443127 Eh    ::
         :: repulsion energy          44.778176940270 Eh    ::
         :: add. restraining           0.000000000000 Eh    ::
         :: total charge              -0.000000000011 e     ::
         :::::::::::::::::::::::::::::::::::::::::::::::::::::

      ----------------------------------------------------------- 
     |              Fast Inertial Relaxation Engine              |
      ----------------------------------------------------------- 

          ...................................................
          :                      SETUP                      :
          :.................................................:
          :   energy convergence        0.5000000E-05 Eh    :
          :   grad. convergence         0.1000000E-02 Eh/a0 :
          :   optimization log               true           :
          :   writing optlog all                1     steps :
          :   Hessian reset                    20     steps :
          :   time step scaling                 5     steps :
          :   maximium step len.        1.0000000     a0    :
          :   initial time step         0.2500000     fs    :
          :   maximum time step         1.2500000     fs    :
          :   power reset thr           0.0000000     au    :
          :   alpha parameter           0.1000000           :
          :   BFGS update                   false           :
          :   preconditioning               false           :
          ...................................................

........................................................................
.............................. CYCLE    1 ..............................
........................................................................

 iter      E             dE          RMSdq      gap      omega  full diag
   1  -3472.5404545 -0.347254E+04  0.746E-03   10.94       0.0  T
   2  -3472.5404985 -0.440114E-04  0.393E-03   10.94       1.0  T
   3  -3472.5404990 -0.437458E-06  0.182E-03   10.94       1.0  T
   4  -3472.5404991 -0.162941E-06  0.227E-04   10.94       7.7  T
   5  -3472.5404992 -0.396890E-07  0.146E-04   10.94      12.0  T
     SCC iter.                  ...        5 min,  0.481 sec
     gradient                   ...        4 min,  7.147 sec
 * total energy  : -3426.8439313 Eh     change    :  -0.4543861E-01 Eh
   gradient norm :     0.5992590 Eh/a0  converged?    E=F G=F D=F
   time step     :     0.2500000 fs     power     :   0.2344825E-05
   step length   :     0.0741993 a0     speed     :   0.7179181E-02

........................................................................
.............................. CYCLE    2 ..............................
........................................................................

 iter      E             dE          RMSdq      gap      omega  full diag
   1  -3472.8846443 -0.347288E+04  0.109E-02   10.94       0.0  T
   2  -3472.8847388 -0.944832E-04  0.574E-03   10.94       1.0  T
   3  -3472.8847398 -0.101027E-05  0.266E-03   10.94       1.0  T
   4  -3472.8847402 -0.402650E-06  0.353E-04   10.94       5.0  T
   5  -3472.8847403 -0.956989E-07  0.235E-04   10.94       7.4  T
     SCC iter.                  ...        4 min, 54.552 sec
     gradient                   ...        4 min,  5.124 sec
 * total energy  : -3426.9064885 Eh     change    :  -0.6255728E-01 Eh
   gradient norm :     0.5506388 Eh/a0  converged?    E=F G=F D=F
   time step     :     0.2500000 fs     power     :   0.3175283E-05
   step length   :     0.1091470 a0     speed     :   0.1056056E-01

........................................................................
.............................. CYCLE    3 ..............................
........................................................................

 iter      E             dE          RMSdq      gap      omega  full diag
   1  -3473.3304677 -0.347333E+04  0.140E-02   10.94       0.0  T
   2  -3473.3306216 -0.153925E-03  0.735E-03   10.94       1.0  T
   3  -3473.3306233 -0.173444E-05  0.340E-03   10.94       1.0  T
   4  -3473.3306240 -0.688144E-06  0.464E-04   10.94       3.8  T
   5  -3473.3306242 -0.160469E-06  0.311E-04   10.94       5.6  T
     SCC iter.                  ...        4 min, 53.150 sec
     gradient                   ...        4 min,  2.208 sec
 * total energy  : -3426.9796460 Eh     change    :  -0.7315750E-01 Eh
   gradient norm :     0.4898658 Eh/a0  converged?    E=F G=F D=F
   time step     :     0.2500000 fs     power     :   0.3641859E-05
   step length   :     0.1412752 a0     speed     :   0.1366913E-01

........................................................................
.............................. CYCLE    4 ..............................
........................................................................

 iter      E             dE          RMSdq      gap      omega  full diag
   1  -3473.8663790 -0.347387E+04  0.166E-02   10.95       0.0  T
   2  -3473.8665913 -0.212301E-03  0.871E-03   10.95       1.0  T
   3  -3473.8665939 -0.255345E-05  0.398E-03   10.95       1.0  T
   4  -3473.8665948 -0.982483E-06  0.559E-04   10.94       3.1  T
   5  -3473.8665951 -0.223051E-06  0.374E-04   10.94       4.7  T
     SCC iter.                  ...        5 min,  0.267 sec
     gradient                   ...        4 min,  3.248 sec
 * total energy  : -3427.0560689 Eh     change    :  -0.7642290E-01 Eh
   gradient norm :     0.4213672 Eh/a0  converged?    E=F G=F D=F
   time step     :     0.2500000 fs     power     :   0.3714493E-05
   step length   :     0.1697062 a0     speed     :   0.1641999E-01

........................................................................
.............................. CYCLE    5 ..............................
........................................................................

 iter      E             dE          RMSdq      gap      omega  full diag
   1  -3474.4785017 -0.347448E+04  0.186E-02   10.95       0.0  T
   2  -3474.4787605 -0.258809E-03  0.975E-03   10.95       1.0  T
   3  -3474.4787639 -0.340779E-05  0.439E-03   10.94       1.0  T
   4  -3474.4787651 -0.124480E-05  0.639E-04   10.94       2.7  T
   5  -3474.4787654 -0.271251E-06  0.424E-04   10.94       4.1  T
   6  -3474.4787656 -0.173706E-06  0.193E-04   10.94       9.1  T
     SCC iter.                  ...        5 min, 52.056 sec
     gradient                   ...        4 min,  2.994 sec
 * total energy  : -3427.1286489 Eh     change    :  -0.7257992E-01 Eh
   gradient norm :     0.3519251 Eh/a0  converged?    E=F G=F D=F
   time step     :     0.2500000 fs     power     :   0.3422541E-05
   step length   :     0.1936977 a0     speed     :   0.1874129E-01

........................................................................
.............................. CYCLE    6 ..............................
........................................................................

 iter      E             dE          RMSdq      gap      omega  full diag
   1  -3475.2239975 -0.347522E+04  0.220E-02   10.94       0.0  T
   2  -3475.2243440 -0.346530E-03  0.116E-02   10.94       1.0  T
   3  -3475.2243491 -0.510640E-05  0.507E-03   10.94       1.0  T
   4  -3475.2243508 -0.166122E-05  0.761E-04   10.94       2.3  T
   5  -3475.2243511 -0.341127E-06  0.491E-04   10.94       3.6  T
   6  -3475.2243513 -0.193807E-06  0.205E-04   10.94       8.5  T
     SCC iter.                  ...        6 min,  7.125 sec
     gradient                   ...        4 min,  3.054 sec
 * total energy  : -3427.1975239 Eh     change    :  -0.6887504E-01 Eh
   gradient norm :     0.2851303 Eh/a0  converged?    E=F G=F D=F
   time step     :     0.2750000 fs     power     :   0.2773415E-05
   step length   :     0.2359968 a0     speed     :   0.2075815E-01

........................................................................
.............................. CYCLE    7 ..............................
........................................................................

 iter      E             dE          RMSdq      gap      omega  full diag
   1  -3476.0973477 -0.347610E+04  0.251E-02   10.94       0.0  T
   2  -3476.0977547 -0.406964E-03  0.132E-02   10.94       1.0  T
   3  -3476.0977621 -0.742005E-05  0.551E-03   10.94       1.0  T
   4  -3476.0977642 -0.213285E-05  0.892E-04   10.94       2.0  T
   5  -3476.0977646 -0.387880E-06  0.563E-04   10.94       3.1  T
   6  -3476.0977648 -0.215877E-06  0.214E-04   10.93       8.2  T
     SCC iter.                  ...        5 min, 49.743 sec
     gradient                   ...        4 min,  1.458 sec
 * total energy  : -3427.2545273 Eh     change    :  -0.5700340E-01 Eh
   gradient norm :     0.2415464 Eh/a0  converged?    E=F G=F D=F
   time step     :     0.3025000 fs     power     :   0.1865928E-05
   step length   :     0.2779704 a0     speed     :   0.2222738E-01

........................................................................
.............................. CYCLE    8 ..............................
........................................................................

 iter      E             dE          RMSdq      gap      omega  full diag
   1  -3477.0619184 -0.347706E+04  0.275E-02   10.94       0.0  T
   2  -3477.0623076 -0.389237E-03  0.146E-02   10.94       1.0  T
   3  -3477.0623176 -0.100063E-04  0.542E-03   10.93       1.0  T
   4  -3477.0623200 -0.236941E-05  0.996E-04   10.93       1.8  T
   5  -3477.0623203 -0.352700E-06  0.608E-04   10.93       2.9  T
   6  -3477.0623205 -0.196316E-06  0.197E-04   10.93       8.9  T
     SCC iter.                  ...        5 min, 48.264 sec
     gradient                   ...        4 min,  2.139 sec
 * total energy  : -3427.2942521 Eh     change    :  -0.3972482E-01 Eh
   gradient norm :     0.2370080 Eh/a0  converged?    E=F G=F D=F
   time step     :     0.3327500 fs     power     :   0.9465456E-06
   step length   :     0.3135764 a0     speed     :   0.2279504E-01

........................................................................
.............................. CYCLE    9 ..............................
........................................................................

 iter      E             dE          RMSdq      gap      omega  full diag
   1  -3478.0410900 -0.347804E+04  0.292E-02   10.93       0.0  T
   2  -3478.0413665 -0.276574E-03  0.159E-02   10.93       1.0  T
   3  -3478.0413787 -0.121522E-04  0.456E-03   10.93       1.0  T
   4  -3478.0413808 -0.210990E-05  0.104E-03   10.93       1.7  T
   5  -3478.0413810 -0.225417E-06  0.599E-04   10.93       2.9  T
   6  -3478.0413812 -0.134201E-06  0.150E-04   10.93      11.7  T
     SCC iter.                  ...        5 min, 51.404 sec
     gradient                   ...        4 min,  3.814 sec
 * total energy  : -3427.3174929 Eh     change    :  -0.2324074E-01 Eh
   gradient norm :     0.2522316 Eh/a0  converged?    E=F G=F D=F
   time step     :     0.3660250 fs     power     :   0.2809722E-06
   step length   :     0.3370330 a0     speed     :   0.2227290E-01

........................................................................
.............................. CYCLE   10 ..............................
........................................................................

 iter      E             dE          RMSdq      gap      omega  full diag
   1  -3478.9411906 -0.347894E+04  0.312E-02   10.93       0.0  T
   2  -3478.9413213 -0.130723E-03  0.176E-02   10.93       1.0  T
   3  -3478.9413344 -0.131618E-04  0.294E-03   10.93       1.0  T
   4  -3478.9413360 -0.154722E-05  0.104E-03   10.93       1.7  T
   5  -3478.9413361 -0.754253E-07  0.524E-04   10.93       3.3  T
   6  -3478.9413361 -0.707437E-07  0.812E-05   10.93      21.6  T
     SCC iter.                  ...        5 min, 56.870 sec
     gradient                   ...        4 min,  4.224 sec
 * total energy  : -3427.3292289 Eh     change    :  -0.1173608E-01 Eh
   gradient norm :     0.2528366 Eh/a0  converged?    E=F G=F D=F
   time step     :     0.4026275 fs     power     :  -0.9831497E-07
   step length   :     0.3497071 a0     speed     :   0.2100952E-01

........................................................................
.............................. CYCLE   11 ..............................
........................................................................
 * reset velocities

 iter      E             dE          RMSdq      gap      omega  full diag
   1  -3478.9241544 -0.347892E+04  0.117E-03   10.93       0.0  T
   2  -3478.9241552 -0.799862E-06  0.671E-04   10.93       2.6  T
   3  -3478.9241552 -0.398131E-08  0.268E-04   10.93       6.5  T
     SCC iter.                  ...        3 min,  9.954 sec
     gradient                   ...        4 min,  2.840 sec
 * total energy  : -3427.3316237 Eh     change    :  -0.2394707E-02 Eh
   gradient norm :     0.2457120 Eh/a0  converged?    E=F G=F D=F
   time step     :     0.2013138 fs     power     :   0.1555956E-06
   step length   :     0.0096072 a0     speed     :   0.1154352E-02

........................................................................
.............................. CYCLE   12 ..............................
........................................................................

 iter      E             dE          RMSdq      gap      omega  full diag
   1  -3478.8902320 -0.347889E+04  0.230E-03   10.93       0.0  T
   2  -3478.8902351 -0.309465E-05  0.132E-03   10.93       1.3  T
   3  -3478.8902351 -0.185260E-07  0.527E-04   10.93       3.3  T
   4  -3478.8902352 -0.907676E-08  0.459E-05   10.93      38.2  T
     SCC iter.                  ...        3 min, 58.694 sec
     gradient                   ...        4 min,  4.445 sec
 * total energy  : -3427.3361460 Eh     change    :  -0.4522355E-02 Eh
   gradient norm :     0.2317504 Eh/a0  converged?    E=F G=F D=F
   time step     :     0.2013138 fs     power     :   0.2893458E-06
   step length   :     0.0189436 a0     speed     :   0.2276166E-02

........................................................................
.............................. CYCLE   13 ..............................
........................................................................

 iter      E             dE          RMSdq      gap      omega  full diag
   1  -3478.8404458 -0.347884E+04  0.336E-03   10.93       0.0  T
   2  -3478.8404525 -0.670244E-05  0.193E-03   10.93       1.0  T
   3  -3478.8404525 -0.474624E-07  0.777E-04   10.93       2.3  T
   4  -3478.8404525 -0.258742E-07  0.779E-05   10.93      22.5  T
     SCC iter.                  ...        4 min,  7.493 sec
     gradient                   ...        4 min,  4.336 sec
 * total energy  : -3427.3422936 Eh     change    :  -0.6147548E-02 Eh
   gradient norm :     0.2114092 Eh/a0  converged?    E=F G=F D=F
   time step     :     0.2013138 fs     power     :   0.3865105E-06
   step length   :     0.0277488 a0     speed     :   0.3334161E-02

........................................................................
.............................. CYCLE   14 ..............................
........................................................................

 iter      E             dE          RMSdq      gap      omega  full diag
   1  -3478.7761090 -0.347878E+04  0.432E-03   10.93       0.0  T
   2  -3478.7761201 -0.111544E-04  0.248E-03   10.93       1.0  T
   3  -3478.7761202 -0.836899E-07  0.100E-03   10.93       1.7  T
   4  -3478.7761203 -0.464720E-07  0.105E-04   10.93      16.7  T
   5  -3478.7761203 -0.127784E-07  0.733E-05   10.93      23.9  T
     SCC iter.                  ...        4 min, 55.293 sec
     gradient                   ...        4 min,  4.038 sec
 * total energy  : -3427.3493878 Eh     change    :  -0.7094270E-02 Eh
   gradient norm :     0.1854101 Eh/a0  converged?    E=F G=F D=F
   time step     :     0.2013138 fs     power     :   0.4366401E-06
   step length   :     0.0357786 a0     speed     :   0.4298977E-02

........................................................................
.............................. CYCLE   15 ..............................
........................................................................

 iter      E             dE          RMSdq      gap      omega  full diag
   1  -3478.6989763 -0.347870E+04  0.515E-03   10.93       0.0  T
   2  -3478.6989922 -0.159589E-04  0.296E-03   10.93       1.0  T
   3  -3478.6989923 -0.111781E-06  0.120E-03   10.93       1.5  T
   4  -3478.6989924 -0.604709E-07  0.119E-04   10.93      14.7  T
   5  -3478.6989924 -0.168161E-07  0.818E-05   10.93      21.4  T
     SCC iter.                  ...        4 min, 58.504 sec
     gradient                   ...        4 min,  2.482 sec
 * total energy  : -3427.3566546 Eh     change    :  -0.7266749E-02 Eh
   gradient norm :     0.1547944 Eh/a0  converged?    E=F G=F D=F
   time step     :     0.2013138 fs     power     :   0.4349590E-06
   step length   :     0.0428125 a0     speed     :   0.5144128E-02

........................................................................
.............................. CYCLE   16 ..............................
........................................................................

 iter      E             dE          RMSdq      gap      omega  full diag
   1  -3478.6112452 -0.347861E+04  0.581E-03   10.93       0.0  T
   2  -3478.6112658 -0.205511E-04  0.335E-03   10.93       1.0  T
   3  -3478.6112659 -0.142322E-06  0.136E-03   10.93       1.3  T
   4  -3478.6112660 -0.767568E-07  0.135E-04   10.93      13.0  T
   5  -3478.6112660 -0.214932E-07  0.918E-05   10.93      19.1  T
     SCC iter.                  ...        5 min,  6.822 sec
     gradient                   ...        4 min,  4.208 sec
 * total energy  : -3427.3633168 Eh     change    :  -0.6662203E-02 Eh
   gradient norm :     0.1209669 Eh/a0  converged?    E=F G=F D=F
   time step     :     0.2013138 fs     power     :   0.3828517E-06
   step length   :     0.0486599 a0     speed     :   0.5846730E-02

........................................................................
.............................. CYCLE   17 ..............................
........................................................................

 iter      E             dE          RMSdq      gap      omega  full diag
   1  -3478.5051665 -0.347851E+04  0.697E-03   10.94       0.0  T
   2  -3478.5051964 -0.299276E-04  0.401E-03   10.94       1.0  T
   3  -3478.5051966 -0.202424E-06  0.164E-03   10.94       1.1  T
   4  -3478.5051967 -0.108044E-06  0.160E-04   10.94      11.0  T
   5  -3478.5051967 -0.306459E-07  0.108E-04   10.94      16.3  T
     SCC iter.                  ...        4 min, 54.634 sec
     gradient                   ...        4 min,  4.683 sec
 * total energy  : -3427.3691596 Eh     change    :  -0.5842837E-02 Eh
   gradient norm :     0.0827082 Eh/a0  converged?    E=F G=F D=F
   time step     :     0.2214451 fs     power     :   0.2762362E-06
   step length   :     0.0589697 a0     speed     :   0.6441363E-02

........................................................................
.............................. CYCLE   18 ..............................
........................................................................

 iter      E             dE          RMSdq      gap      omega  full diag
   1  -3478.3824596 -0.347838E+04  0.799E-03   10.94       0.0  T
   2  -3478.3824996 -0.399988E-04  0.461E-03   10.94       1.0  T
   3  -3478.3824998 -0.266910E-06  0.190E-03   10.94       1.0  T
   4  -3478.3825000 -0.140419E-06  0.183E-04   10.94       9.6  T
   5  -3478.3825000 -0.404243E-07  0.121E-04   10.94      14.5  T
     SCC iter.                  ...        4 min, 57.227 sec
     gradient                   ...        4 min,  3.530 sec
 * total energy  : -3427.3730141 Eh     change    :  -0.3854506E-02 Eh
   gradient norm :     0.0494630 Eh/a0  converged?    E=F G=F D=F
   time step     :     0.2435896 fs     power     :   0.1210453E-06
   step length   :     0.0689576 a0     speed     :   0.6847604E-02

........................................................................
.............................. CYCLE   19 ..............................
........................................................................

 iter      E             dE          RMSdq      gap      omega  full diag
   1  -3478.2529248 -0.347825E+04  0.839E-03   10.94       0.0  T
   2  -3478.2529698 -0.449905E-04  0.486E-03   10.94       1.0  T
   3  -3478.2529701 -0.298863E-06  0.202E-03   10.94       1.0  T
   4  -3478.2529703 -0.151456E-06  0.192E-04   10.94       9.1  T
   5  -3478.2529703 -0.451123E-07  0.122E-04   10.94      14.3  T
     SCC iter.                  ...        4 min, 53.622 sec
     gradient                   ...        4 min,  4.294 sec
 * total energy  : -3427.3739340 Eh     change    :  -0.9198595E-03 Eh
   gradient norm :     0.0548783 Eh/a0  converged?    E=F G=F D=F
   time step     :     0.2679486 fs     power     :  -0.4479435E-07
   step length   :     0.0758721 a0     speed     :   0.6849294E-02

........................................................................
.............................. CYCLE   20 ..............................
........................................................................
 * reset velocities

 iter      E             dE          RMSdq      gap      omega  full diag
   1  -3478.2541532 -0.347825E+04  0.123E-04   10.94       0.0  T
   2  -3478.2541532 -0.644832E-08  0.810E-05   10.94      21.6  T
   3  -3478.2541532 -0.449336E-08  0.375E-05   10.94      46.7  T
     SCC iter.                  ...        2 min, 58.766 sec
     gradient                   ...        4 min,  2.973 sec
 * total energy  : -3427.3739845 Eh     change    :  -0.5051093E-04 Eh
   gradient norm :     0.0545171 Eh/a0  converged?    E=F G=F D=T
   time step     :     0.1339743 fs     power     :   0.4986651E-08
   step length   :     0.0009235 a0     speed     :   0.1667426E-03
 * RMSD in coord.:     0.0347480 a0     energy gain  -0.5754918E+00 Eh

........................................................................
.............................. CYCLE   21 ..............................
........................................................................

 iter      E             dE          RMSdq      gap      omega  full diag
   1  -3478.2604107 -0.347826E+04  0.547E-04   10.94       0.0  T
   2  -3478.2604108 -0.838381E-07  0.311E-04   10.94       5.6  T
   3  -3478.2604108 -0.723048E-09  0.839E-05   10.94      20.9  T
     SCC iter.                  ...        2 min, 56.733 sec
     gradient                   ...        4 min,  1.645 sec
 * total energy  : -3427.3742482 Eh     change    :  -0.2637345E-03 Eh
   gradient norm :     0.0527882 Eh/a0  converged?    E=F G=F D=F
   time step     :     0.2500000 fs     power     :   0.1377084E-07
   step length   :     0.0049180 a0     speed     :   0.4758390E-03

........................................................................
.............................. CYCLE   22 ..............................
........................................................................

 iter      E             dE          RMSdq      gap      omega  full diag
   1  -3478.2704219 -0.347827E+04  0.892E-04   10.94       0.0  T
   2  -3478.2704221 -0.214732E-06  0.508E-04   10.94       3.4  T
   3  -3478.2704221 -0.410364E-08  0.135E-04   10.94      13.0  T
     SCC iter.                  ...        2 min, 56.983 sec
     gradient                   ...        4 min,  3.712 sec
 * total energy  : -3427.3746600 Eh     change    :  -0.4117593E-03 Eh
   gradient norm :     0.0501669 Eh/a0  converged?    E=F G=F D=F
   time step     :     0.2500000 fs     power     :   0.2126467E-07
   step length   :     0.0080100 a0     speed     :   0.7750136E-03

........................................................................
.............................. CYCLE   23 ..............................
........................................................................

 iter      E             dE          RMSdq      gap      omega  full diag
   1  -3478.2836977 -0.347828E+04  0.120E-03   10.94       0.0  T
   2  -3478.2836981 -0.375840E-06  0.684E-04   10.94       2.6  T
   3  -3478.2836981 -0.100072E-07  0.180E-04   10.94       9.8  T
     SCC iter.                  ...        2 min, 55.836 sec
     gradient                   ...        4 min,  4.193 sec
 * total energy  : -3427.3751889 Eh     change    :  -0.5288954E-03 Eh
   gradient norm :     0.0469766 Eh/a0  converged?    E=F G=F D=F
   time step     :     0.2500000 fs     power     :   0.2702943E-07
   step length   :     0.0109424 a0     speed     :   0.1058731E-02

........................................................................
.............................. CYCLE   24 ..............................
........................................................................

 iter      E             dE          RMSdq      gap      omega  full diag
   1  -3478.2995525 -0.347830E+04  0.146E-03   10.94       0.0  T
   2  -3478.2995530 -0.529391E-06  0.834E-04   10.94       2.1  T
   3  -3478.2995530 -0.168407E-07  0.213E-04   10.94       8.2  T
     SCC iter.                  ...        2 min, 58.895 sec
     gradient                   ...        4 min,  1.623 sec
 * total energy  : -3427.3758003 Eh     change    :  -0.6114141E-03 Eh
   gradient norm :     0.0436671 Eh/a0  converged?    E=F G=F D=F
   time step     :     0.2500000 fs     power     :   0.3095507E-07
   step length   :     0.0136693 a0     speed     :   0.1322578E-02

........................................................................
.............................. CYCLE   25 ..............................
........................................................................

 iter      E             dE          RMSdq      gap      omega  full diag
   1  -3478.3171071 -0.347832E+04  0.167E-03   10.94       0.0  T
   2  -3478.3171077 -0.635328E-06  0.952E-04   10.94       1.8  T
   3  -3478.3171077 -0.238961E-07  0.233E-04   10.94       7.5  T
     SCC iter.                  ...        2 min, 53.923 sec
     gradient                   ...        4 min,  2.570 sec
 * total energy  : -3427.3764625 Eh     change    :  -0.6622312E-03 Eh
   gradient norm :     0.0407589 Eh/a0  converged?    E=F G=F D=F
   time step     :     0.2500000 fs     power     :   0.3330110E-07
   step length   :     0.0161597 a0     speed     :   0.1563537E-02

........................................................................
.............................. CYCLE   26 ..............................
........................................................................

 iter      E             dE          RMSdq      gap      omega  full diag
   1  -3478.3372857 -0.347834E+04  0.201E-03   10.94       0.0  T
   2  -3478.3372865 -0.809978E-06  0.115E-03   10.94       1.5  T
   3  -3478.3372865 -0.351247E-07  0.260E-04   10.94       6.7  T
   4  -3478.3372865 -0.143782E-07  0.689E-05   10.94      25.4  T
     SCC iter.                  ...        3 min, 49.629 sec
     gradient                   ...        4 min,  4.139 sec
 * total energy  : -3427.3772282 Eh     change    :  -0.7657118E-03 Eh
   gradient norm :     0.0385493 Eh/a0  converged?    E=F G=F D=F
   time step     :     0.2750000 fs     power     :   0.3471047E-07
   step length   :     0.0204935 a0     speed     :   0.1802596E-02

........................................................................
.............................. CYCLE   27 ..............................
........................................................................

 iter      E             dE          RMSdq      gap      omega  full diag
   1  -3478.3588726 -0.347836E+04  0.231E-03   10.94       0.0  T
   2  -3478.3588734 -0.885669E-06  0.132E-03   10.94       1.3  T
   3  -3478.3588735 -0.434047E-07  0.268E-04   10.94       6.5  T
   4  -3478.3588735 -0.182413E-07  0.762E-05   10.94      23.0  T
     SCC iter.                  ...        3 min, 55.061 sec
     gradient                   ...        4 min,  4.165 sec
 * total energy  : -3427.3781006 Eh     change    :  -0.8723852E-03 Eh
   gradient norm :     0.0375824 Eh/a0  converged?    E=F G=F D=F
   time step     :     0.3025000 fs     power     :   0.3586798E-07
   step length   :     0.0254579 a0     speed     :   0.2035694E-02

........................................................................
.............................. CYCLE   28 ..............................
........................................................................

 iter      E             dE          RMSdq      gap      omega  full diag
   1  -3478.3798126 -0.347838E+04  0.255E-03   10.94       0.0  T
   2  -3478.3798133 -0.759084E-06  0.146E-03   10.94       1.2  T
   3  -3478.3798134 -0.533969E-07  0.243E-04   10.94       7.2  T
   4  -3478.3798134 -0.215614E-07  0.833E-05   10.94      21.0  T
     SCC iter.                  ...        3 min, 59.549 sec
     gradient                   ...        4 min,  6.162 sec
 * total energy  : -3427.3791064 Eh     change    :  -0.1005765E-02 Eh
   gradient norm :     0.0377969 Eh/a0  converged?    E=F G=F D=F
   time step     :     0.3327500 fs     power     :   0.3787308E-07
   step length   :     0.0311308 a0     speed     :   0.2263016E-02

........................................................................
.............................. CYCLE   29 ..............................
........................................................................

 iter      E             dE          RMSdq      gap      omega  full diag
   1  -3478.3974265 -0.347840E+04  0.272E-03   10.94       0.0  T
   2  -3478.3974270 -0.478241E-06  0.157E-03   10.94       1.1  T
   3  -3478.3974271 -0.601399E-07  0.193E-04   10.94       9.1  T
   4  -3478.3974271 -0.245159E-07  0.871E-05   10.94      20.1  T
     SCC iter.                  ...        3 min, 59.173 sec
     gradient                   ...        4 min,  4.518 sec
 * total energy  : -3427.3803039 Eh     change    :  -0.1197477E-02 Eh
   gradient norm :     0.0382035 Eh/a0  converged?    E=F G=F D=F
   time step     :     0.3660250 fs     power     :   0.4154330E-07
   step length   :     0.0377371 a0     speed     :   0.2493867E-02

........................................................................
.............................. CYCLE   30 ..............................
........................................................................

 iter      E             dE          RMSdq      gap      omega  full diag
   1  -3478.4089734 -0.347841E+04  0.289E-03   10.94       0.0  T
   2  -3478.4089737 -0.282391E-06  0.169E-03   10.94       1.0  T
   3  -3478.4089737 -0.604782E-07  0.159E-04   10.94      11.0  T
   4  -3478.4089738 -0.284322E-07  0.864E-05   10.94      20.3  T
     SCC iter.                  ...        4 min,  1.578 sec
     gradient                   ...        4 min,  4.239 sec
 * total energy  : -3427.3817662 Eh     change    :  -0.1462355E-02 Eh
   gradient norm :     0.0373475 Eh/a0  converged?    E=F G=F D=F
   time step     :     0.4026275 fs     power     :   0.4648556E-07
   step length   :     0.0456963 a0     speed     :   0.2745316E-02

........................................................................
.............................. CYCLE   31 ..............................
........................................................................

 iter      E             dE          RMSdq      gap      omega  full diag
   1  -3478.4125334 -0.347841E+04  0.318E-03   10.94       0.0  T
   2  -3478.4125339 -0.550169E-06  0.188E-03   10.94       1.0  T
   3  -3478.4125340 -0.555924E-07  0.175E-04   10.94      10.0  T
   4  -3478.4125340 -0.332270E-07  0.793E-05   10.94      22.1  T
     SCC iter.                  ...        4 min, 14.985 sec
     gradient                   ...        4 min,  4.099 sec
 * total energy  : -3427.3835313 Eh     change    :  -0.1765038E-02 Eh
   gradient norm :     0.0342283 Eh/a0  converged?    E=F G=F D=F
   time step     :     0.4428903 fs     power     :   0.5065534E-07
   step length   :     0.0555018 a0     speed     :   0.3031278E-02

........................................................................
.............................. CYCLE   32 ..............................
........................................................................

 iter      E             dE          RMSdq      gap      omega  full diag
   1  -3478.4085356 -0.347841E+04  0.364E-03   10.94       0.0  T
   2  -3478.4085371 -0.147212E-05  0.218E-03   10.94       1.0  T
   3  -3478.4085372 -0.614195E-07  0.266E-04   10.94       6.6  T
   4  -3478.4085372 -0.367600E-07  0.794E-05   10.94      22.1  T
     SCC iter.                  ...        3 min, 54.313 sec
     gradient                   ...        4 min,  4.795 sec
 * total energy  : -3427.3855438 Eh     change    :  -0.2012534E-02 Eh
   gradient norm :     0.0295497 Eh/a0  converged?    E=F G=F D=F
   time step     :     0.4871793 fs     power     :   0.5128071E-07
   step length   :     0.0674740 a0     speed     :   0.3350139E-02

........................................................................
.............................. CYCLE   33 ..............................
........................................................................

 iter      E             dE          RMSdq      gap      omega  full diag
   1  -3478.4020548 -0.347840E+04  0.420E-03   10.95       0.0  T
   2  -3478.4020572 -0.239043E-05  0.253E-03   10.94       1.0  T
   3  -3478.4020573 -0.733580E-07  0.340E-04   10.94       5.1  T
   4  -3478.4020573 -0.394393E-07  0.820E-05   10.94      21.4  T
     SCC iter.                  ...        4 min,  3.349 sec
     gradient                   ...        4 min,  4.462 sec
 * total energy  : -3427.3876666 Eh     change    :  -0.2122832E-02 Eh
   gradient norm :     0.0266093 Eh/a0  converged?    E=F G=F D=F
   time step     :     0.5358972 fs     power     :   0.4773855E-07
   step length   :     0.0814963 a0     speed     :   0.3678505E-02

........................................................................
.............................. CYCLE   34 ..............................
........................................................................

 iter      E             dE          RMSdq      gap      omega  full diag
   1  -3478.4048152 -0.347840E+04  0.471E-03   10.95       0.0  T
   2  -3478.4048171 -0.187344E-05  0.283E-03   10.95       1.0  T
   3  -3478.4048172 -0.920359E-07  0.256E-04   10.95       6.8  T
   4  -3478.4048172 -0.388040E-07  0.859E-05   10.95      20.4  T
     SCC iter.                  ...        3 min, 52.971 sec
     gradient                   ...        4 min,  5.026 sec
 * total energy  : -3427.3898322 Eh     change    :  -0.2165574E-02 Eh
   gradient norm :     0.0273109 Eh/a0  converged?    E=F G=F D=F
   time step     :     0.5894869 fs     power     :   0.4400614E-07
   step length   :     0.0967471 a0     speed     :   0.3969892E-02

........................................................................
.............................. CYCLE   35 ..............................
........................................................................

 iter      E             dE          RMSdq      gap      omega  full diag
   1  -3478.4304270 -0.347843E+04  0.537E-03   10.95       0.0  T
   2  -3478.4304275 -0.492846E-06  0.318E-03   10.95       1.0  T
   3  -3478.4304276 -0.132507E-06  0.169E-04   10.95      10.4  T
   4  -3478.4304276 -0.267410E-07  0.960E-05   10.95      18.3  T
     SCC iter.                  ...        3 min, 57.205 sec
     gradient                   ...        4 min,  5.130 sec
 * total energy  : -3427.3921526 Eh     change    :  -0.2320432E-02 Eh
   gradient norm :     0.0268801 Eh/a0  converged?    E=F G=F D=F
   time step     :     0.6484356 fs     power     :   0.4351910E-07
   step length   :     0.1127049 a0     speed     :   0.4204273E-02

........................................................................
.............................. CYCLE   36 ..............................
........................................................................

 iter      E             dE          RMSdq      gap      omega  full diag
   1  -3478.4849166 -0.347848E+04  0.645E-03   10.95       0.0  T
   2  -3478.4849178 -0.122856E-05  0.373E-03   10.95       1.0  T
   3  -3478.4849180 -0.184437E-06  0.243E-04   10.95       7.2  T
   4  -3478.4849180 -0.236469E-07  0.111E-04   10.95      15.7  T
     SCC iter.                  ...        3 min, 52.760 sec
     gradient                   ...        4 min,  5.664 sec
 * total energy  : -3427.3946689 Eh     change    :  -0.2516292E-02 Eh
   gradient norm :     0.0226714 Eh/a0  converged?    E=F G=F D=F
   time step     :     0.7132792 fs     power     :   0.4198549E-07
   step length   :     0.1307598 a0     speed     :   0.4434347E-02

........................................................................
.............................. CYCLE   37 ..............................
........................................................................

 iter      E             dE          RMSdq      gap      omega  full diag
   1  -3478.5566171 -0.347856E+04  0.733E-03   10.96       0.0  T
   2  -3478.5566201 -0.304634E-05  0.420E-03   10.96       1.0  T
   3  -3478.5566203 -0.204376E-06  0.398E-04   10.96       4.4  T
   4  -3478.5566204 -0.347741E-07  0.118E-04   10.96      14.9  T
     SCC iter.                  ...        3 min, 58.099 sec
     gradient                   ...        4 min,  5.011 sec
 * total energy  : -3427.3971613 Eh     change    :  -0.2492362E-02 Eh
   gradient norm :     0.0222623 Eh/a0  converged?    E=F G=F D=F
   time step     :     0.7846071 fs     power     :   0.3607800E-07
   step length   :     0.1516608 a0     speed     :   0.4675589E-02

........................................................................
.............................. CYCLE   38 ..............................
........................................................................

 iter      E             dE          RMSdq      gap      omega  full diag
   1  -3478.6102050 -0.347861E+04  0.697E-03   10.96       0.0  T
   2  -3478.6102059 -0.897848E-06  0.405E-03   10.96       1.0  T
   3  -3478.6102061 -0.175488E-06  0.206E-04   10.96       8.5  T
   4  -3478.6102061 -0.194545E-07  0.963E-05   10.96      18.2  T
     SCC iter.                  ...        4 min,  0.165 sec
     gradient                   ...        4 min,  5.133 sec
 * total energy  : -3427.3996941 Eh     change    :  -0.2532832E-02 Eh
   gradient norm :     0.0244329 Eh/a0  converged?    E=F G=F D=F
   time step     :     0.8630678 fs     power     :   0.3459528E-07
   step length   :     0.1728132 a0     speed     :   0.4843363E-02

........................................................................
.............................. CYCLE   39 ..............................
........................................................................

 iter      E             dE          RMSdq      gap      omega  full diag
   1  -3478.6215776 -0.347862E+04  0.648E-03   10.97       0.0  T
   2  -3478.6215799 -0.231859E-05  0.388E-03   10.97       1.0  T
   3  -3478.6215801 -0.205440E-06  0.246E-04   10.97       7.1  T
   4  -3478.6215802 -0.275818E-07  0.116E-04   10.97      15.1  T
     SCC iter.                  ...        3 min, 52.865 sec
     gradient                   ...        4 min,  4.059 sec
 * total energy  : -3427.4025387 Eh     change    :  -0.2844563E-02 Eh
   gradient norm :     0.0210728 Eh/a0  converged?    E=F G=F D=F
   time step     :     0.9493746 fs     power     :   0.3520704E-07
   step length   :     0.1958696 a0     speed     :   0.4990505E-02

........................................................................
.............................. CYCLE   40 ..............................
........................................................................

 iter      E             dE          RMSdq      gap      omega  full diag
   1  -3478.6097350 -0.347861E+04  0.659E-03   10.97       0.0  T
   2  -3478.6097403 -0.531932E-05  0.397E-03   10.97       1.0  T
   3  -3478.6097406 -0.305184E-06  0.460E-04   10.98       3.8  T
   4  -3478.6097407 -0.585628E-07  0.164E-04   10.98      10.7  T
     SCC iter.                  ...        4 min, 14.707 sec
     gradient                   ...        4 min, 12.222 sec
 * total energy  : -3427.4055104 Eh     change    :  -0.2971710E-02 Eh
   gradient norm :     0.0233506 Eh/a0  converged?    E=F G=F D=F
   time step     :     1.0443120 fs     power     :   0.3257436E-07
   step length   :     0.2235983 a0     speed     :   0.5179088E-02

........................................................................
.............................. CYCLE   41 ..............................
........................................................................

 iter      E             dE          RMSdq      gap      omega  full diag
   1  -3478.6311365 -0.347863E+04  0.746E-03   10.98       0.0  T
   2  -3478.6311374 -0.934830E-06  0.437E-03   10.98       1.0  T
   3  -3478.6311377 -0.303742E-06  0.251E-04   10.99       7.0  T
   4  -3478.6311377 -0.359969E-07  0.150E-04   10.99      11.7  T
     SCC iter.                  ...        4 min,  1.629 sec
     gradient                   ...        4 min,  7.733 sec
 * total energy  : -3427.4089426 Eh     change    :  -0.3432215E-02 Eh
   gradient norm :     0.0211887 Eh/a0  converged?    E=F G=F D=F
   time step     :     1.1487432 fs     power     :   0.3602785E-07
   step length   :     0.2531583 a0     speed     :   0.5330701E-02

........................................................................
.............................. CYCLE   42 ..............................
........................................................................

 iter      E             dE          RMSdq      gap      omega  full diag
   1  -3478.6814596 -0.347868E+04  0.897E-03   11.00       0.0  T
   2  -3478.6814634 -0.388351E-05  0.520E-03   11.00       1.0  T
   3  -3478.6814637 -0.285896E-06  0.402E-04   11.00       4.4  T
   4  -3478.6814638 -0.463970E-07  0.132E-04   11.00      13.3  T
     SCC iter.                  ...        3 min, 54.717 sec
     gradient                   ...        4 min,  4.115 sec
 * total energy  : -3427.4126517 Eh     change    :  -0.3709065E-02 Eh
   gradient norm :     0.0215914 Eh/a0  converged?    E=F G=F D=F
   time step     :     1.2500000 fs     power     :   0.3354022E-07
   step length   :     0.2871480 a0     speed     :   0.5556622E-02
 * RMSD in coord.:     0.0331831 a0     energy gain  -0.3866718E-01 Eh

........................................................................
.............................. CYCLE   43 ..............................
........................................................................

 iter      E             dE          RMSdq      gap      omega  full diag
   1  -3478.6843500 -0.347868E+04  0.146E-03   11.00       0.0  T
   2  -3478.6843500 -0.429059E-07  0.855E-04   11.00       2.0  T
   3  -3478.6843500 -0.131799E-07  0.559E-05   11.00      31.4  T
     SCC iter.                  ...        3 min,  3.885 sec
     gradient                   ...        4 min,  5.336 sec
 * total energy  : -3427.4133587 Eh     change    :  -0.7070139E-03 Eh
   gradient norm :     0.0214678 Eh/a0  converged?    E=F G=F D=F
   time step     :     0.2500000 fs     power     :   0.3684078E-07
   step length   :     0.0555861 a0     speed     :   0.5378253E-02

........................................................................
.............................. CYCLE   44 ..............................
........................................................................

 iter      E             dE          RMSdq      gap      omega  full diag
   1  -3478.6808557 -0.347868E+04  0.139E-03   11.00       0.0  T
   2  -3478.6808559 -0.183731E-06  0.820E-04   11.00       2.1  T
   3  -3478.6808559 -0.140744E-07  0.906E-05   11.00      19.3  T
     SCC iter.                  ...        2 min, 57.542 sec
     gradient                   ...        4 min,  4.425 sec
 * total energy  : -3427.4141127 Eh     change    :  -0.7540221E-03 Eh
   gradient norm :     0.0197837 Eh/a0  converged?    E=F G=F D=F
   time step     :     0.2500000 fs     power     :   0.3912257E-07
   step length   :     0.0542763 a0     speed     :   0.5251525E-02

........................................................................
.............................. CYCLE   45 ..............................
........................................................................

 iter      E             dE          RMSdq      gap      omega  full diag
   1  -3478.6728222 -0.347867E+04  0.152E-03   11.00       0.0  T
   2  -3478.6728226 -0.427224E-06  0.890E-04   11.00       2.0  T
   3  -3478.6728226 -0.167320E-07  0.163E-04   11.00      10.7  T
     SCC iter.                  ...        3 min,  5.156 sec
     gradient                   ...        4 min,  6.759 sec
 * total energy  : -3427.4148795 Eh     change    :  -0.7667908E-03 Eh
   gradient norm :     0.0176348 Eh/a0  converged?    E=F G=F D=F
   time step     :     0.2500000 fs     power     :   0.3926248E-07
   step length   :     0.0535847 a0     speed     :   0.5184604E-02

........................................................................
.............................. CYCLE   46 ..............................
........................................................................

 iter      E             dE          RMSdq      gap      omega  full diag
   1  -3478.6632167 -0.347866E+04  0.164E-03   11.01       0.0  T
   2  -3478.6632172 -0.541175E-06  0.959E-04   11.01       1.8  T
   3  -3478.6632173 -0.182299E-07  0.189E-04   11.01       9.3  T
     SCC iter.                  ...        3 min,  3.903 sec
     gradient                   ...        4 min,  4.167 sec
 * total energy  : -3427.4156253 Eh     change    :  -0.7458073E-03 Eh
   gradient norm :     0.0165366 Eh/a0  converged?    E=F G=F D=F
   time step     :     0.2500000 fs     power     :   0.3784977E-07
   step length   :     0.0533781 a0     speed     :   0.5164622E-02

........................................................................
.............................. CYCLE   47 ..............................
........................................................................

 iter      E             dE          RMSdq      gap      omega  full diag
   1  -3478.6556719 -0.347866E+04  0.166E-03   11.01       0.0  T
   2  -3478.6556722 -0.398387E-06  0.968E-04   11.01       1.8  T
   3  -3478.6556723 -0.165187E-07  0.149E-04   11.01      11.7  T
     SCC iter.                  ...        2 min, 59.504 sec
     gradient                   ...        4 min,  3.625 sec
 * total energy  : -3427.4163431 Eh     change    :  -0.7178218E-03 Eh
   gradient norm :     0.0167931 Eh/a0  converged?    E=F G=F D=F
   time step     :     0.2500000 fs     power     :   0.3659494E-07
   step length   :     0.0532652 a0     speed     :   0.5153699E-02

........................................................................
.............................. CYCLE   48 ..............................
........................................................................

 iter      E             dE          RMSdq      gap      omega  full diag
   1  -3478.6527181 -0.347865E+04  0.177E-03   11.01       0.0  T
   2  -3478.6527183 -0.187951E-06  0.104E-03   11.01       1.7  T
   3  -3478.6527183 -0.154309E-07  0.850E-05   11.01      20.6  T
   4  -3478.6527183 -0.475347E-08  0.314E-05   11.01      55.9  T
     SCC iter.                  ...        3 min, 55.440 sec
     gradient                   ...        4 min,  7.712 sec
 * total energy  : -3427.4171199 Eh     change    :  -0.7767353E-03 Eh
   gradient norm :     0.0171522 Eh/a0  converged?    E=F G=F D=F
   time step     :     0.2750000 fs     power     :   0.3630837E-07
   step length   :     0.0583397 a0     speed     :   0.5131525E-02

........................................................................
.............................. CYCLE   49 ..............................
........................................................................

 iter      E             dE          RMSdq      gap      omega  full diag
   1  -3478.6567391 -0.347866E+04  0.195E-03   11.01       0.0  T
   2  -3478.6567392 -0.678824E-07  0.114E-03   11.01       1.5  T
   3  -3478.6567392 -0.154901E-07  0.613E-05   11.01      28.6  T
   4  -3478.6567392 -0.495675E-08  0.278E-05   11.01      63.1  T
     SCC iter.                  ...        3 min, 57.466 sec
     gradient                   ...        4 min,  4.632 sec
 * total energy  : -3427.4179748 Eh     change    :  -0.8549198E-03 Eh
   gradient norm :     0.0163117 Eh/a0  converged?    E=F G=F D=F
   time step     :     0.3025000 fs     power     :   0.3640638E-07
   step length   :     0.0639129 a0     speed     :   0.5110677E-02

........................................................................
.............................. CYCLE   50 ..............................
........................................................................

 iter      E             dE          RMSdq      gap      omega  full diag
   1  -3478.6683262 -0.347867E+04  0.223E-03   11.02       0.0  T
   2  -3478.6683264 -0.222095E-06  0.130E-03   11.02       1.4  T
   3  -3478.6683264 -0.215900E-07  0.945E-05   11.02      18.5  T
   4  -3478.6683264 -0.482032E-08  0.351E-05   11.02      49.9  T
     SCC iter.                  ...        4 min,  0.294 sec
     gradient                   ...        4 min,  8.386 sec
 * total energy  : -3427.4189001 Eh     change    :  -0.9253335E-03 Eh
   gradient norm :     0.0143078 Eh/a0  converged?    E=F G=F D=F
   time step     :     0.3327500 fs     power     :   0.3538057E-07
   step length   :     0.0704390 a0     speed     :   0.5120474E-02

........................................................................
.............................. CYCLE   51 ..............................
........................................................................

 iter      E             dE          RMSdq      gap      omega  full diag
   1  -3478.6849233 -0.347868E+04  0.248E-03   11.02       0.0  T
   2  -3478.6849238 -0.497151E-06  0.145E-03   11.02       1.2  T
   3  -3478.6849238 -0.290015E-07  0.154E-04   11.02      11.4  T
   4  -3478.6849238 -0.651198E-08  0.446E-05   11.02      39.3  T
     SCC iter.                  ...        3 min, 59.189 sec
     gradient                   ...        4 min, 11.557 sec
 * total energy  : -3427.4198592 Eh     change    :  -0.9590456E-03 Eh
   gradient norm :     0.0132221 Eh/a0  converged?    E=F G=F D=F
   time step     :     0.3660250 fs     power     :   0.3275113E-07
   step length   :     0.0782901 a0     speed     :   0.5173818E-02

........................................................................
.............................. CYCLE   52 ..............................
........................................................................

 iter      E             dE          RMSdq      gap      omega  full diag
   1  -3478.6993138 -0.347870E+04  0.250E-03   11.02       0.0  T
   2  -3478.6993142 -0.372643E-06  0.146E-03   11.02       1.2  T
   3  -3478.6993142 -0.315067E-07  0.125E-04   11.02      14.1  T
   4  -3478.6993142 -0.618184E-08  0.446E-05   11.02      39.3  T
     SCC iter.                  ...        3 min, 56.072 sec
     gradient                   ...        4 min,  5.573 sec
 * total energy  : -3427.4208392 Eh     change    :  -0.9800209E-03 Eh
   gradient norm :     0.0140826 Eh/a0  converged?    E=F G=F D=F
   time step     :     0.4026275 fs     power     :   0.3051636E-07
   step length   :     0.0869650 a0     speed     :   0.5224638E-02

........................................................................
.............................. CYCLE   53 ..............................
........................................................................

 iter      E             dE          RMSdq      gap      omega  full diag
   1  -3478.7039691 -0.347870E+04  0.239E-03   11.02       0.0  T
   2  -3478.7039692 -0.105235E-06  0.140E-03   11.02       1.2  T
   3  -3478.7039692 -0.304822E-07  0.765E-05   11.02      22.9  T
   4  -3478.7039692 -0.543923E-08  0.406E-05   11.02      43.2  T
     SCC iter.                  ...        4 min,  4.108 sec
     gradient                   ...        4 min,  5.527 sec
 * total energy  : -3427.4218807 Eh     change    :  -0.1041471E-02 Eh
   gradient norm :     0.0140334 Eh/a0  converged?    E=F G=F D=F
   time step     :     0.4428903 fs     power     :   0.2986186E-07
   step length   :     0.0957066 a0     speed     :   0.5227098E-02

........................................................................
.............................. CYCLE   54 ..............................
........................................................................

 iter      E             dE          RMSdq      gap      omega  full diag
   1  -3478.6963404 -0.347870E+04  0.247E-03   11.03       0.0  T
   2  -3478.6963408 -0.468697E-06  0.145E-03   11.03       1.2  T
   3  -3478.6963409 -0.378850E-07  0.133E-04   11.03      13.1  T
   4  -3478.6963409 -0.714726E-08  0.492E-05   11.03      35.6  T
     SCC iter.                  ...        3 min, 56.547 sec
     gradient                   ...        4 min,  6.488 sec
 * total energy  : -3427.4229973 Eh     change    :  -0.1116615E-02 Eh
   gradient norm :     0.0123803 Eh/a0  converged?    E=F G=F D=F
   time step     :     0.4871793 fs     power     :   0.2880007E-07
   step length   :     0.1054010 a0     speed     :   0.5233246E-02

........................................................................
.............................. CYCLE   55 ..............................
........................................................................

 iter      E             dE          RMSdq      gap      omega  full diag
   1  -3478.6825695 -0.347868E+04  0.256E-03   11.03       0.0  T
   2  -3478.6825704 -0.931108E-06  0.151E-03   11.03       1.2  T
   3  -3478.6825704 -0.508512E-07  0.222E-04   11.03       7.9  T
   4  -3478.6825704 -0.106347E-07  0.644E-05   11.03      27.2  T
     SCC iter.                  ...        3 min, 54.077 sec
     gradient                   ...        4 min,  5.141 sec
 * total energy  : -3427.4241517 Eh     change    :  -0.1154447E-02 Eh
   gradient norm :     0.0126891 Eh/a0  converged?    E=F G=F D=F
   time step     :     0.5358972 fs     power     :   0.2671356E-07
   step length   :     0.1168865 a0     speed     :   0.5275918E-02

........................................................................
.............................. CYCLE   56 ..............................
........................................................................

 iter      E             dE          RMSdq      gap      omega  full diag
   1  -3478.6777913 -0.347868E+04  0.245E-03   11.04       0.0  T
   2  -3478.6777916 -0.358729E-06  0.144E-03   11.04       1.2  T
   3  -3478.6777917 -0.503810E-07  0.131E-04   11.04      13.4  T
   4  -3478.6777917 -0.938689E-08  0.641E-05   11.04      27.3  T
     SCC iter.                  ...        3 min, 56.944 sec
     gradient                   ...        4 min,  6.690 sec
 * total energy  : -3427.4253762 Eh     change    :  -0.1224474E-02 Eh
   gradient norm :     0.0134307 Eh/a0  converged?    E=F G=F D=F
   time step     :     0.5894869 fs     power     :   0.2630743E-07
   step length   :     0.1288166 a0     speed     :   0.5285826E-02

........................................................................
.............................. CYCLE   57 ..............................
........................................................................

 iter      E             dE          RMSdq      gap      omega  full diag
   1  -3478.6907324 -0.347869E+04  0.281E-03   11.04       0.0  T
   2  -3478.6907328 -0.346629E-06  0.164E-03   11.04       1.1  T
   3  -3478.6907328 -0.417035E-07  0.147E-04   11.04      11.9  T
   4  -3478.6907328 -0.119398E-07  0.585E-05   11.04      29.9  T
     SCC iter.                  ...        3 min, 53.770 sec
     gradient                   ...        4 min,  5.391 sec
 * total energy  : -3427.4267209 Eh     change    :  -0.1344743E-02 Eh
   gradient norm :     0.0118364 Eh/a0  converged?    E=F G=F D=F
   time step     :     0.6484356 fs     power     :   0.2612079E-07
   step length   :     0.1417141 a0     speed     :   0.5286414E-02

........................................................................
.............................. CYCLE   58 ..............................
........................................................................

 iter      E             dE          RMSdq      gap      omega  full diag
   1  -3478.7145148 -0.347871E+04  0.326E-03   11.05       0.0  T
   2  -3478.7145155 -0.709369E-06  0.188E-03   11.05       1.0  T
   3  -3478.7145155 -0.422028E-07  0.205E-04   11.05       8.5  T
   4  -3478.7145155 -0.124692E-07  0.582E-05   11.05      30.1  T
     SCC iter.                  ...        3 min, 55.708 sec
     gradient                   ...        4 min,  4.173 sec
 * total energy  : -3427.4281419 Eh     change    :  -0.1421014E-02 Eh
   gradient norm :     0.0124635 Eh/a0  converged?    E=F G=F D=F
   time step     :     0.7132792 fs     power     :   0.2476995E-07
   step length   :     0.1573344 a0     speed     :   0.5335551E-02

........................................................................
.............................. CYCLE   59 ..............................
........................................................................

 iter      E             dE          RMSdq      gap      omega  full diag
   1  -3478.7278848 -0.347873E+04  0.311E-03   11.06       0.0  T
   2  -3478.7278850 -0.228220E-06  0.184E-03   11.06       1.0  T
   3  -3478.7278850 -0.523114E-07  0.120E-04   11.06      14.6  T
   4  -3478.7278850 -0.100958E-07  0.670E-05   11.06      26.1  T
     SCC iter.                  ...        3 min, 55.461 sec
     gradient                   ...        4 min,  3.526 sec
 * total energy  : -3427.4296896 Eh     change    :  -0.1547615E-02 Eh
   gradient norm :     0.0119247 Eh/a0  converged?    E=F G=F D=F
   time step     :     0.7846071 fs     power     :   0.2501432E-07
   step length   :     0.1737784 a0     speed     :   0.5357457E-02

........................................................................
.............................. CYCLE   60 ..............................
........................................................................

 iter      E             dE          RMSdq      gap      omega  full diag
   1  -3478.7279928 -0.347873E+04  0.335E-03   11.07       0.0  T
   2  -3478.7279942 -0.140788E-05  0.204E-03   11.07       1.0  T
   3  -3478.7279943 -0.710684E-07  0.247E-04   11.07       7.1  T
   4  -3478.7279943 -0.186969E-07  0.830E-05   11.07      21.1  T
     SCC iter.                  ...        3 min, 56.241 sec
     gradient                   ...        4 min,  3.901 sec
 * total energy  : -3427.4313526 Eh     change    :  -0.1663077E-02 Eh
   gradient norm :     0.0110376 Eh/a0  converged?    E=F G=F D=F
   time step     :     0.8630678 fs     power     :   0.2371373E-07
   step length   :     0.1930633 a0     speed     :   0.5410905E-02

........................................................................
.............................. CYCLE   61 ..............................
........................................................................

 iter      E             dE          RMSdq      gap      omega  full diag
   1  -3478.7458617 -0.347875E+04  0.391E-03   11.08       0.0  T
   2  -3478.7458621 -0.349104E-06  0.233E-03   11.08       1.0  T
   3  -3478.7458621 -0.622708E-07  0.128E-04   11.08      13.7  T
   4  -3478.7458621 -0.114910E-07  0.673E-05   11.08      26.0  T
     SCC iter.                  ...        3 min, 58.868 sec
     gradient                   ...        4 min,  3.164 sec
 * total energy  : -3427.4331061 Eh     change    :  -0.1753456E-02 Eh
   gradient norm :     0.0106813 Eh/a0  converged?    E=F G=F D=F
   time step     :     0.9493746 fs     power     :   0.2307507E-07
   step length   :     0.2148417 a0     speed     :   0.5473889E-02

........................................................................
.............................. CYCLE   62 ..............................
........................................................................

 iter      E             dE          RMSdq      gap      omega  full diag
   1  -3478.7897912 -0.347879E+04  0.539E-03   11.08       0.0  T
   2  -3478.7897924 -0.126997E-05  0.312E-03   11.09       1.0  T
   3  -3478.7897925 -0.840769E-07  0.252E-04   11.09       6.9  T
   4  -3478.7897925 -0.154619E-07  0.743E-05   11.09      23.6  T
     SCC iter.                  ...        3 min, 57.683 sec
     gradient                   ...        4 min,  4.507 sec
 * total energy  : -3427.4349208 Eh     change    :  -0.1814672E-02 Eh
   gradient norm :     0.0102273 Eh/a0  converged?    E=F G=F D=F
   time step     :     1.0443120 fs     power     :   0.2077809E-07
   step length   :     0.2394215 a0     speed     :   0.5545592E-02

........................................................................
.............................. CYCLE   63 ..............................
........................................................................

 iter      E             dE          RMSdq      gap      omega  full diag
   1  -3478.8031211 -0.347880E+04  0.502E-03   11.09       0.0  T
   2  -3478.8031219 -0.871860E-06  0.298E-03   11.09       1.0  T
   3  -3478.8031220 -0.683162E-07  0.175E-04   11.09      10.0  T
   4  -3478.8031220 -0.284781E-07  0.711E-05   11.09      24.6  T
     SCC iter.                  ...        3 min, 58.396 sec
     gradient                   ...        4 min,  4.074 sec
 * total energy  : -3427.4367621 Eh     change    :  -0.1841308E-02 Eh
   gradient norm :     0.0086994 Eh/a0  converged?    E=F G=F D=F
   time step     :     1.1487432 fs     power     :   0.1937554E-07
   step length   :     0.2655929 a0     speed     :   0.5592533E-02

........................................................................
.............................. CYCLE   64 ..............................
........................................................................

 iter      E             dE          RMSdq      gap      omega  full diag
   1  -3478.8007326 -0.347880E+04  0.509E-03   11.11       0.0  T
   2  -3478.8007343 -0.166225E-05  0.304E-03   11.11       1.0  T
   3  -3478.8007344 -0.698869E-07  0.226E-04   11.11       7.8  T
   4  -3478.8007344 -0.306759E-07  0.754E-05   11.11      23.2  T
     SCC iter.                  ...        4 min,  1.923 sec
     gradient                   ...        4 min,  4.534 sec
 * total energy  : -3427.4385588 Eh     change    :  -0.1796689E-02 Eh
   gradient norm :     0.0103262 Eh/a0  converged?    E=F G=F D=F
   time step     :     1.2500000 fs     power     :   0.1697217E-07
   step length   :     0.2926420 a0     speed     :   0.5662937E-02

........................................................................
.............................. CYCLE   65 ..............................
........................................................................

 iter      E             dE          RMSdq      gap      omega  full diag
   1  -3478.8402619 -0.347884E+04  0.599E-03   11.12       0.0  T
   2  -3478.8402638 -0.186443E-05  0.347E-03   11.12       1.0  T
   3  -3478.8402638 -0.755999E-07  0.307E-04   11.12       5.7  T
   4  -3478.8402639 -0.304321E-07  0.778E-05   11.12      22.5  T
     SCC iter.                  ...        3 min, 57.938 sec
     gradient                   ...        4 min,  3.631 sec
 * total energy  : -3427.4402120 Eh     change    :  -0.1653283E-02 Eh
   gradient norm :     0.0101088 Eh/a0  converged?    E=F G=F D=F
   time step     :     1.2500000 fs     power     :   0.1519611E-07
   step length   :     0.2909948 a0     speed     :   0.5631063E-02

........................................................................
.............................. CYCLE   66 ..............................
........................................................................

 iter      E             dE          RMSdq      gap      omega  full diag
   1  -3478.8403246 -0.347884E+04  0.445E-03   11.13       0.0  T
   2  -3478.8403260 -0.131629E-05  0.266E-03   11.13       1.0  T
   3  -3478.8403260 -0.713489E-07  0.209E-04   11.13       8.4  T
   4  -3478.8403260 -0.237119E-07  0.810E-05   11.13      21.6  T
     SCC iter.                  ...        3 min, 55.226 sec
     gradient                   ...        4 min,  4.534 sec
 * total energy  : -3427.4417669 Eh     change    :  -0.1554825E-02 Eh
   gradient norm :     0.0084430 Eh/a0  converged?    E=F G=F D=F
[...]
  3011   6 C     3012   6 C                                       1.5294976
  3012   6 C     3013   6 C                                       1.5268336
  3013   6 C     3014   6 C                                       1.5269751
  3014   6 C     3015   6 C                                       1.5293031
  3015   6 C     3016   6 C                                       1.5227864
  3015   6 C     3017   1 H                                       1.0931821
  3015   6 C     3018   1 H                                       1.0935797
  3014   6 C     3019   1 H                                       1.0925845
  3014   6 C     3020   1 H                                       1.0933565
  3013   6 C     3021   1 H                                       1.0936615
  3013   6 C     3022   1 H                                       1.0899693
  3012   6 C     3023   1 H                                       1.0925801
  3012   6 C     3024   1 H                                       1.0933251
  3011   6 C     3025   1 H                                       1.0931224
  3011   6 C     3026   1 H                                       1.0934299
  3010   6 C     3027   1 H                                       1.0914546
  3010   6 C     3028   1 H                                       1.0931529
  3009   6 C     3029   1 H                                       1.0923921
  3009   6 C     3030   1 H                                       1.0934047
  3008   6 C     3031   1 H                                       1.0927032
  3008   6 C     3032   1 H                                       1.0927335
  3007   6 C     3033   1 H                                       1.0920612
  3007   6 C     3034   1 H                                       1.0934844
  3006   6 C     3035   1 H                                       1.0922053
  3006   6 C     3036   1 H                                       1.0920759
  3005   6 C     3037   1 H                                       1.0922440
  3005   6 C     3038   1 H                                       1.0929938
  3004   6 C     3039   1 H                                       1.0920115
  3004   6 C     3040   1 H                                       1.0917853
  3003   6 C     3041   1 H                                       1.0923689
  3003   6 C     3042   1 H                                       1.0933099
  3002   6 C     3043   1 H                                       1.0922969
  3002   6 C     3044   1 H                                       1.0923018
  3001   6 C     3045   1 H                                       1.0923676
  3001   6 C     3046   1 H                                       1.0931459
  3000   6 C     3047   1 H                                       1.0925625
  3000   6 C     3048   1 H                                       1.0928313
  2999   6 C     3049   1 H                                       1.0930683
  2999   6 C     3050   1 H                                       1.0933066
  2998   6 C     3051   1 H                                       1.0928979
  2998   6 C     3052   1 H                                       1.0919122
  2997   6 C     3053   1 H                                       1.0932558
  2997   6 C     3054   1 H                                       1.0928649
  2996   6 C     3055   1 H                                       1.0927005
  2996   6 C     3056   1 H                                       1.0909401
  2995   6 C     3057   1 H                                       1.0933616
  2995   6 C     3058   1 H                                       1.0933645
  2994   6 C     3059   1 H                                       1.0933795
  2994   6 C     3060   1 H                                       1.0926619
  2993   6 C     3061   1 H                                       1.0904469
  2993   6 C     3062   1 H                                       1.0935854
  2992   6 C     3063   1 H                                       1.0932588
  2992   6 C     3064   1 H                                       1.0924061
  2991   6 C     3065   1 H                                       1.0901828
  2991   6 C     3066   1 H                                       1.0932681
  2990   6 C     3067   1 H                                       1.0932960
  2990   6 C     3068   1 H                                       1.0917938
  2989   6 C     3069   1 H                                       1.0933839
  2989   6 C     3070   1 H                                       1.0934819
  2988   6 C     3071   1 H                                       1.0930131
  2988   6 C     3072   1 H                                       1.0891678
  2987   6 C     3073   1 H                                       1.0919011
  2987   6 C     3074   1 H                                       1.0939178
  2986   6 C     3075   1 H                                       1.0934670
  2986   6 C     3076   1 H                                       1.0933390
  2985   6 C     3077   1 H                                       1.0933772
  2985   6 C     3078   1 H                                       1.0912834
  2984   6 C     3079   1 H                                       1.0920034
  2984   6 C     3080   1 H                                       1.0931109
  2983   6 C     3081   1 H                                       1.0924739
  2983   6 C     3082   1 H                                       1.0924461
  2982   6 C     3083   1 H                                       1.0931023
  2982   6 C     3084   1 H                                       1.0932152
  2981   6 C     3085   1 H                                       1.0927472
  2981   6 C     3086   1 H                                       1.0921429
  2980   6 C     3087   1 H                                       1.0933350
  2980   6 C     3088   1 H                                       1.0934108
  2979   6 C     3089   1 H                                       1.0922681
  2979   6 C     3090   1 H                                       1.0913253
  2978   6 C     3091   1 H                                       1.0933665
  2978   6 C     3092   1 H                                       1.0936515
  2977   6 C     3093   1 H                                       1.0937348
  2977   6 C     3094   1 H                                       1.0911747
  2976   6 C     3095   1 H                                       1.0892885
  2976   6 C     3096   1 H                                       1.0931846
  2975   6 C     3097   1 H                                       1.0935490
  2975   6 C     3098   1 H                                       1.0938444
  2974   6 C     3099   1 H                                       1.0938591
  2974   6 C     3100   1 H                                       1.0905029
  2973   6 C     3101   1 H                                       1.0911925
  2973   6 C     3102   1 H                                       1.0925778
  2972   6 C     3103   1 H                                       1.0936548
  2972   6 C     3104   1 H                                       1.0922606
  2971   6 C     3105   1 H                                       1.0920680
  2971   6 C     3106   1 H                                       1.0919980
  2970   6 C     3107   1 H                                       1.0911001
  2970   6 C     3108   1 H                                       1.0933676
  2969   6 C     3109   1 H                                       1.0928619
  2969   6 C     3110   1 H                                       1.0922544
  2968   6 C     3111   1 H                                       1.0940593
  2968   6 C     3112   1 H                                       1.0927470
  2967   6 C     3113   1 H                                       1.0913976
  2967   6 C     3114   1 H                                       1.0914817
  2966   6 C     3115   1 H                                       1.0940958
  2966   6 C     3116   1 H                                       1.0927206
  2965   6 C     3117   1 H                                       1.0933661
  2965   6 C     3118   1 H                                       1.0931886
  2964   6 C     3119   1 H                                       1.0890659
  2964   6 C     3120   1 H                                       1.0912249
  2963   6 C     3121   1 H                                       1.0919434
  2963   6 C     3122   1 H                                       1.0933431
  2962   6 C     3123   1 H                                       1.0931882
  2962   6 C     3124   1 H                                       1.0947076
  2961   6 C     3125   1 H                                       1.0934064
  2961   6 C     3126   1 H                                       1.0900481
  2960   6 C     3127   1 H                                       1.0920643
  2960   6 C     3128   1 H                                       1.0932986
  2959   6 C     3129   1 H                                       1.0936871
  2959   6 C     3130   1 H                                       1.0927913
  2958   6 C     3131   1 H                                       1.0922250
  2958   6 C     3132   1 H                                       1.0921984
  2957   6 C     3133   1 H                                       1.0920598
  2957   6 C     3134   1 H                                       1.0928567
  2956   6 C     3135   1 H                                       1.0937021
  2956   6 C     3136   1 H                                       1.0930238
  2955   6 C     3137   1 H                                       1.0915475
  2955   6 C     3138   1 H                                       1.0920553
  2954   6 C     3139   1 H                                       1.0939468
  2954   6 C     3140   1 H                                       1.0931354
  2953   6 C     3141   1 H                                       1.0926347
  2953   6 C     3142   1 H                                       1.0921619
  2952   6 C     3143   1 H                                       1.0902619
  2952   6 C     3144   1 H                                       1.0941895
  2951   6 C     3145   1 H                                       1.0924022
  2951   6 C     3146   1 H                                       1.0925035
  2950   6 C     3147   1 H                                       1.0916191
  2950   6 C     3148   1 H                                       1.0937282
  2949   6 C     3149   1 H                                       1.0912036
  2949   6 C     3150   1 H                                       1.0924937
  2948   6 C     3151   1 H                                       1.0933161
  2948   6 C     3152   1 H                                       1.0941444
  2947   6 C     3153   1 H                                       1.0931937
  2947   6 C     3154   1 H                                       1.0917648
  2946   6 C     3155   1 H                                       1.0932815
  2946   6 C     3156   1 H                                       1.0941774
  2945   6 C     3157   1 H                                       1.0922068
  2945   6 C     3158   1 H                                       1.0929138
  2944   6 C     3159   1 H                                       1.0934770
  2944   6 C     3160   1 H                                       1.0921012
  2943   6 C     3161   1 H                                       1.0918964
  2943   6 C     3162   1 H                                       1.0925830
  2942   6 C     3163   1 H                                       1.0917068
  2942   6 C     3164   1 H                                       1.0934450
  2941   6 C     3165   1 H                                       1.0934721
  2941   6 C     3166   1 H                                       1.0909863
  2940   6 C     3167   1 H                                       1.0924099
  2940   6 C     3168   1 H                                       1.0929053
  2939   6 C     3169   1 H                                       1.0932252
  2939   6 C     3170   1 H                                       1.0928914
  2938   6 C     3171   1 H                                       1.0913897
  2938   6 C     3172   1 H                                       1.0938653
  2937   6 C     3173   1 H                                       1.0910507
  2937   6 C     3174   1 H                                       1.0884103
  2936   6 C     3175   1 H                                       1.0943888
  2936   6 C     3176   1 H                                       1.0934622
  2935   6 C     3177   1 H                                       1.0925462
  2935   6 C     3178   1 H                                       1.0944383
  2934   6 C     3179   1 H                                       1.0921842
  2934   6 C     3180   1 H                                       1.0907725
  2933   6 C     3181   1 H                                       1.0942723
  2933   6 C     3182   1 H                                       1.0929442
  2932   6 C     3183   1 H                                       1.0929265
  2932   6 C     3184   1 H                                       1.0927083
  2931   6 C     3185   1 H                                       1.0921816
  2931   6 C     3186   1 H                                       1.0932671
  2930   6 C     3187   1 H                                       1.0931111
  2930   6 C     3188   1 H                                       1.0911906
  2929   6 C     3189   1 H                                       1.0940078
  2929   6 C     3190   1 H                                       1.0941936
  2928   6 C     3191   1 H                                       1.0933731
  2928   6 C     3192   1 H                                       1.0911672
  2927   6 C     3193   1 H                                       1.0915342
  2927   6 C     3194   1 H                                       1.0934985
  2926   6 C     3195   1 H                                       1.0928614
  2926   6 C     3196   1 H                                       1.0912599
  2925   6 C     3197   1 H                                       1.0924965
  2925   6 C     3198   1 H                                       1.0931157
  2924   6 C     3199   1 H                                       1.0932720
  2924   6 C     3200   1 H                                       1.0927979
  2923   6 C     3201   1 H                                       1.0931259
  2923   6 C     3202   1 H                                       1.0932639
  2922   6 C     3203   1 H                                       1.0934955
  2922   6 C     3204   1 H                                       1.0934269
  2921   6 C     3205   1 H                                       1.0926956
  2921   6 C     3206   1 H                                       1.0930532
  2920   6 C     3207   1 H                                       1.0923554
  2920   6 C     3208   1 H                                       1.0925470
  2919   6 C     3209   1 H                                       1.0927272
  2919   6 C     3210   1 H                                       1.0934583
  2918   6 C     3211   1 H                                       1.0915288
  2918   6 C     3212   1 H                                       1.0936176
  2917   6 C     3213   1 H                                       1.0929667
  2917   6 C     3214   1 H                                       1.0929573
  2916   6 C     3215   1 H                                       1.0921531
  2916   6 C     3216   1 H                                       1.0932735
  2915   6 C     3217   1 H                                       1.0910886
  2915   6 C     3218   1 H                                       1.0926255
  2914   6 C     3219   1 H                                       1.0930020
  2914   6 C     3220   1 H                                       1.0937927
  2913   6 C     3221   1 H                                       1.0917301
  2913   6 C     3222   1 H                                       1.0942444
  2912   6 C     3223   1 H                                       1.0926536
  2912   6 C     3224   1 H                                       1.0897130
  2911   6 C     3225   1 H                                       1.0926724
  2911   6 C     3226   1 H                                       1.0935384
  2910   6 C     3227   1 H                                       1.0935452
  2910   6 C     3228   1 H                                       1.0930204
  2909   6 C     3229   1 H                                       1.0909898
  2909   6 C     3230   1 H                                       1.0915210
  2908   6 C     3231   1 H                                       1.0937378
  2908   6 C     3232   1 H                                       1.0920466
  2907   6 C     3233   1 H                                       1.0921554
  2907   6 C     3234   1 H                                       1.0923899
  2906   6 C     3235   1 H                                       1.0919975
  2906   6 C     3236   1 H                                       1.0937433
  2905   6 C     3237   1 H                                       1.0935947
  2905   6 C     3238   1 H                                       1.0907155
  2904   6 C     3239   1 H                                       1.0929773
  2904   6 C     3240   1 H                                       1.0934799
  2903   6 C     3241   1 H                                       1.0932640
  2903   6 C     3242   1 H                                       1.0932392
  2902   6 C     3243   1 H                                       1.0909014
  2902   6 C     3244   1 H                                       1.0929956
  2901   6 C     3245   1 H                                       1.0933566
  2901   6 C     3246   1 H                                       1.0932214
  2900   6 C     3247   1 H                                       1.0928520
  2900   6 C     3248   1 H                                       1.0930595
  2899   6 C     3249   1 H                                       1.0934199
  2899   6 C     3250   1 H                                       1.0926900
  2898   6 C     3251   1 H                                       1.0909867
  2898   6 C     3252   1 H                                       1.0923718
  2897   6 C     3253   1 H                                       1.0883899
  2897   6 C     3254   1 H                                       1.0880105
  2897   6 C     3255   1 H                                       1.0884514
  3016   6 C     3256   1 H                                       1.0872796
  3016   6 C     3257   1 H                                       1.0862326 (min)
  3016   6 C     3258   1 H                                       1.0870415

 * 2 distinct bonds (by element types)

   Z      Z             #   av. dist./Å        max./Å        min./Å
   1 H    6 C        2178     1.0925695     1.0948892     1.0862326
   6 C    6 C        1071     1.5273446     1.5361764     1.5224405


optimized geometry written to: xtbopt.xyz


           -------------------------------------------------
          | TOTAL ENERGY            -3427.517999116577 Eh   |
          | GRADIENT NORM               0.000660181588 Eh/α |
          | HOMO-LUMO GAP              11.364180955705 eV   |
           -------------------------------------------------

------------------------------------------------------------------------
 * finished run on 2024/06/20 at 23:20:49.146     
------------------------------------------------------------------------
 total:
 * wall-time:     3 d,  8 h,  3 min, 12.615 sec
 *  cpu-time:    17 d,  3 h,  3 min, 33.572 sec
 * ratio c/w:     5.135 speedup
 SCF:
 * wall-time:     0 d,  0 h,  7 min, 33.963 sec
 *  cpu-time:     0 d,  0 h, 38 min, 28.596 sec
 * ratio c/w:     5.085 speedup
 ANC optimizer:
 * wall-time:     3 d,  7 h, 54 min, 56.552 sec
 *  cpu-time:    17 d,  2 h, 24 min,  6.996 sec
 * ratio c/w:     5.135 speedup

