3536
 energy: -3716.276989016087 gnorm: 0.000716087716 xtb: 6.6.1 (8d0f1dd)
C           45.44183357151099       52.96690908875328       53.16312367804565
C           46.70596868118734       52.41269446442251       52.50714080466570
C           47.41408677576842       51.46245960477101       53.46737415547807
C           47.60801345217628       53.58016476189636       52.09623396369810
C           48.86458356905245       53.25246450914464       51.27689220579608
C           49.60703820076692       54.56017774972327       51.00944650788599
C           48.49652143476510       52.54077408370492       49.97141744897628
C           49.63614321540417       52.26337909115147       48.97699993371780
C           49.03341482857641       51.50633404044185       47.79324395241089
C           50.77455503312155       51.48669259136661       49.65324831519155
C           51.80797304716201       50.81490023648186       48.73591950989440
C           52.80974129469388       50.05670101241198       49.60697682295626
C           52.52236821520240       51.82289014886982       47.82792639576407
C           53.51815680865531       51.22676444900715       46.81648899329451
C           54.20079470778096       52.36389967347890       46.05622142459758
C           52.80403321195583       50.27443164316153       45.85200957548912
C           53.65850395274450       49.60740561867438       44.76628498972222
C           52.74615901996167       48.76838857773416       43.87221573035377
C           54.84037159157427       48.79137421912265       45.31250164002141
C           54.50547339338935       47.61118713155063       46.24428699717263
C           55.52981573989356       47.55661319168947       47.37807845007467
C           54.50153626670640       46.27217693790454       45.49183578925270
C           53.75303888866360       45.14121683345407       46.21737236039237
C           54.31291962926047       43.79525515281654       45.75477980134894
C           52.23417683018864       45.22955553237045       45.97438816804281
C           51.36318616598260       44.98746224591437       47.21287941915839
C           51.59152492185217       43.59456915772877       47.79973691974197
C           49.86644888394135       45.14029133373447       46.89549399563803
C           49.41592782036132       46.48760801337542       46.31622124581341
C           49.87964417008266       47.65407682434088       47.18639010122477
C           47.88463295717357       46.56223278061725       46.18869410090284
C           47.21655045463024       45.43567574687459       45.39464955397403
C           47.81518610823357       45.31414992781851       43.99191795773987
C           45.70480452810558       45.66474577897078       45.24699544544077
C           44.86888295949351       45.82006211592299       46.52757243627669
C           45.15882610962971       44.72046371912061       47.54589689406455
C           43.38708799811566       45.78953282213774       46.11868388715689
C           42.37677686522215       46.36710150047642       47.12318802312252
C           40.97526195842511       45.91685937914153       46.71055786519889
C           42.49463895499036       47.89633048904916       47.16274660733232
C           41.39334108938487       48.68035921067695       47.89202995689516
C           41.71090465906035       50.17039952835690       47.75922266210520
C           41.27793542331081       48.26753376301183       49.36270293002271
C           40.10524984687325       48.89467373815273       50.12922075016665
C           40.31591301514850       48.68714476907520       51.62814468121247
C           38.75142634624208       48.30802555579090       49.70554567157269
C           37.57444466596947       49.26366566299316       49.95984179443223
C           36.27795176245045       48.47399530652178       50.13112357993788
C           37.44667439611745       50.26801696988390       48.80742253240084
C           36.67151025743982       51.54838247960185       49.14302377929751
C           36.41478608409959       52.33092023807929       47.85417477483310
C           37.42312535593730       52.41792443595375       50.16820694896530
C           36.73863509076488       52.51954502360003       51.53638513116927
C           35.51628720459750       53.43279741856745       51.45003178572466
C           37.71243215780724       53.06053395959699       52.59345491560369
C           38.75385042678068       52.04641692523167       53.07910346897044
C           38.10146318618975       50.98312042971941       53.96584629620060
C           39.87296064099953       52.71570926916375       53.88678617603983
C           40.73738043998531       53.76626055616840       53.17727775966745
C           41.32637243184451       53.22139815749620       51.87717090164796
C           41.87631982555382       54.20992491149273       54.10846359135093
C           41.43355955599236       55.08018065177828       55.29418898340268
C           41.45075300738803       56.55825104198394       54.90435238380716
C           42.32651657342935       54.85853220918747       56.52231919421532
C           42.17483682742726       53.50189332816512       57.22203209057945
C           40.75220502249905       53.28536866955835       57.73938689820358
C           43.12744304004615       53.39114526180231       58.42072872936020
C           44.62874491444874       53.45883126618147       58.12713325653799
C           45.06582133273574       52.32013809828876       57.20683553571111
C           45.43779923945132       53.36951628747074       59.42827701961897
C           45.23568980958287       54.50014723591565       60.44533697489578
C           45.74522545818548       55.82492909908652       59.88877445681385
C           45.95440834624489       54.11938768547161       61.74731792742190
C           45.81577802398674       55.09959916125013       62.92167521582795
C           46.63184151821958       54.57071754652449       64.10109061761635
C           44.34432815535807       55.28738525083117       63.30444955174040
C           44.04530452951980       56.23316638957220       64.47627255419907
C           42.54575299231497       56.16256394955416       64.76671657685858
C           44.50591312492733       57.66293954397636       64.16453400013134
C           44.23218653777901       58.68557243800087       65.28158697489052
C           42.99279913527821       59.52518717730181       64.96142914051723
C           45.40981586915366       59.64824331405018       65.49704156311239
C           46.72615064255645       59.04630023287351       66.00791067606973
C           46.50888569768272       58.13370648343346       67.21516348021103
C           47.70500658021687       60.16069124575488       66.41333296108162
C           48.13077718168521       61.12289305153483       65.29807435976086
C           48.96207714022700       60.41289003276346       64.23408901147931
C           48.86944761654060       62.34407796498078       65.86838714421309
C           50.22217143579502       62.05369011913815       66.51372074059569
C           50.84536156183389       63.32467809608762       67.07672789009300
H           45.69577580656686       53.53789465803850       54.05377700787793
H           44.90651737289344       53.62064841587642       52.47875225144182
H           44.77419476176537       52.15716422271128       53.45032409914171
H           51.80986758553863       63.10981674603892       67.53212267856716
H           50.99843954794061       64.06092983035262       66.29006623290610
H           50.19885821417831       63.76858780167628       67.83117136715026
H           49.02036161931068       63.06221869337722       65.05742410228618
H           48.22400158351505       62.82659954106002       66.60854932525532
H           47.24297953586377       60.74023789213738       67.21803239541467
H           48.60024609145297       59.68871065129516       66.82490272877597
H           47.18756075199483       58.44884131423326       65.21576153161237
H           45.94489155526083       57.24650067110687       66.94144387443411
H           47.46621982657179       57.80939306229528       67.61839715934565
H           45.96911235194282       58.65963104090660       68.00047650764580
H           45.59942463265817       60.15473490769795       64.54794498855131
H           45.08958931665770       60.40843945950628       66.21582149353604
H           45.57797337334233       57.63355053247771       63.97267139121250
H           44.01979283654848       57.99589048253114       63.24532085343984
H           47.22824493784942       61.51662723019884       64.81718718287894
H           48.34986955557200       59.70340403051428       63.68601172578614
H           49.36391555387585       61.13245810875974       63.52449077308626
H           49.78870823637411       59.86845070048139       64.68328821014076
H           44.04477063733896       58.15266506650439       66.21789384982617
H           42.74729171318791       60.18285885111248       65.79375130307466
H           43.17536929491362       60.14424809933197       64.08448944215758
H           42.13061523233284       58.89621319467980       64.76053835118449
H           44.57542350636443       55.88083579420702       65.36758131430828
H           42.28285626265944       56.74438032930746       65.64599251836879
H           41.97750999167562       56.53536143344324       63.91673398976116
H           42.24566529584856       55.13176592227020       64.94775939898392
H           43.79737717669082       55.66707239461087       62.43922182713369
H           43.93127273304952       54.30424563467903       63.54829468636981
H           46.23665988386082       56.06145357918897       62.61912255713533
H           47.64072899909267       54.31767536408307       63.78219909007700
H           46.70802465708895       55.31216931258476       64.89218089899460
H           46.16945158689234       53.67531659527641       64.51263121642783
H           45.58099489305718       53.14584828710445       62.07468468939463
H           47.01932070969490       54.00056920480160       61.52769486809414
H           44.16702212291968       54.59249834074363       60.65700448708008
H           45.23258786102175       56.07722749716122       58.96430769224618
H           45.58326366002321       56.63583627846556       60.59451084028547
H           46.81045741617751       55.75516267387986       59.68072133407146
H           45.19349893686089       52.41820907672533       59.90974629814129
H           46.49808546366820       53.33936805214221       59.16583456430298
H           44.86065049290241       54.40814329949195       57.63754778923404
H           44.78824985595764       51.36138000016310       57.63841469161712
H           44.60369707927376       52.40558763826719       56.22732439674421
H           46.14576521433992       52.32785826503925       57.07381730920501
H           42.86423143593860       54.19167407335947       59.11546426027643
H           42.92968208800293       52.44087560471314       58.92631430446923
H           42.39912009042355       52.69979450925253       56.51333358008445
H           40.69584402526709       52.36523209671459       58.31913973749740
H           40.45337056750656       54.10805350619675       58.38631519149801
H           40.03733125318932       53.20232493653399       56.92623257903079
H           43.36441287396898       54.98243266558710       56.20656957920674
H           42.11281795042714       55.64166423804436       57.25505846496304
H           40.40523233199145       54.83252350561989       55.56156642167030
H           42.46592588878892       56.88984340806977       54.69449933033436
H           40.84490838944654       56.72726501897763       54.01738949912154
H           41.04936526340457       57.17181492852670       55.70929616486286
H           42.38012104758804       53.31320196643741       54.47196342544912
H           42.61136790200888       54.77134458317170       53.52670324458842
H           40.12278024266770       54.64187017473222       52.94201021736777
H           41.86558280636980       52.29506083342876       52.06370518000095
H           40.54763780728313       53.03103487386470       51.14380410503509
H           42.02139288494449       53.93937895934128       51.44615305366634
H           39.40953277440951       53.17575679029132       54.76145921478118
H           40.53783413654481       51.92627956940658       54.24824683515036
H           39.19902203763668       51.54179390951662       52.21818406328376
H           37.33318168075818       50.43129117157168       53.42960588619508
H           38.84347517406860       50.26850736485236       54.31774328308978
H           37.63830385464377       51.44581662064923       54.83593875349207
H           38.21780607930408       53.92854572800884       52.16748242630835
H           37.14364644293820       53.40785813527145       53.45994551015881
H           36.39610877869606       51.52457133498907       51.83714857916652
H           34.83046969036840       53.09517268956925       50.67642211863318
H           34.97804681750188       53.44770103967051       52.39587108668420
H           35.82219077067878       54.45004793725739       51.21402071689507
H           38.42793125830448       52.01597635618556       50.30063186964241
H           37.53611869163397       53.42979186055631       49.77582272575580
H           35.69977595969171       51.26360238477177       49.55935267302306
H           35.85421664452224       53.24002413365378       48.06122812292389
H           37.35632513961686       52.60565745220693       47.38339381973611
H           35.84212571824042       51.73228505583186       47.14803583378547
H           38.44326515312662       50.55558242909881       48.46456316761093
H           36.95037569971757       49.76633898161292       47.97307390228711
H           37.76519159507480       49.80871655234009       50.88790507298923
H           36.34213425167246       47.81207341794057       50.99270954309010
H           35.43217710857979       49.14150398501285       50.28063444514723
H           36.08160562336536       47.86830958333340       49.24800482969835
H           38.76192625864291       48.05293785197953       48.64397896000673
H           38.59076050655571       47.37790530087084       50.25643324357922
H           40.09700611947803       49.97136568478545       49.93907343300183
H           41.20907348299577       49.20780486397526       51.96410768905379
H           39.46750485443994       49.06138950861401       52.19430797003696
H           40.43181000673021       47.62846948292242       51.85228961119246
H           41.17993812941199       47.18205086053121       49.42865948453300
H           42.20729115771905       48.54478011657466       49.86677830504483
H           40.44161402390300       48.49254645339424       47.38609110704994
H           40.90514736230682       50.78615173088181       48.14986397776301
H           42.62214972442835       50.41586692647122       48.30007616491453
H           41.85442121271421       50.43467667293788       46.71440976241297
H           43.45379913601633       48.16163927426975       47.61291428938453
H           42.51203035704150       48.25043831171666       46.12848355904082
H           42.59109823960507       45.96088438936756       48.11693238452605
H           40.71544178514095       46.34043172736116       45.74290082859569
H           40.93452654557933       44.83198434538799       46.63057169137650
H           40.22817281304232       46.22468385001945       47.43679200909050
H           43.26907709322891       46.33319593690165       45.17774213365635
H           43.12278879077417       44.74740568245850       45.91856827358028
H           45.09818080698044       46.78802562385160       46.98108541511512
H           44.48547911117768       44.80386335096934       48.39597409337894
H           45.02070129483064       43.73908458701780       47.09560316323783
H           46.17736079559953       44.78570489373283       47.91876915670465
H           45.55331978830400       46.56061215410165       44.63816269542477
H           45.29863129333077       44.81819051014182       44.68462787350019
H           47.36957724029784       44.48679870482004       45.91699203609289
H           48.85811984220726       45.01229200983682       44.02993577556269
H           47.27290526723645       44.57084326266934       43.41016187367415
H           47.75326661866649       46.26685311604733       43.47001675321864
H           47.46263167085252       46.57944666511216       47.19562393849107
H           47.63005876739983       47.51203471213592       45.71066605470711
H           49.84894456879052       46.61079900457764       45.31863765943562
H           49.52161400688827       47.53486626691640       48.20720577093394
H           50.96355602839037       47.71799221159073       47.21364006730709
H           49.49275140654937       48.59134033674453       46.79216165906545
H           49.59511814669231       44.34660217418945       46.19608098183906
H           49.30918389978250       44.96386214309558       47.81942186543410
H           51.63678885866940       45.72283001187410       47.97666084466670
H           52.61062956891544       43.47950444574203       48.15943465901483
H           50.91983850068525       43.42046180366881       48.63746701354378
H           51.39818370125845       42.82818261114056       47.05097515817646
H           52.00432190233677       46.22540889381154       45.59719109238517
H           51.95044612560181       44.51766052663007       45.19465885423092
H           53.94122608592766       45.23603648507279       47.29141500065478
H           54.24319725307708       43.71048482890176       44.67126291511411
H           55.36073223038645       43.70251533100830       46.03635646291352
H           53.76990178946212       42.96430902011483       46.19638674375129
H           54.06082417520264       46.39557625439708       44.50165165276813
H           55.54038807621402       45.96867048393096       45.34477174066284
H           53.51759385030687       47.76660649553951       46.68620290061926
H           55.49901908792892       48.46819328880432       47.97080928010943
H           55.33991791779561       46.71607918464495       48.04018504838306
H           56.53441088845443       47.45062152577182       46.97234036556549
H           55.41352769782475       48.41381016402438       44.46043181315076
H           55.49564224915884       49.48149248585565       45.84586589926004
H           54.09159222742844       50.39438486534865       44.13810390028331
H           52.21048097946839       48.02236221642185       44.45379080562375
H           52.00786250846281       49.40024434140375       43.38321379820342
H           53.32011758396216       48.25929404302485       43.10139429134232
H           52.31625791627019       49.48915538656323       46.42871747384469
H           52.01472846230605       50.83867807763897       45.34753477962647
H           54.28602748820139       50.67371217984849       47.36420464747107
H           54.61886365207794       53.09124892952582       46.74868910041823
H           55.00907699977211       51.99033691541513       45.43298546391394
H           53.48568681781795       52.87558676150721       45.41500640942060
H           51.77721905788032       52.38906638724524       47.26818425216062
H           53.05893538912788       52.53319686887156       48.46344890696146
H           51.27728057698629       50.08497338348420       48.12129042371450
H           53.43065317397679       50.75100414006196       50.17022665904971
H           52.28921410926220       49.41500100830411       50.31441620451417
H           53.45722890747846       49.42982622495942       48.99992143421263
H           51.30469721138356       52.15932525237890       50.33131893955018
H           50.32699328349444       50.69799298496574       50.26386759103417
H           50.02534471346933       53.21684638401659       48.60769172404972
H           48.69276979428066       50.52171315442664       48.10773450747591
H           48.17477306620670       52.04834129996395       47.40048631744957
H           49.75064769572702       51.38474112168566       46.98668687764278
H           48.03850668715927       51.57932534976146       50.21629756420721
H           47.73731419711326       53.14047527009727       49.46008037265545
H           49.51321606742730       52.60064289381580       51.87012873149060
H           49.04811745644458       55.17947845543506       50.31134809576634
H           49.73322249170075       55.11979678705203       51.93241672046661
H           50.59243112860688       54.37342328931089       50.59326405738669
H           47.00658024647942       54.28717005854333       51.52123063886606
H           47.92547026041008       54.08840460568787       53.01065612725120
H           46.40346603089552       51.85441418009740       51.61474116423278
H           48.28271380941860       51.00675002502145       52.99991337617833
H           47.74285953628851       52.00382509552995       54.35219721848829
H           46.74156884091072       50.66680654092490       53.78387733122022
H           50.09923012807261       61.32907513502137       67.32086595005904
H           50.90031692487067       61.62585478713721       65.77401126844757
C           64.77828466780259       46.37538237314995       42.75514008549323
C           64.99873148207968       47.87782805739706       42.59488222557518
C           65.78529360334726       48.41503981424921       43.78878352285562
C           63.66515626366304       48.62608945143965       42.46155680054717
C           63.02998741895967       48.52953144768198       41.06914616443137
C           63.72654693021175       49.48863291973110       40.10121064577123
C           61.53074823231078       48.86145506571034       41.08841170643618
C           60.61843799461816       47.91954807887391       41.88731662368070
C           60.90109605523373       46.45004120688726       41.57553411659905
C           59.13953302945230       48.19819290509404       41.57181315768115
C           58.65068098807971       49.62905811703084       41.81720955152436
C           58.74583485631087       49.99030445940524       43.29940529340558
C           57.19516567654900       49.81113670346775       41.36023153526307
C           56.88470144697580       49.51031490782390       39.88739543833517
C           57.88142655543563       50.18305895746307       38.94282751336411
C           55.47990431129321       50.01180886009448       39.51629086544675
C           54.30713340392026       49.44346587956320       40.32136093450339
C           54.19393568838797       47.93017690728450       40.13675880865167
C           52.98146649267593       50.09830858024796       39.89957985622075
C           52.91075721831450       51.62107348679407       40.06548622370369
C           53.19491737797058       52.02351050901546       41.51241454221046
C           51.53524724215774       52.17288806208885       39.66301114024280
C           51.06679568634192       51.89825780750574       38.22724584827601
C           52.15893617164430       52.19945229829481       37.19967863755400
C           49.83764312301253       52.75865293901498       37.88525992737410
C           48.63608581872512       52.62866883400525       38.82593535976709
C           48.08896768271956       51.20141248621595       38.84095481470661
C           47.50097247464289       53.58890589358419       38.43651609435010
C           47.82793700533357       55.09172245036282       38.40061268516907
C           48.45112896142520       55.56872824362499       39.70721503639282
C           46.52345509702627       55.84768640419407       38.09793016670056
C           46.56420109981763       57.38275094549735       38.17187231046682
C           45.16222004724873       57.91229808101790       37.87024333763601
C           47.60039631995130       57.96430123887551       37.20547709633616
C           47.74882375597312       59.49405584560417       37.18035627718745
C           48.64745255286258       59.86288954031183       35.99583032585954
C           48.36207400382329       60.07773691265839       38.46668859477865
C           47.39618602684639       60.49853085265511       39.58277139594754
C           46.41427522254425       61.57152245498643       39.10807520167486
C           48.16024670147377       61.07862653474320       40.78623991378497
C           49.27065764334393       60.21675272211125       41.40101166066999
C           48.73059335767158       58.86729088835087       41.86295953953881
C           49.90739667306724       60.96691609316580       42.58240503479436
C           51.34777760237190       60.54361283352258       42.89856991476083
C           51.70925601803310       60.95662706868776       44.32480090657717
C           52.38406415179806       61.06931586010660       41.88908193639691
C           52.42109254752314       62.59341413844724       41.67242239095907
C           51.74739300347023       62.96404439994447       40.34914698217957
C           53.85889584527332       63.13250479406987       41.64386252724793
C           54.58338712803413       63.17042535761765       42.99344636575157
C           53.99273864745512       64.24845246200157       43.90119112668444
C           56.08064877809055       63.46302643047595       42.81544952215960
C           56.88617962949725       62.44158947089544       42.00729832671903
C           56.84656843627398       61.05437730059194       42.64759891620984
C           58.35370842624989       62.86891879445443       41.87140610694702
C           58.64099139451291       64.19402254444330       41.15312526804569
C           57.96444615959653       64.25662953131122       39.78471476556849
C           60.15951980337377       64.36593587692178       40.98370808478623
C           60.89560830292228       64.77101279270974       42.27050948344911
C           60.81681134505731       66.28347901716572       42.46504041383142
C           62.34933022086762       64.28386608101530       42.21128024312193
C           63.20154088382205       64.54740703969917       43.46143685316440
C           64.65469849065991       64.18412309055674       43.15485133424365
C           62.67702878571825       63.75232899119792       44.65981472547334
C           63.30396151782305       64.09608976307869       46.01693274645714
C           62.74482710222379       63.13318685958788       47.06328049948229
C           63.02706967092283       65.54782639559681       46.45264762183181
C           64.21550233191095       66.51076113377134       46.34549475345366
C           65.32867918283945       66.10885361954169       47.31467003919459
C           63.79287610710284       67.94963827838315       46.68300838066067
C           62.78946466935813       68.62578358805024       45.73859557001746
C           63.37371512064624       68.79427872506949       44.33699236859181
C           62.36507933219423       69.99335615953855       46.31698372668060
C           60.84774442529207       70.18425486082256       46.46771246404797
C           60.16332864374837       70.18712309034710       45.10293746324898
C           60.58559477762361       71.49439743887446       47.22417912363260
C           59.13276832621126       71.76569309306994       47.64024326502236
C           59.04490997009743       73.17095301003107       48.23834729718310
C           58.60355636964781       70.72061925471539       48.64074227063337
C           57.60155974899914       69.72977016830633       48.03481668012261
C           56.26350136613541       70.41318943167843       47.75823060939007
C           57.38872302911291       68.51505352734893       48.94984970407808
C           56.95116879497711       67.25705478287840       48.18464975859474
C           56.25430510428989       66.28025089785500       49.12930805057375
C           58.17057844814321       66.60153612992046       47.52085082029632
C           57.85771454189627       65.64518535611430       46.35851022892443
C           58.83858795932598       64.47161115646115       46.37645195594860
C           57.93864675744560       66.33190073909039       44.98925975332754
C           56.83120346185650       67.34403995954749       44.71136515379573
C           56.89027568317383       67.85704777704599       43.27694270537535
H           64.25378111837492       45.95965532365511       41.89778555483717
H           65.73248190448717       45.85842395660706       42.84447429339131
H           64.19284695904896       46.17320033319980       43.65029643689389
H           56.09866311530866       68.58088278155924       43.09332031580615
H           57.84566087576786       68.34125736591081       43.08242341388494
H           56.77223722425468       67.03770520179496       42.56990432200566
H           58.90839632357811       66.82726423874284       44.89528147258351
H           57.89221343527870       65.56095047867694       44.21600907764301
H           58.84617774838244       67.37747772813762       47.15528451538972
H           58.71087660809212       66.05367617392578       48.29703092279388
H           56.23222182869463       67.54736217018258       47.41400825634825
H           55.97951365700595       65.36690281203452       48.60756715096200
H           56.90723355244435       66.01941435550860       49.95939001423629
H           55.34609556808415       66.72271126740289       49.53398267036085
H           58.31502182255502       68.28661070312647       49.48330035562555
H           56.63781662322098       68.76714266279957       49.70220411536358
H           59.45006984679503       70.16803149965935       49.05167951554353
H           58.11977496564997       71.22819955249916       49.47759749867509
H           56.84216280639455       65.25157514678646       46.47998178649694
H           58.77428622037404       63.92217513346118       47.31270000165097
H           58.63210245832661       63.77944496356155       45.56223579187245