3864
 energy: -5104.268871820835 gnorm: 0.000889465543 xtb: 6.6.1 (8d0f1dd)
C           55.74993696835487       49.18002176528784       29.10964750243775
C           54.50133996906301       49.78130496049626       29.20125460222512
C           53.37658965211430       49.00824492235735       28.93625497814271
C           53.49658221548492       47.67323731048842       28.59548032663905
C           54.74741389947498       47.08501398579947       28.51251086470921
C           55.87561387823312       47.84457563413881       28.76849016749282
C           54.38001320410611       51.22748577762900       29.61802060464640
C           53.60606884114431       52.04399701917389       28.58186038004489
C           53.72306634049257       51.26878373197759       31.00515875692918
C           53.61720990746391       52.65290167107142       31.66481073075457
C           52.86208388534843       52.46388590495079       32.95790484984283
C           51.53322199230433       52.85347881757206       33.05523644256159
C           50.80968093550618       52.62407993144076       34.21183037142453
C           51.40700304883142       52.00550851739055       35.29573918273024
C           52.73360401128063       51.62176000171102       35.21411738856774
C           53.45066463415064       51.84340098617853       34.05303635687862
C           54.99819387708953       53.28924529442473       31.86566277740514
C           54.95244515467061       54.53397577150605       32.76202603935102
C           53.87571239020517       55.49180434878818       32.31459577239897
C           52.84605039964888       55.83225668251212       33.18134958471161
C           51.84781950991758       56.70799589635666       32.79596619922953
C           51.86384732573896       57.26070160695319       31.52769898540602
C           52.88400929134351       56.92970538860595       30.65167705543903
C           53.88046422683838       56.05328458907167       31.04294014890905
C           56.29898453228560       55.27550807355715       32.79746168014989
C           57.51846794450057       54.42630872950831       33.19595432113152
C           58.75656164940736       55.27650513112805       33.03808578284911
C           58.96380569040024       56.40566754726521       33.82275654021439
C           60.06759460776313       57.21488021639553       33.63130258650718
C           60.99474303059531       56.90237324481925       32.65174794558009
C           60.80968644375120       55.77550597430798       31.87051371635174
C           59.69701284413085       54.97462514622244       32.06160019645652
C           57.40348129430198       53.85444333152165       34.61226002565306
C           58.40390760133146       52.71494233355342       34.87113450364657
C           57.98242974438901       51.51348372889455       34.06016778995918
C           56.88046847941382       50.74881932246400       34.43111694389951
C           56.43605657169832       49.70385286203698       33.63971047255875
C           57.09140301492310       49.40184260977842       32.45738417992567
C           58.20464375223526       50.13721063467977       32.08885925955941
C           58.64570380306119       51.18113132146666       32.88530640690818
C           58.46240144050766       52.38858270591300       36.37017164873914
C           59.29781832131920       53.38786349524385       37.19138415117882
C           58.76671776767531       53.45215882949589       38.60202620867388
C           58.81993757862310       52.33619121115765       39.42956287814661
C           58.40002595635009       52.41047705732619       40.74506867642282
C           57.89020648962353       53.59645542504146       41.24379067291989
C           57.78354015351351       54.69974886237394       40.41593129044678
C           58.22469070288054       54.62684516441978       39.10579989052481
C           60.78709348033200       53.00988601400765       37.19268023284194
C           61.61885306934573       53.92123157331112       38.10706594569971
C           61.69777627123798       55.33436723761453       37.59160811547509
C           62.27804290466797       55.62784966678960       36.36395075899016
C           62.41780739738787       56.93613557388922       35.94172736641342
C           61.96938717456064       57.97721852170353       36.73579736986433
C           61.37353825502340       57.69890719714135       37.95276214653094
C           61.24093324622819       56.38762519642875       38.37307894424853
C           63.02806560403344       53.34831674258749       38.31969922422756
C           63.86504569492483       54.22072566426188       39.26924993485894
C           64.59120889137057       55.32108585879497       38.53866501841307
C           64.41792187878744       56.64786162789748       38.90975054247427
C           65.07975571715933       57.66618790296231       38.24861476875845
C           65.94631186459060       57.37020667840708       37.21145803721715
C           66.15291651294669       56.04905990259086       36.85176665799156
C           65.48335371001721       55.03510244953458       37.51157100003327
C           64.88118867140004       53.38448872084344       40.06659440963777
C           64.23132329825529       52.62601168669985       41.22937911271799
C           63.53283234969467       53.55244384507907       42.19831736553716
C           64.17787508969056       54.64581159932669       42.76554952269051
C           63.53593780767610       55.44125705506228       43.70013073399088
C           62.24102534768559       55.15118538798389       44.09833596305560
C           61.58181996521582       54.07520795954159       43.52973219273511
C           62.22213072345454       53.29422263335537       42.58356209883633
C           65.26362783877079       51.76117196123928       41.98472405243859
C           65.28860006418564       50.30115119439019       41.50013982811072
C           65.81480570249254       50.19981384226075       40.09311248623732
C           64.97020841003786       49.83717444624087       39.05051813276436
C           65.43670422425286       49.75710853672559       37.75007134905972
C           66.76280680348401       50.03668578567382       37.46991780684079
C           67.61568166574193       50.39791447624010       38.49970469982146
C           67.14459607767928       50.47916645942461       39.79735133398436
C           66.09769105057254       49.43075919762209       42.47374705490920
C           66.16628089259308       47.94033077174947       42.08889445897119
C           66.86030544508468       47.18584082327210       43.19509766684894
C           66.23689196990965       46.95598742461680       44.41651363497397
C           66.87709206265602       46.25404630917092       45.42043387604474
C           68.16358067482489       45.78244757154462       45.22600447134916
C           68.80145866284055       46.01485631785030       44.02010202643144
C           68.15138060725631       46.70781654935569       43.01414215036397
C           64.76749364850491       47.37526602052942       41.79617834590997
C           64.68855660628989       45.84257857398719       41.77121625619155
C           65.84996757740197       45.23114715680383       41.02983077783453
C           66.58781088120267       44.20378206776761       41.60239733982850
C           67.64513521788857       43.62268056688448       40.92553380793664
C           67.98433863935311       44.06542718631078       39.65900910149424
C           67.25436260819846       45.08733597122767       39.07524842349117
C           66.19397277021443       45.66025370242973       39.75291286118018
C           63.38905331896104       45.33430457711267       41.11702699460393
C           62.08016507590978       45.85506581364903       41.73494548253171
C           61.78806342520761       47.27434609525523       41.32067182588344
C           61.65489108298758       47.62140045497535       39.98091659481040
C           61.40929242846655       48.93174955862976       39.60943815197748
C           61.29422348132996       49.91984076413068       40.57330528173874
C           61.39681421252036       49.58119239715322       41.91140894507115
C           61.63186982860035       48.26895019669568       42.27828058659237
C           60.92298834199822       44.93386725874453       41.31170340648308
C           59.55056860152396       45.44780483910234       41.75978868438774
C           59.42112219061069       45.53780035572382       43.26230463622221
C           59.01772629318352       46.72325092139114       43.86388223172190
C           58.82385894650125       46.80426970291836       45.23198540369211
C           59.01997729622404       45.68779425194344       46.02556325225669
C           59.41066276443214       44.49625245151089       45.43797243873082
C           59.61281525217078       44.42364126755275       44.07093864960398
C           58.41318332261947       44.55023001294737       41.25244423985735
C           58.10014678958493       44.64115678583912       39.74973270424692
C           59.01119033129004       43.77357364379698       38.92312501288963
C           59.05455224053745       42.39663428065772       39.10853136875005
C           59.90122949813489       41.60375804521595       38.35662803308922
C           60.71944969553563       42.17490741034514       37.39708053221577
C           60.67318184248328       43.54256901523867       37.18895227814536
C           59.82408197600132       44.33194617148913       37.94406527343278
C           56.62646130325214       44.24307668649044       39.56303811481056
C           56.20102483627362       43.93119216909374       38.12340096452289
C           56.66116625575857       44.96297529596468       37.12956234042866
C           57.27768138349596       44.56671170558894       35.94967848472739
C           57.69895438112068       45.50033931780011       35.01964734554387
C           57.51126091577432       46.85082850367598       35.25694186604988
C           56.89129773730284       47.25715027629138       36.42586722739696
C           56.46943676982485       46.32170754436195       37.35258231205295
C           54.66919404672410       43.79598579444482       38.09887231513291
C           54.14618807735929       42.88847079953714       36.97839348997586
C           54.75339183278620       41.51103382115358       37.07434715448812
C           54.62405499104942       40.74537783526137       38.22824977986262
C           55.17181230135432       39.47830188617666       38.30575066184019
C           55.86165375826984       38.95169015506115       37.22728276729411
C           56.00259058770175       39.70433902002579       36.07434495383628
C           55.45327067447133       40.97270980418055       36.00179857399299
C           52.61670523607761       42.81738894707131       37.08475977253097
C           51.96488481379156       41.86289207191577       36.07785615157670
C           52.08483099072858       42.35292013873986       34.65738414054463
C           52.77582227980152       41.59911155334917       33.71648943271551
C           52.87114438276233       42.01819451044754       32.40123792680627
C           52.27053512689451       43.20029403511834       32.00189912075949
C           51.57813895728741       43.95944122124585       32.92846889703393
C           51.48941726915395       43.53780293515923       34.24180010026902
C           50.49443442222356       41.65219277851686       36.46338866285707
C           49.75777664244466       40.69744022890235       35.51679970921629
H           55.39188670926337       51.63707299599931       29.69660048363406
H           52.71175289207432       50.86194992001905       30.92329271930074
H           54.29120899912818       50.61097002775842       31.66875315059106
H           53.02054441983619       53.30846457951021       31.02191897481566
H           55.66786159804580       52.54989548818313       32.30733772556081
H           55.40467462015035       53.56656629550791       30.89142575557045
H           54.69651642587819       54.21398197513493       33.77624869350829
H           56.49862522521355       55.69602925714800       31.80811925540518
H           56.20440398733640       56.11491884364209       33.48912673563107
H           57.59310116091307       53.59092471664095       32.49350462482524
H           56.39786761202251       53.45984797967020       34.76198266461954
H           59.39583209095507       53.03790656855255       34.53614317747837
H           57.44382709573762       52.38312739333686       36.76458331791483
H           58.87196995677989       51.38427433565867       36.50001718493753
H           59.20990590401281       54.38471126512576       36.74577307444067
H           60.89862684885004       51.97960878233781       37.53822156304561
H           61.17154234099156       53.05635683935903       36.17206817007833
H           61.12908903489109       53.94669114805325       39.08753658432858
H           62.93331778587396       52.34593653710908       38.74108574838979
H           63.53709398444159       53.24925081748425       37.36023034384296
H           63.18786864536222       54.68972156666933       39.99172178379157
H           63.47336281565649       51.95323708553428       40.81746186112928
H           66.25711591320469       52.20360619194949       41.89326900799357
H           65.00798560906303       51.75770580942876       43.04517924176096
H           64.25490768086772       49.94277953038484       41.50861777332874
H           67.11857865894710       49.81274694635574       42.55214004665709
H           65.64817825740904       49.51468502191085       43.46306348826704
H           66.77444664453091       47.84856504334189       41.18197610462614
H           64.07460436506985       47.74060982506356       42.55232845770469
H           64.44092487283503       47.76016320273944       40.83070818922135
H           64.72142787446649       45.47749694905815       42.80357936950849
H           63.41030784443382       45.58370456386486       40.05451326545955
H           63.39207328178529       44.24214791966533       41.18429863997750
H           62.16739624287369       45.82106667169035       42.82715456099724
H           60.92312813568948       44.84121669696304       40.22517087276758
H           61.09862769890779       43.93474225638606       41.71591691804663
H           59.40731026484500       46.44937294328950       41.33977613963889
H           58.64299075364443       43.51470812559228       41.49990233642090
H           57.50731587287164       44.83012680219750       41.79527832593511
H           58.22466651540739       45.67743783608030       39.41835532997099
H           56.41871550125712       43.35346870786723       40.16167964577328
H           56.00664013626412       45.05190273802472       39.95068623714017
H           56.63901301577259       42.96876959733129       37.83705931238509
H           54.34191867711638       43.38647613411332       39.05603305917838
H           54.22463817712512       44.78794435730624       37.99572640182877
H           54.41678566202656       43.31766419556579       36.00623232880724
H           52.35687513836015       42.48287343489767       38.09082028898927
H           52.20813554898960       43.81994793769380       36.95180546930546
H           56.63583844679884       49.76586943561606       29.31097970577618
H           56.85627313557013       47.39419538547877       28.70456026080864
H           54.84145570310879       46.04095360331157       28.24992220282580
H           52.61032915208218       47.08685184639140       28.39799776573799
H           52.39215259083872       49.44920229520956       28.99608472558588
H           51.05629454368311       53.34398556619927       32.21657171880424
H           49.77756716118952       52.93725164862028       34.25861357251186
H           50.84103198336177       51.81936117878182       36.19666158711337
H           53.20991767211247       51.14123344715419       36.05582223436523
H           54.47825673044633       51.52279956459157       33.99091768047391
H           52.82157650909636       55.39272869935618       34.16774360107002
H           51.05124496330454       56.95142928010804       33.48322102753120
H           51.08464527374635       57.94345231674257       31.21998008225217
H           52.90221847641737       57.35498861002551       29.65767529192308
H           54.66613153904908       55.80364997606289       30.34371946340802
H           58.25022452256434       56.67184316574274       34.58850890464929
H           60.20181155311987       58.09442653816935       34.24400521224464
H           61.85518744230770       57.53686236990120       32.49404220229930
H           61.52932760143184       55.52366092063976       31.10399215247239
H           59.55283159584918       54.10502866656201       31.43447828434511
H           57.56773019369562       54.65061639611833       35.33939003823659
H           56.35902815835201       50.97328661256403       35.34973902153595
H           55.57498733511448       49.12053428421337       33.93677706610961
H           56.73494747810302       48.59436661728687       31.83373908398953
H           58.73307350274006       49.89893921053113       31.17571558982099
H           59.51821130020005       51.74787604494183       32.58874598756185
H           59.19889877240887       51.40238148249716       39.04039227740804
H           58.47493437035774       51.54286295590255       41.38408916375309
H           57.57848693158805       53.65782011462110       42.27448256650651
H           57.36692028086908       55.62364068075191       40.79038634410301
H           58.15702032242233       55.49684304605695       38.46627030483538
H           62.64485286284671       54.83131941764113       35.73224558026865
H           62.89048857424611       57.14472239344447       34.99277805176993
H           62.08932587598564       59.00047167216484       36.40725155927509
H           61.03527033474768       58.50738473164185       38.58603535595228
H           60.79018920239768       56.17314599493736       39.33288718348233
H           63.74653962569457       56.89080463161224       39.72003530956652
H           64.91476747267485       58.69310834243903       38.54320246884107
H           66.46334712089248       58.16256190533116       36.68895523218018
H           66.84029328867177       55.80907929549780       36.05225454735123
H           65.66267339037161       54.00849607093575       37.22386959891821
H           65.37439764094680       52.67441956727802       39.40116410358597
H           65.65266512183345       54.05304986829767       40.45599861998748
H           65.19228304840399       54.88083035303041       42.47669108550920
H           64.05338186420231       56.28999672144683       44.12778726630125
H           61.75735450663608       55.76116560288742       44.84765095183904
H           60.57023394705739       53.83539729471156       43.82381375788994
H           61.69117738023314       52.46926489927492       42.13410422754232
H           63.93169092475168       49.61801717858218       39.25757119816701
H           64.76463374662519       49.47590701094855       36.95150015181007
H           67.13179255952620       49.97528162970822       36.45581932440371
H           68.65275149070266       50.61917239197911       38.28824326952166
H           67.82299916980519       50.76863349379163       40.58697194480373
H           65.23728075775513       47.32372699713552       44.59120070072008
H           66.37106388330855       46.07567584699551       46.35797850917651
H           68.67130018250251       45.23873765887565       46.01015282964025
H           69.80686946918435       45.65085106799211       43.85863141624379
H           68.65242801138955       46.87256732405377       42.06927948734884
H           66.33887576413724       43.86233291072934       42.59772623256314
H           68.20937086039119       42.82488552118119       41.38804895379418
H           68.81376773532288       43.61846984817450       39.12939592777656
H           67.51502282850555       45.44008792260270       38.08696111715192
H           65.63643353002507       46.45729290409939       39.28235317917163
H           61.74478899306147       46.86367654667759       39.21492923827874
H           61.31150396933507       49.18046850753282       38.56055243441612
H           61.12108741733145       50.94578308726896       40.28213455774703
H           61.29471417412339       50.33794286170772       42.67430564793130
H           61.70047697774184       48.01148048712371       43.32578766390660
H           58.85220812404843       47.59488198293675       43.24726230058005
H           58.51189145062438       47.73865453531462       45.67529705643439
H           58.86724665426140       45.74619614422225       47.09294229601089
H           59.55234447742884       43.61414550205750       46.04473285817836
H           59.92047628191923       43.48529773823394       43.63185441416061
H           58.41424214745835       41.93549184047161       39.84502754462758
H           59.92812275100970       40.53406073729028       38.51515154289962
H           61.38601636357004       41.55636760013246       36.81215077130893
H           61.30155966139041       43.99452708126294       36.43346818463674
H           59.78968450064321       45.39867295070957       37.76681431209770
H           57.44044402477104       43.51294988213058       35.76308356370266
H           58.18146544292124       45.17327365085588       34.10787490796228
H           57.84611609459049       47.58130611110602       34.53437656913944
H           56.74004828629806       48.30975780294432       36.61589638179873
H           55.99542684656883       46.65802092994076       38.26222655402837
H           54.09482863974974       41.13930395630316       39.08208325164019
H           55.05999627394658       38.89697908489449       39.20998147994438
H           56.28943533463974       37.96024304045125       37.28177991513554
H           56.54246008435967       39.30192936514926       35.22743004177894
H           55.56760354336221       41.55328114321235       35.09547802378904
H           50.93978802458216       44.14667983845953       34.94105304391917
H           51.10390347662584       44.88234548275946       32.62643893772830
H           52.34224226463407       43.52755580196252       30.97410770443220
H           53.41261128335162       41.41680151840959       31.68326263474250
H           53.23841777391913       40.66835692501374       34.01699362175866
H           53.65805179514584       53.10474482829888       28.81427068333756
H           54.02891516820296       51.88986667369074       27.59094665628084
H           52.55916794526384       51.75165418062134       28.55727951107718
H           52.47639622436480       40.89667126175458       36.14596550492840
H           50.45259246495053       41.26187869760196       37.48140348561258
H           49.97669001157283       42.61271395312284       36.46026387037072
C           48.33008954419579       40.45901735688025       36.03117276223310
C           50.50200439391070       39.39753056691448       35.34819845300093
C           50.97886432663017       38.68479920181012       36.44303612760677
C           51.68489428643903       37.50800792051685       36.27434092980574
C           51.91595658291023       37.01412922557048       35.00210597503411
C           51.43672229432492       37.70590636576987       33.90295124545118
C           50.73963141279063       38.88854382359130       34.07793687506720
H           50.81394842697182       39.05069197520797       37.44531484052960
H           52.05212292601861       36.97394568031171       37.13822969519565
H           52.46857742863600       36.09467440188067       34.86765381698693
H           51.61216238263979       37.32699449644221       32.90541244234890
H           50.38397526021814       39.42984640808591       33.21171439004851
C           47.42932736117751       39.77685575928419       34.99597138405320
H           48.36101241709575       39.84863816389620       36.93535939931354
H           47.88334565509561       41.42006683683569       36.29973751089183
C           46.00572291121478       39.77259630821722       35.47577921821267
C           45.49204213392935       38.69694420362829       36.18913417924232
C           44.19650398258629       38.72760437552976       36.67473879199928
C           43.39442603920929       39.83225493222402       36.44865187099272
C           43.89404872179302       40.90575951632846       35.73180075383765
C           45.19207800944584       40.87800450898369       35.25499095355433
H           46.11084666925709       37.82849337419299       36.36650719664636
H           43.80753770846554       37.88884652935450       37.23255716259109
H           42.38262687309493       39.84862185360198       36.82859457125987
H           43.26814888503219       41.76509581803228       35.53849124212017
H           45.57806562266812       41.72058957063559       34.69751766008609
H           49.69449865992918       41.17814051153278       34.53374378550997
H           47.49349093512166       40.32390567101167       34.05218674385016
H           47.77654919156804       38.75591870272316       34.82374130231924
C           44.53998735907933       35.30793337608340       50.83794486108057
C           43.78961709373888       35.39806774064584       52.00493836935787
C           42.52989064901343       35.97425439279531       51.93560666679949
C           42.03788625765641       36.47292665229283       50.74373875466656
C           42.81235653800525       36.42636674959324       49.59775073444074
C           44.06324259918841       35.83430237108886       49.65117738754913
C           44.33488609143109       34.91933429290569       53.32807481831887
C           44.23398147357808       33.39642091780855       53.42274434928365
C           45.77892174819309       35.41057231706885       53.51409582013264
C           46.22044299009404       35.56728021920819       54.97832014048615
C           47.72100318865326       35.69979367845894       55.02253221085893
C           48.37577629723917       36.69910491508653       54.31211618494188
C           49.75653450588637       36.77134568706806       54.30255218332067
C           50.50916489188989       35.85610423453224       55.01823599056590
C           49.86592887897466       34.87692580314189       55.75417495729673
C           48.48487253845616       34.79626012370558       55.74916946984887
C           45.53349362597179       36.77631339024408       55.62325351394277
C           45.93755296755812       37.02444939398654       57.08169944352901
C           45.74575304918473       35.79986565239462       57.93850426832331
C           44.53894315478880       35.11047165025239       57.96445292258138
C           44.37778428554125       33.99003266384096       58.75851064499314
C           45.41835587175697       33.54661597193986       59.55703513514118
C           46.61976533773266       34.23394864898248       59.55381737780563
C           46.77998082344206       35.34736013041582       58.74835018662315
C           45.13335556676182       38.21014961043598       57.66331082256735
C           45.95042670619679       39.50514851075935       57.79933575262340
C           46.61188048404706       39.84585185422841       56.48909638863562
C           47.99373090844949       39.80644537613067       56.36558021092285
C           48.60712679815649       40.07708758815006       55.15610117801601
C           47.84317433713851       40.38091117070800       54.04376929103317
C           46.46404264189948       40.43280334719240       54.15425372145236
C           45.85387201761134       40.16919187814531       55.36694260754471
C           45.04298127910231       40.64701812246855       58.29618841519344
C           45.68090386685198       41.52242326124487       59.38637079946876
C           44.64555924646637       42.52089960012224       59.84228119422138
C           44.13023368211459       42.49373183273005       61.13140737358512
C           43.12363803515356       43.36218432551584       61.51768376486995
C           42.62618019776048       44.28743385985642       60.61739639187564
C           43.15297266549801       44.34670813794187       59.33948662994872
C           44.15062314288335       43.47156428018748       58.95666968527245
C           46.98088918287946       42.21776496882586       58.92632857214711
C           48.20509659697852       41.76244739428689       59.73599487345788
C           49.49817053942975       42.22747225131435       59.11194591748607
C           50.48688486603000       41.31206473530025       58.77140369525861
C           51.70511420235684       41.72823759154791       58.26322897218947
C           51.95350362981176       43.07751765007095       58.08193752994793
C           50.97126717261181       43.99933944347553       58.40079201095583
C           49.75566901027345       43.57780787977494       58.90778015465005
C           48.11675827043422       42.26392162560786       61.18425688347961
C           49.20844595416339       41.66995283022535       62.08665897829123
C           49.15269365861685       40.16412650467446       62.09322180024557
C           48.01081459842307       39.48710311896470       62.50604053498254
C           47.96060473787566       38.10556960858004       62.49793401479359
C           49.05527592896951       37.37114647628440       62.07654104831735
C           50.19831179634102       38.03198311520104       61.66365508393095
C           50.24248812826394       39.41401253810363       61.67096182341954
C           49.08682600229576       42.24788232365101       63.50532796108870
C           50.40112473700916       42.15769346096291       64.28968376440260
C           50.72116315279881       40.73188812254157       64.66491821209299
C           49.84355661742837       39.97135777230773       65.42897791186031
C           50.13992441555273       38.66230210019545       65.75996712735135