      -----------------------------------------------------------      
     |                   =====================                   |     
     |                           x T B                           |     
     |                   =====================                   |     
     |                         S. Grimme                         |     
     |          Mulliken Center for Theoretical Chemistry        |     
     |                    University of Bonn                     |     
      -----------------------------------------------------------      

   * xtb version 6.6.1 (8d0f1dd) compiled by 'stahn@M-Bot' on 2023-08-01

   xtb is free software: you can redistribute it and/or modify it under
   the terms of the GNU Lesser General Public License as published by
   the Free Software Foundation, either version 3 of the License, or
   (at your option) any later version.
   
   xtb is distributed in the hope that it will be useful,
   but WITHOUT ANY WARRANTY; without even the implied warranty of
   MERCHANTABILITY or FITNESS FOR A PARTICULAR PURPOSE.  See the
   GNU Lesser General Public License for more details.
   
   Cite this work as:
   * C. Bannwarth, E. Caldeweyher, S. Ehlert, A. Hansen, P. Pracht,
     J. Seibert, S. Spicher, S. Grimme, WIREs Comput. Mol. Sci., 2020, 11,
     e01493. DOI: 10.1002/wcms.1493
   
   for GFN2-xTB:
   * C. Bannwarth, S. Ehlert and S. Grimme., J. Chem. Theory Comput., 2019,
     15, 1652-1671. DOI: 10.1021/acs.jctc.8b01176
   for GFN1-xTB:
   * S. Grimme, C. Bannwarth, P. Shushkov, J. Chem. Theory Comput., 2017,
     13, 1989-2009. DOI: 10.1021/acs.jctc.7b00118
   for GFN0-xTB:
   * P. Pracht, E. Caldeweyher, S. Ehlert, S. Grimme, ChemRxiv, 2019, preprint.
     DOI: 10.26434/chemrxiv.8326202.v1
   for GFN-FF:
   * S. Spicher and S. Grimme, Angew. Chem. Int. Ed., 2020, 59, 15665-15673.
     DOI: 10.1002/anie.202004239
   
   for ALPB and GBSA implicit solvation:
   * S. Ehlert, M. Stahn, S. Spicher, S. Grimme, J. Chem. Theory Comput.,
     2021, 17, 4250-4261. DOI: 10.1021/acs.jctc.1c00471
   
   for DFT-D4:
   * E. Caldeweyher, C. Bannwarth and S. Grimme, J. Chem. Phys., 2017,
     147, 034112. DOI: 10.1063/1.4993215
   * E. Caldeweyher, S. Ehlert, A. Hansen, H. Neugebauer, S. Spicher,
     C. Bannwarth and S. Grimme, J. Chem. Phys., 2019, 150, 154122.
     DOI: 10.1063/1.5090222
   * E. Caldeweyher, J.-M. Mewes, S. Ehlert and S. Grimme, Phys. Chem. Chem. Phys.
     2020, 22, 8499-8512. DOI: 10.1039/D0CP00502A
   
   for sTDA-xTB:
   * S. Grimme and C. Bannwarth, J. Chem. Phys., 2016, 145, 054103.
     DOI: 10.1063/1.4959605
   
   in the mass-spec context:
   * V. Asgeirsson, C. Bauer and S. Grimme, Chem. Sci., 2017, 8, 4879.
     DOI: 10.1039/c7sc00601b
   * J. Koopman and S. Grimme, ACS Omega 2019, 4, 12, 15120-15133.
     DOI: 10.1021/acsomega.9b02011
   
   for metadynamics refer to:
   * S. Grimme, J. Chem. Theory Comput., 2019, 155, 2847-2862
     DOI: 10.1021/acs.jctc.9b00143
   
   for SPH calculations refer to:
   * S. Spicher and S. Grimme, J. Chem. Theory Comput., 2021, 17, 1701-1714
     DOI: 10.1021/acs.jctc.0c01306
   
   with help from (in alphabetical order)
   P. Atkinson, C. Bannwarth, F. Bohle, G. Brandenburg, E. Caldeweyher
   M. Checinski, S. Dohm, S. Ehlert, S. Ehrlich, I. Gerasimov, C. Hölzer
   A. Katbashev, J. Koopman, C. Lavigne, S. Lehtola, F. März, M. Müller,
   F. Musil, H. Neugebauer, J. Pisarek, C. Plett, P. Pracht, F. Pultar,
   J. Seibert, P. Shushkov, S. Spicher, M. Stahn, M. Steiner, T. Strunk,
   J. Stückrath, T. Rose, and J. Unsleber
   
 * started run on 2024/06/17 at 15:17:37.119     

           -------------------------------------------------
          |                Calculation Setup                |
           -------------------------------------------------

          program call               : /home/abt-grimme/AK-bin/xtb input.xyz --input input.inp --opt --gbsa water
          hostname                   : boar057.thch.uni-bonn.de
          coordinate file            : input.xyz
          omp threads                :                     8

   ID    Z sym.   atoms
    1    6 C      1-120, 363-482, 725-844, 1087-1206, 1449-1568, 1811-1930,
                  2173-2292, 2535-2654, 2897-3016
    2    1 H      121-362, 483-724, 845-1086, 1207-1448, 1569-1810,
                  1931-2172, 2293-2534, 2655-2896, 3017-3258

molecular fragmentation (1/2 indicates fragments):
111111111111111111111111111111111111111111111111111111111111111111111111
111111111111111111111111111111111111111111111111111111111111111111111111
111111111111111111111111111111111111111111111111111111111111111111111111
111111111111111111111111111111111111111111111111111111111111111111111111
111111111111111111111111111111111111111111111111111111111111111111111111
112222222222222222222222222222222222222222222222222222222222222222222222
222222222222222222222222222222222222222222222222222222222222222222222222
222222222222222222222222222222222222222222222222222222222222222222222222
222222222222222222222222222222222222222222222222222222222222222222222222
222222222222222222222222222222222222222222222222222222222222222222222222
222222222222222222222222222222222222222222222222222222222222222222222222
222222222222222222222222222222222222222222222222222222222222222222222222
222222222222222222222222222222222222222222222222222222222222222222222222
222222222222222222222222222222222222222222222222222222222222222222222222
222222222222222222222222222222222222222222222222222222222222222222222222
222222222222222222222222222222222222222222222222222222222222222222222222
222222222222222222222222222222222222222222222222222222222222222222222222
222222222222222222222222222222222222222222222222222222222222222222222222
222222222222222222222222222222222222222222222222222222222222222222222222
222222222222222222222222222222222222222222222222222222222222222222222222
222222222222222222222222222222222222222222222222222222222222222222222222
222222222222222222222222222222222222222222222222222222222222222222222222
222222222222222222222222222222222222222222222222222222222222222222222222
222222222222222222222222222222222222222222222222222222222222222222222222
222222222222222222222222222222222222222222222222222222222222222222222222
222222222222222222222222222222222222222222222222222222222222222222222222
222222222222222222222222222222222222222222222222222222222222222222222222
222222222222222222222222222222222222222222222222222222222222222222222222
222222222222222222222222222222222222222222222222222222222222222222222222
222222222222222222222222222222222222222222222222222222222222222222222222
222222222222222222222222222222222222222222222222222222222222222222222222
222222222222222222222222222222222222222222222222222222222222222222222222
222222222222222222222222222222222222222222222222222222222222222222222222
222222222222222222222222222222222222222222222222222222222222222222222222
222222222222222222222222222222222222222222222222222222222222222222222222
222222222222222222222222222222222222222222222222222222222222222222222222
222222222222222222222222222222222222222222222222222222222222222222222222
222222222222222222222222222222222222222222222222222222222222222222222222
222222222222222222222222222222222222222222222222222222222222222222222222
222222222222222222222222222222222222222222222222222222222222222222222222
222222222222222222222222222222222222222222222222222222222222222222222222
222222222222222222222222222222222222222222222222222222222222222222222222
222222222222222222222222222222222222222222222222222222222222222222222222
222222222222222222222222222222222222222222222222222222222222222222222222
222222222222222222222222222222222222222222222222222222222222222222222222
222222222222222222
# atoms in fragment 1/2:   362  2896
 fragment masses (1/2) :     1685.21    13481.68
CMA distance (Bohr)    :  12.188
constraining FC (au)   :  0.0500

           -------------------------------------------------
          |                 G F N 2 - x T B                 |
           -------------------------------------------------

        Reference                      10.1021/acs.jctc.8b01176
      * Hamiltonian:
        H0-scaling (s, p, d)           1.850000    2.230000    2.230000
        zeta-weighting                 0.500000
      * Dispersion:
        s8                             2.700000
        a1                             0.520000
        a2                             5.000000
        s9                             5.000000
      * Repulsion:
        kExp                           1.500000    1.000000
        rExp                           1.000000
      * Coulomb:
        alpha                          2.000000
        third order                    shell-resolved
        anisotropic                    true
        a3                             3.000000
        a5                             4.000000
        cn-shift                       1.200000
        cn-exp                         4.000000
        max-rad                        5.000000

      * Solvation model:               GBSA
        Solvent                        water
        Parameter file                 internal GFN2-xTB/GBSA
        Dielectric constant                8.0200E+01
        Reference state                gsolv [1 M gas/solution]
        Free energy shift                  1.8574E-03 Eh       1.1656E+00 kcal/mol
        Temperature                        2.9815E+02 K
        Density                            1.0000E+00 kg/L
        Solvent mass                       1.8000E+01 g/mol
        Interaction kernel             Still
        Born radius scaling (c1)           1.5524E+00
        Born radii integrator          GBOBC
        Born offset                        2.4628E-02 a0       4.6540E-02 AA
        H-bond correction              true
        Ion screening                  false
        Surface tension                    1.0000E-05 Eh       1.5569E+01 dyn/cm
        Grid points                               230 per atom
q/qsh data taken from xtbrestart
CAMM data taken from xtbrestart

          ...................................................
          :                      SETUP                      :
          :.................................................:
          :  # basis functions                6498          :
          :  # atomic orbitals                6498          :
          :  # shells                         4338          :
          :  # electrons                      6498          :
          :  max. iterations                   250          :
          :  Hamiltonian                  GFN2-xTB          :
          :  restarted?                       true          :
          :  GBSA solvation                   true          :
          :  PC potential                    false          :
          :  electronic temp.          300.0000000     K    :
          :  accuracy                    1.0000000          :
          :  -> integral cutoff          0.2500000E+02      :
          :  -> integral neglect         0.1000000E-07      :
          :  -> SCF convergence          0.1000000E-05 Eh   :
          :  -> wf. convergence          0.1000000E-03 e    :
          :  Broyden damping             0.4000000          :
          ...................................................

 iter      E             dE          RMSdq      gap      omega  full diag
   1  -3472.1257302 -0.347213E+04  0.801E-05   10.87       0.0  T
   2  -3472.1257302 -0.456794E-08  0.630E-05   10.87      27.8  T
   3  -3472.1257302 -0.638602E-08  0.326E-05   10.87      53.7  T

   *** convergence criteria satisfied after 3 iterations ***

         #    Occupation            Energy/Eh            Energy/eV
      -------------------------------------------------------------
         1        2.0000           -0.6162146             -16.7681
       ...           ...                  ...                  ...
      3243        2.0000           -0.3876772             -10.5492
      3244        2.0000           -0.3873804             -10.5412
      3245        2.0000           -0.3870119             -10.5311
      3246        2.0000           -0.3862579             -10.5106
      3247        2.0000           -0.3856018             -10.4928
      3248        2.0000           -0.3849886             -10.4761
      3249        2.0000           -0.3844765             -10.4621 (HOMO)
      3250                          0.0149163               0.4059 (LUMO)
      3251                          0.0192183               0.5230
      3252                          0.0206885               0.5630
      3253                          0.0212249               0.5776
      3254                          0.0225102               0.6125
       ...                                ...                  ...
      6498                          0.3734325              10.1616
      -------------------------------------------------------------
                  HL-Gap            0.3993927 Eh           10.8680 eV
             Fermi-level           -0.1847801 Eh           -5.0281 eV

 SCC (total)                   0 d,  0 h,  7 min, 18.793 sec
 SCC setup                      ...        0 min,  1.725 sec (  0.393%)
 Dispersion                     ...        0 min,  3.592 sec (  0.819%)
 classical contributions        ...        0 min,  0.134 sec (  0.031%)
 integral evaluation            ...        0 min,  5.865 sec (  1.337%)
 iterations                     ...        3 min, 11.127 sec ( 43.557%)
 molecular gradient             ...        3 min, 47.756 sec ( 51.905%)
 printout                       ...        0 min,  8.595 sec (  1.959%)

         :::::::::::::::::::::::::::::::::::::::::::::::::::::
         ::                     SUMMARY                     ::
         :::::::::::::::::::::::::::::::::::::::::::::::::::::
         :: total energy           -3426.738325847317 Eh    ::
         :: total w/o Gsasa/hb     -3426.643297113837 Eh    ::
         :: gradient norm              0.634528583104 Eh/a0 ::
         :: HOMO-LUMO gap             10.868029582119 eV    ::
         ::.................................................::
         :: SCC energy             -3472.125730178386 Eh    ::
         :: -> isotropic ES            0.281326908268 Eh    ::
         :: -> anisotropic ES          1.283564855547 Eh    ::
         :: -> anisotropic XC          2.134491179044 Eh    ::
         :: -> dispersion             -4.176794650240 Eh    ::
         :: -> Gsolv                  -0.029463350646 Eh    ::
         ::    -> Gelec                0.065565382834 Eh    ::
         ::    -> Gsasa               -0.092517719345 Eh    ::
         ::    -> Ghb                 -0.004368457262 Eh    ::
         ::    -> Gshift               0.001857443127 Eh    ::
         :: repulsion energy          44.718925144598 Eh    ::
         :: add. restraining           0.000000000000 Eh    ::
         :: total charge              -0.000000000008 e     ::
         :::::::::::::::::::::::::::::::::::::::::::::::::::::

      ----------------------------------------------------------- 
     |              Fast Inertial Relaxation Engine              |
      ----------------------------------------------------------- 

          ...................................................
          :                      SETUP                      :
          :.................................................:
          :   energy convergence        0.5000000E-05 Eh    :
          :   grad. convergence         0.1000000E-02 Eh/a0 :
          :   optimization log               true           :
          :   writing optlog all                1     steps :
          :   Hessian reset                    20     steps :
          :   time step scaling                 5     steps :
          :   maximium step len.        1.0000000     a0    :
          :   initial time step         0.2500000     fs    :
          :   maximum time step         1.2500000     fs    :
          :   power reset thr           0.0000000     au    :
          :   alpha parameter           0.1000000           :
          :   BFGS update                   false           :
          :   preconditioning               false           :
          ...................................................

........................................................................
.............................. CYCLE    1 ..............................
........................................................................

 iter      E             dE          RMSdq      gap      omega  full diag
   1  -3472.3604253 -0.347236E+04  0.749E-03   10.87       0.0  T
   2  -3472.3604701 -0.447900E-04  0.393E-03   10.87       1.0  T
   3  -3472.3604705 -0.417761E-06  0.183E-03   10.87       1.0  T
   4  -3472.3604707 -0.147878E-06  0.222E-04   10.87       7.9  T
   5  -3472.3604707 -0.364475E-07  0.141E-04   10.87      12.4  T
     SCC iter.                  ...        5 min, 17.761 sec
     gradient                   ...        3 min, 48.890 sec
 * total energy  : -3426.7840252 Eh     change    :  -0.4569939E-01 Eh
   gradient norm :     0.6002749 Eh/a0  converged?    E=F G=F D=F
   time step     :     0.2500000 fs     power     :   0.2358066E-05
   step length   :     0.0743654 a0     speed     :   0.7195252E-02

........................................................................
.............................. CYCLE    2 ..............................
........................................................................

 iter      E             dE          RMSdq      gap      omega  full diag
   1  -3472.7063010 -0.347271E+04  0.110E-02   10.88       0.0  T
   2  -3472.7063969 -0.959181E-04  0.575E-03   10.88       1.0  T
   3  -3472.7063979 -0.959908E-06  0.267E-03   10.88       1.0  T
   4  -3472.7063983 -0.360623E-06  0.343E-04   10.87       5.1  T
   5  -3472.7063983 -0.860427E-07  0.224E-04   10.87       7.8  T
     SCC iter.                  ...        4 min, 58.692 sec
     gradient                   ...        3 min, 48.145 sec
 * total energy  : -3426.8468713 Eh     change    :  -0.6284606E-01 Eh
   gradient norm :     0.5513809 Eh/a0  converged?    E=F G=F D=F
   time step     :     0.2500000 fs     power     :   0.3189466E-05
   step length   :     0.1094164 a0     speed     :   0.1058662E-01

........................................................................
.............................. CYCLE    3 ..............................
........................................................................

 iter      E             dE          RMSdq      gap      omega  full diag
   1  -3473.1541708 -0.347315E+04  0.140E-02   10.88       0.0  T
   2  -3473.1543269 -0.156075E-03  0.737E-03   10.88       1.0  T
   3  -3473.1543286 -0.165062E-05  0.341E-03   10.88       1.0  T
   4  -3473.1543292 -0.615184E-06  0.450E-04   10.88       3.9  T
   5  -3473.1543293 -0.143647E-06  0.295E-04   10.88       5.9  T
     SCC iter.                  ...        4 min, 54.976 sec
     gradient                   ...        3 min, 49.145 sec
 * total energy  : -3426.9203024 Eh     change    :  -0.7343108E-01 Eh
   gradient norm :     0.4903186 Eh/a0  converged?    E=F G=F D=F
   time step     :     0.2500000 fs     power     :   0.3654729E-05
   step length   :     0.1416071 a0     speed     :   0.1370125E-01

........................................................................
.............................. CYCLE    4 ..............................
........................................................................

 iter      E             dE          RMSdq      gap      omega  full diag
   1  -3473.6923901 -0.347369E+04  0.166E-02   10.88       0.0  T
   2  -3473.6926052 -0.215130E-03  0.872E-03   10.88       1.0  T
   3  -3473.6926076 -0.244255E-05  0.399E-03   10.88       1.0  T
   4  -3473.6926085 -0.881976E-06  0.543E-04   10.88       3.2  T
   5  -3473.6926087 -0.199528E-06  0.356E-04   10.88       4.9  T
     SCC iter.                  ...        4 min, 54.669 sec
     gradient                   ...        3 min, 48.346 sec
 * total energy  : -3426.9969435 Eh     change    :  -0.7664115E-01 Eh
   gradient norm :     0.4215482 Eh/a0  converged?    E=F G=F D=F
   time step     :     0.2500000 fs     power     :   0.3724035E-05
   step length   :     0.1700724 a0     speed     :   0.1645542E-01

........................................................................
.............................. CYCLE    5 ..............................
........................................................................

 iter      E             dE          RMSdq      gap      omega  full diag
   1  -3474.3069591 -0.347431E+04  0.186E-02   10.88       0.0  T
   2  -3474.3072213 -0.262183E-03  0.975E-03   10.88       1.0  T
   3  -3474.3072246 -0.328259E-05  0.440E-03   10.88       1.0  T
   4  -3474.3072257 -0.112678E-05  0.622E-04   10.88       2.8  T
   5  -3474.3072260 -0.243524E-06  0.405E-04   10.88       4.3  T
   6  -3474.3072261 -0.135886E-06  0.172E-04   10.88      10.2  T
     SCC iter.                  ...        5 min, 51.729 sec
     gradient                   ...        3 min, 47.834 sec
 * total energy  : -3427.0696577 Eh     change    :  -0.7271417E-01 Eh
   gradient norm :     0.3518999 Eh/a0  converged?    E=F G=F D=F
   time step     :     0.2500000 fs     power     :   0.3427383E-05
   step length   :     0.1940729 a0     speed     :   0.1877760E-01

........................................................................
.............................. CYCLE    6 ..............................
........................................................................

 iter      E             dE          RMSdq      gap      omega  full diag
   1  -3475.0551287 -0.347506E+04  0.221E-02   10.88       0.0  T
   2  -3475.0554798 -0.351093E-03  0.116E-02   10.88       1.0  T
   3  -3475.0554848 -0.498624E-05  0.508E-03   10.88       1.0  T
   4  -3475.0554863 -0.153880E-05  0.747E-04   10.88       2.3  T
   5  -3475.0554867 -0.312169E-06  0.475E-04   10.88       3.7  T
   6  -3475.0554868 -0.156723E-06  0.185E-04   10.88       9.4  T
     SCC iter.                  ...        6 min,  0.021 sec
     gradient                   ...        3 min, 48.521 sec
 * total energy  : -3427.1385712 Eh     change    :  -0.6891351E-01 Eh
   gradient norm :     0.2850751 Eh/a0  converged?    E=F G=F D=F
   time step     :     0.2750000 fs     power     :   0.2772821E-05
   step length   :     0.2363897 a0     speed     :   0.2079270E-01

........................................................................
.............................. CYCLE    7 ..............................
........................................................................

 iter      E             dE          RMSdq      gap      omega  full diag
   1  -3475.9310692 -0.347593E+04  0.252E-02   10.88       0.0  T
   2  -3475.9314816 -0.412368E-03  0.132E-02   10.88       1.0  T
   3  -3475.9314889 -0.731216E-05  0.552E-03   10.88       1.0  T
   4  -3475.9314909 -0.200976E-05  0.880E-04   10.88       2.0  T
   5  -3475.9314913 -0.358104E-06  0.550E-04   10.88       3.2  T
   6  -3475.9314914 -0.179426E-06  0.195E-04   10.88       9.0  T
     SCC iter.                  ...        5 min, 53.123 sec
     gradient                   ...        3 min, 48.311 sec
 * total energy  : -3427.1955112 Eh     change    :  -0.5693995E-01 Eh
   gradient norm :     0.2418550 Eh/a0  converged?    E=F G=F D=F
   time step     :     0.3025000 fs     power     :   0.1861147E-05
   step length   :     0.2783315 a0     speed     :   0.2225626E-01

........................................................................
.............................. CYCLE    8 ..............................
........................................................................

 iter      E             dE          RMSdq      gap      omega  full diag
   1  -3476.8975233 -0.347690E+04  0.274E-02   10.88       0.0  T
   2  -3476.8979178 -0.394499E-03  0.145E-02   10.88       1.0  T
   3  -3476.8979277 -0.993559E-05  0.544E-03   10.88       1.0  T
   4  -3476.8979300 -0.227175E-05  0.988E-04   10.87       1.8  T
   5  -3476.8979303 -0.329564E-06  0.599E-04   10.87       2.9  T
   6  -3476.8979305 -0.171000E-06  0.184E-04   10.87       9.5  T
     SCC iter.                  ...        6 min,  4.971 sec
     gradient                   ...        3 min, 48.966 sec
 * total energy  : -3427.2351344 Eh     change    :  -0.3962321E-01 Eh
   gradient norm :     0.2380430 Eh/a0  converged?    E=F G=F D=F
   time step     :     0.3327500 fs     power     :   0.9418820E-06
   step length   :     0.3138258 a0     speed     :   0.2281317E-01

........................................................................
.............................. CYCLE    9 ..............................
........................................................................

 iter      E             dE          RMSdq      gap      omega  full diag
   1  -3477.8773117 -0.347788E+04  0.291E-02   10.88       0.0  T
   2  -3477.8775922 -0.280539E-03  0.158E-02   10.88       1.0  T
   3  -3477.8776043 -0.121259E-04  0.458E-03   10.88       1.0  T
   4  -3477.8776064 -0.204489E-05  0.104E-03   10.87       1.7  T
   5  -3477.8776066 -0.215811E-06  0.595E-04   10.87       2.9  T
   6  -3477.8776067 -0.126955E-06  0.146E-04   10.87      12.0  T
     SCC iter.                  ...        5 min, 53.726 sec
     gradient                   ...        3 min, 47.586 sec
 * total energy  : -3427.2583863 Eh     change    :  -0.2325194E-01 Eh
   gradient norm :     0.2539687 Eh/a0  converged?    E=F G=F D=F
   time step     :     0.3660250 fs     power     :   0.2825589E-06
   step length   :     0.3371645 a0     speed     :   0.2228159E-01

........................................................................
.............................. CYCLE   10 ..............................
........................................................................

 iter      E             dE          RMSdq      gap      omega  full diag
   1  -3478.7766886 -0.347878E+04  0.310E-02   10.88       0.0  T
   2  -3478.7768212 -0.132594E-03  0.175E-02   10.88       1.0  T
   3  -3478.7768344 -0.131564E-04  0.297E-03   10.88       1.0  T
   4  -3478.7768359 -0.148181E-05  0.104E-03   10.87       1.7  T
   5  -3478.7768359 -0.789041E-07  0.522E-04   10.87       3.4  T
   6  -3478.7768360 -0.750588E-07  0.883E-05   10.87      19.8  T
     SCC iter.                  ...        5 min, 51.693 sec
     gradient                   ...        3 min, 47.300 sec
 * total energy  : -3427.2704400 Eh     change    :  -0.1205373E-01 Eh
   gradient norm :     0.2550154 Eh/a0  converged?    E=F G=F D=F
   time step     :     0.4026275 fs     power     :  -0.8530207E-07
   step length   :     0.3499076 a0     speed     :   0.2102156E-01

........................................................................
.............................. CYCLE   11 ..............................
........................................................................
 * reset velocities

 iter      E             dE          RMSdq      gap      omega  full diag
   1  -3478.7594450 -0.347876E+04  0.117E-03   10.87       0.0  T
   2  -3478.7594458 -0.811187E-06  0.674E-04   10.87       2.6  T
   3  -3478.7594459 -0.476939E-08  0.270E-04   10.87       6.5  T
     SCC iter.                  ...        2 min, 56.911 sec
     gradient                   ...        3 min, 48.494 sec
 * total energy  : -3427.2728764 Eh     change    :  -0.2436380E-02 Eh
   gradient norm :     0.2478645 Eh/a0  converged?    E=F G=F D=F
   time step     :     0.2013138 fs     power     :   0.1583112E-06
   step length   :     0.0096900 a0     speed     :   0.1164299E-02

........................................................................
.............................. CYCLE   12 ..............................
........................................................................

 iter      E             dE          RMSdq      gap      omega  full diag
   1  -3478.7251108 -0.347873E+04  0.231E-03   10.87       0.0  T
   2  -3478.7251139 -0.313617E-05  0.133E-03   10.87       1.3  T
   3  -3478.7251139 -0.176747E-07  0.530E-04   10.87       3.3  T
   4  -3478.7251139 -0.816635E-08  0.438E-05   10.87      40.0  T
     SCC iter.                  ...        3 min, 57.221 sec
     gradient                   ...        3 min, 48.084 sec
 * total energy  : -3427.2774787 Eh     change    :  -0.4602241E-02 Eh
   gradient norm :     0.2338507 Eh/a0  converged?    E=F G=F D=F
   time step     :     0.2013138 fs     power     :   0.2945043E-06
   step length   :     0.0191082 a0     speed     :   0.2295941E-02

........................................................................
.............................. CYCLE   13 ..............................
........................................................................

 iter      E             dE          RMSdq      gap      omega  full diag
   1  -3478.6747243 -0.347867E+04  0.337E-03   10.87       0.0  T
   2  -3478.6747311 -0.679002E-05  0.194E-03   10.87       1.0  T
   3  -3478.6747311 -0.445284E-07  0.782E-04   10.87       2.2  T
   4  -3478.6747312 -0.225750E-07  0.739E-05   10.87      23.7  T
     SCC iter.                  ...        4 min,  0.029 sec
     gradient                   ...        3 min, 48.430 sec
 * total energy  : -3427.2837379 Eh     change    :  -0.6259281E-02 Eh
   gradient norm :     0.2134320 Eh/a0  converged?    E=F G=F D=F
   time step     :     0.2013138 fs     power     :   0.3936432E-06
   step length   :     0.0279932 a0     speed     :   0.3363523E-02

........................................................................
.............................. CYCLE   14 ..............................
........................................................................

 iter      E             dE          RMSdq      gap      omega  full diag
   1  -3478.6096215 -0.347861E+04  0.433E-03   10.87       0.0  T
   2  -3478.6096328 -0.113019E-04  0.249E-03   10.87       1.0  T
   3  -3478.6096329 -0.776931E-07  0.101E-03   10.87       1.7  T
   4  -3478.6096329 -0.404875E-07  0.992E-05   10.88      17.7  T
   5  -3478.6096329 -0.115442E-07  0.669E-05   10.88      26.2  T
     SCC iter.                  ...        5 min,  2.540 sec
     gradient                   ...        3 min, 49.580 sec
 * total energy  : -3427.2909669 Eh     change    :  -0.7228932E-02 Eh
   gradient norm :     0.1873333 Eh/a0  converged?    E=F G=F D=F
   time step     :     0.2013138 fs     power     :   0.4451228E-06
   step length   :     0.0360998 a0     speed     :   0.4337567E-02

........................................................................
.............................. CYCLE   15 ..............................
........................................................................

 iter      E             dE          RMSdq      gap      omega  full diag
   1  -3478.5315884 -0.347853E+04  0.516E-03   10.88       0.0  T
   2  -3478.5316046 -0.161756E-04  0.297E-03   10.88       1.0  T
   3  -3478.5316047 -0.104784E-06  0.121E-03   10.88       1.5  T
   4  -3478.5316048 -0.530276E-07  0.113E-04   10.88      15.4  T
   5  -3478.5316048 -0.153091E-07  0.751E-05   10.88      23.3  T
     SCC iter.                  ...        4 min, 59.497 sec
     gradient                   ...        3 min, 49.499 sec
 * total energy  : -3427.2983803 Eh     change    :  -0.7413389E-02 Eh
   gradient norm :     0.1565940 Eh/a0  converged?    E=F G=F D=F
   time step     :     0.2013138 fs     power     :   0.4440507E-06
   step length   :     0.0432065 a0     speed     :   0.5191471E-02

........................................................................
.............................. CYCLE   16 ..............................
........................................................................

 iter      E             dE          RMSdq      gap      omega  full diag
   1  -3478.4428679 -0.347844E+04  0.583E-03   10.88       0.0  T
   2  -3478.4428887 -0.208375E-04  0.336E-03   10.88       1.0  T
   3  -3478.4428888 -0.133557E-06  0.137E-03   10.88       1.3  T
   4  -3478.4428889 -0.676564E-07  0.128E-04   10.88      13.7  T
   5  -3478.4428889 -0.195619E-07  0.845E-05   10.88      20.7  T
     SCC iter.                  ...        4 min, 57.789 sec
     gradient                   ...        3 min, 48.657 sec
 * total energy  : -3427.3051895 Eh     change    :  -0.6809269E-02 Eh
   gradient norm :     0.1226282 Eh/a0  converged?    E=F G=F D=F
   time step     :     0.2013138 fs     power     :   0.3917762E-06
   step length   :     0.0491217 a0     speed     :   0.5902215E-02

........................................................................
.............................. CYCLE   17 ..............................
........................................................................

 iter      E             dE          RMSdq      gap      omega  full diag
   1  -3478.3356634 -0.347834E+04  0.700E-03   10.88       0.0  T
   2  -3478.3356938 -0.303579E-04  0.403E-03   10.88       1.0  T
   3  -3478.3356939 -0.190822E-06  0.166E-03   10.88       1.1  T
   4  -3478.3356940 -0.958080E-07  0.153E-04   10.88      11.5  T
   5  -3478.3356941 -0.281261E-07  0.997E-05   10.88      17.6  T
     SCC iter.                  ...        4 min, 56.065 sec
     gradient                   ...        3 min, 49.126 sec
 * total energy  : -3427.3111816 Eh     change    :  -0.5992020E-02 Eh
   gradient norm :     0.0842060 Eh/a0  converged?    E=F G=F D=F
   time step     :     0.2214451 fs     power     :   0.2841207E-06
   step length   :     0.0595523 a0     speed     :   0.6505005E-02

........................................................................
.............................. CYCLE   18 ..............................
........................................................................

 iter      E             dE          RMSdq      gap      omega  full diag
   1  -3478.2118060 -0.347821E+04  0.802E-03   10.88       0.0  T
   2  -3478.2118466 -0.405961E-04  0.463E-03   10.88       1.0  T
   3  -3478.2118469 -0.253022E-06  0.192E-03   10.88       1.0  T
   4  -3478.2118470 -0.125222E-06  0.176E-04   10.88      10.0  T
   5  -3478.2118470 -0.375067E-07  0.113E-04   10.88      15.5  T
     SCC iter.                  ...        4 min, 56.728 sec
     gradient                   ...        3 min, 49.450 sec
 * total energy  : -3427.3151693 Eh     change    :  -0.3987762E-02 Eh
   gradient norm :     0.0506693 Eh/a0  converged?    E=F G=F D=F
   time step     :     0.2435896 fs     power     :   0.1269321E-06
   step length   :     0.0696786 a0     speed     :   0.6919196E-02

........................................................................
.............................. CYCLE   19 ..............................
........................................................................

 iter      E             dE          RMSdq      gap      omega  full diag
   1  -3478.0813150 -0.347808E+04  0.842E-03   10.88       0.0  T
   2  -3478.0813608 -0.457664E-04  0.489E-03   10.88       1.0  T
   3  -3478.0813611 -0.286941E-06  0.204E-03   10.88       1.0  T
   4  -3478.0813612 -0.137533E-06  0.186E-04   10.88       9.4  T
   5  -3478.0813613 -0.425671E-07  0.116E-04   10.88      15.1  T
     SCC iter.                  ...        4 min, 54.582 sec
     gradient                   ...        3 min, 50.721 sec
 * total energy  : -3427.3161823 Eh     change    :  -0.1012967E-02 Eh
   gradient norm :     0.0553625 Eh/a0  converged?    E=F G=F D=F
   time step     :     0.2679486 fs     power     :  -0.4187023E-07
   step length   :     0.0767830 a0     speed     :   0.6931526E-02

........................................................................
.............................. CYCLE   20 ..............................
........................................................................
 * reset velocities

 iter      E             dE          RMSdq      gap      omega  full diag
   1  -3478.0825827 -0.347808E+04  0.120E-04   10.88       0.0  T
   2  -3478.0825827 -0.555838E-08  0.774E-05   10.88      22.6  T
   3  -3478.0825827 -0.335604E-08  0.339E-05   10.88      51.6  T
     SCC iter.                  ...        2 min, 57.240 sec
     gradient                   ...        3 min, 47.404 sec
 * total energy  : -3427.3162337 Eh     change    :  -0.5143640E-04 Eh
   gradient norm :     0.0550120 Eh/a0  converged?    E=F G=F D=T
   time step     :     0.1339743 fs     power     :   0.5076323E-08
   step length   :     0.0009317 a0     speed     :   0.1682138E-03
 * RMSD in coord.:     0.0348034 a0     energy gain  -0.5779079E+00 Eh

........................................................................
.............................. CYCLE   21 ..............................
........................................................................

 iter      E             dE          RMSdq      gap      omega  full diag
   1  -3478.0890476 -0.347809E+04  0.550E-04   10.88       0.0  T
   2  -3478.0890476 -0.818372E-07  0.312E-04   10.88       5.6  T
   3  -3478.0890476 -0.720775E-09  0.826E-05   10.88      21.2  T
     SCC iter.                  ...        2 min, 56.103 sec
     gradient                   ...        3 min, 49.395 sec
 * total energy  : -3427.3165024 Eh     change    :  -0.2687135E-03 Eh
   gradient norm :     0.0533335 Eh/a0  converged?    E=F G=F D=F
   time step     :     0.2500000 fs     power     :   0.1403837E-07
   step length   :     0.0049622 a0     speed     :   0.4801163E-03

........................................................................
.............................. CYCLE   22 ..............................
........................................................................

 iter      E             dE          RMSdq      gap      omega  full diag
   1  -3478.0994025 -0.347810E+04  0.897E-04   10.88       0.0  T
   2  -3478.0994027 -0.209322E-06  0.510E-04   10.88       3.4  T
   3  -3478.0994027 -0.328691E-08  0.132E-04   10.88      13.2  T
     SCC iter.                  ...        2 min, 58.338 sec
     gradient                   ...        3 min, 48.494 sec
 * total energy  : -3427.3169228 Eh     change    :  -0.4203870E-03 Eh
   gradient norm :     0.0507878 Eh/a0  converged?    E=F G=F D=F
   time step     :     0.2500000 fs     power     :   0.2173436E-07
   step length   :     0.0080862 a0     speed     :   0.7823845E-03

........................................................................
.............................. CYCLE   23 ..............................
........................................................................

 iter      E             dE          RMSdq      gap      omega  full diag
   1  -3478.1131586 -0.347811E+04  0.121E-03   10.88       0.0  T
   2  -3478.1131589 -0.365884E-06  0.686E-04   10.88       2.6  T
   3  -3478.1131589 -0.752607E-08  0.175E-04   10.88      10.0  T
     SCC iter.                  ...        3 min,  1.572 sec
     gradient                   ...        3 min, 48.298 sec
 * total energy  : -3427.3174646 Eh     change    :  -0.5417662E-03 Eh
   gradient norm :     0.0476899 Eh/a0  converged?    E=F G=F D=F
   time step     :     0.2500000 fs     power     :   0.2773118E-07
   step length   :     0.0110550 a0     speed     :   0.1069634E-02

........................................................................
.............................. CYCLE   24 ..............................
........................................................................

 iter      E             dE          RMSdq      gap      omega  full diag
   1  -3478.1296298 -0.347813E+04  0.147E-03   10.88       0.0  T
   2  -3478.1296303 -0.515190E-06  0.838E-04   10.88       2.1  T
   3  -3478.1296303 -0.124091E-07  0.208E-04   10.88       8.4  T
     SCC iter.                  ...        3 min,  2.640 sec
     gradient                   ...        3 min, 48.485 sec
 * total energy  : -3427.3180936 Eh     change    :  -0.6290537E-03 Eh
   gradient norm :     0.0444742 Eh/a0  converged?    E=F G=F D=F
   time step     :     0.2500000 fs     power     :   0.3191641E-07
   step length   :     0.0138243 a0     speed     :   0.1337578E-02

........................................................................
.............................. CYCLE   25 ..............................
........................................................................

 iter      E             dE          RMSdq      gap      omega  full diag
   1  -3478.1479367 -0.347815E+04  0.168E-03   10.88       0.0  T
   2  -3478.1479373 -0.618370E-06  0.958E-04   10.88       1.8  T
   3  -3478.1479373 -0.172977E-07  0.226E-04   10.88       7.8  T
     SCC iter.                  ...        2 min, 55.856 sec
     gradient                   ...        3 min, 49.026 sec
 * total energy  : -3427.3187786 Eh     change    :  -0.6849544E-03 Eh
   gradient norm :     0.0416374 Eh/a0  converged?    E=F G=F D=F
   time step     :     0.2500000 fs     power     :   0.3453736E-07
   step length   :     0.0163639 a0     speed     :   0.1583299E-02

........................................................................
.............................. CYCLE   26 ..............................
........................................................................

 iter      E             dE          RMSdq      gap      omega  full diag
   1  -3478.1691066 -0.347817E+04  0.203E-03   10.88       0.0  T
   2  -3478.1691074 -0.789966E-06  0.116E-03   10.88       1.5  T
   3  -3478.1691074 -0.254581E-07  0.252E-04   10.88       6.9  T
   4  -3478.1691074 -0.997989E-08  0.566E-05   10.88      31.0  T
     SCC iter.                  ...        4 min,  3.415 sec
     gradient                   ...        3 min, 48.316 sec
 * total energy  : -3427.3195755 Eh     change    :  -0.7968857E-03 Eh
   gradient norm :     0.0394495 Eh/a0  converged?    E=F G=F D=F
   time step     :     0.2750000 fs     power     :   0.3624062E-07
   step length   :     0.0207866 a0     speed     :   0.1828378E-02

........................................................................
.............................. CYCLE   27 ..............................
........................................................................

 iter      E             dE          RMSdq      gap      omega  full diag
   1  -3478.1919754 -0.347819E+04  0.235E-03   10.88       0.0  T
   2  -3478.1919762 -0.866982E-06  0.134E-03   10.88       1.3  T
   3  -3478.1919763 -0.318701E-07  0.260E-04   10.88       6.7  T
   4  -3478.1919763 -0.132086E-07  0.629E-05   10.88      27.9  T
     SCC iter.                  ...        3 min, 59.638 sec
     gradient                   ...        3 min, 48.115 sec
 * total energy  : -3427.3204888 Eh     change    :  -0.9132698E-03 Eh
   gradient norm :     0.0384235 Eh/a0  converged?    E=F G=F D=F
   time step     :     0.3025000 fs     power     :   0.3767566E-07
   step length   :     0.0258743 a0     speed     :   0.2068993E-02

........................................................................
.............................. CYCLE   28 ..............................
........................................................................

 iter      E             dE          RMSdq      gap      omega  full diag
   1  -3478.2145358 -0.347821E+04  0.260E-03   10.88       0.0  T
   2  -3478.2145365 -0.748633E-06  0.149E-03   10.88       1.2  T
   3  -3478.2145366 -0.393557E-07  0.235E-04   10.88       7.5  T
   4  -3478.2145366 -0.160376E-07  0.686E-05   10.88      25.5  T
     SCC iter.                  ...        4 min,  2.384 sec
     gradient                   ...        3 min, 49.302 sec
 * total energy  : -3427.3215455 Eh     change    :  -0.1056790E-02 Eh
   gradient norm :     0.0385077 Eh/a0  converged?    E=F G=F D=F
   time step     :     0.3327500 fs     power     :   0.3989093E-07
   step length   :     0.0317124 a0     speed     :   0.2305291E-02

........................................................................
.............................. CYCLE   29 ..............................
........................................................................

 iter      E             dE          RMSdq      gap      omega  full diag
   1  -3478.2341261 -0.347823E+04  0.280E-03   10.88       0.0  T
   2  -3478.2341266 -0.476468E-06  0.162E-03   10.88       1.1  T
   3  -3478.2341267 -0.448135E-07  0.184E-04   10.88       9.5  T
   4  -3478.2341267 -0.188488E-07  0.714E-05   10.88      24.5  T
     SCC iter.                  ...        3 min, 52.903 sec
     gradient                   ...        3 min, 48.450 sec
 * total energy  : -3427.3228033 Eh     change    :  -0.1257711E-02 Eh
   gradient norm :     0.0387711 Eh/a0  converged?    E=F G=F D=F
   time step     :     0.3660250 fs     power     :   0.4366933E-07
   step length   :     0.0385234 a0     speed     :   0.2545829E-02

........................................................................
.............................. CYCLE   30 ..............................
........................................................................

 iter      E             dE          RMSdq      gap      omega  full diag
   1  -3478.2479741 -0.347825E+04  0.300E-03   10.88       0.0  T
   2  -3478.2479744 -0.279882E-06  0.175E-03   10.88       1.0  T
   3  -3478.2479744 -0.465570E-07  0.147E-04   10.88      11.9  T
   4  -3478.2479745 -0.229352E-07  0.712E-05   10.88      24.6  T
     SCC iter.                  ...        3 min, 55.091 sec
     gradient                   ...        3 min, 48.434 sec
 * total energy  : -3427.3243331 Eh     change    :  -0.1529825E-02 Eh
   gradient norm :     0.0378141 Eh/a0  converged?    E=F G=F D=F
   time step     :     0.4026275 fs     power     :   0.4862087E-07
   step length   :     0.0467135 a0     speed     :   0.2806430E-02

........................................................................
.............................. CYCLE   31 ..............................
........................................................................

 iter      E             dE          RMSdq      gap      omega  full diag
   1  -3478.2540871 -0.347825E+04  0.329E-03   10.88       0.0  T
   2  -3478.2540876 -0.529205E-06  0.195E-03   10.88       1.0  T
   3  -3478.2540876 -0.468808E-07  0.164E-04   10.88      10.7  T
   4  -3478.2540877 -0.281079E-07  0.675E-05   10.88      25.9  T
     SCC iter.                  ...        4 min,  3.337 sec
     gradient                   ...        3 min, 48.854 sec
 * total energy  : -3427.3261714 Eh     change    :  -0.1838303E-02 Eh
   gradient norm :     0.0346617 Eh/a0  converged?    E=F G=F D=F
   time step     :     0.4428903 fs     power     :   0.5273005E-07
   step length   :     0.0567623 a0     speed     :   0.3100123E-02

........................................................................
.............................. CYCLE   32 ..............................
........................................................................

 iter      E             dE          RMSdq      gap      omega  full diag
   1  -3478.2527488 -0.347825E+04  0.377E-03   10.88       0.0  T
   2  -3478.2527502 -0.141556E-05  0.226E-03   10.88       1.0  T
   3  -3478.2527503 -0.552495E-07  0.249E-04   10.88       7.0  T
   4  -3478.2527503 -0.323776E-07  0.699E-05   10.88      25.1  T
     SCC iter.                  ...        4 min,  2.445 sec
     gradient                   ...        3 min, 49.133 sec
 * total energy  : -3427.3282615 Eh     change    :  -0.2090078E-02 Eh
   gradient norm :     0.0299774 Eh/a0  converged?    E=F G=F D=F
   time step     :     0.4871793 fs     power     :   0.5325748E-07
   step length   :     0.0689862 a0     speed     :   0.3425219E-02

........................................................................
.............................. CYCLE   33 ..............................
........................................................................

 iter      E             dE          RMSdq      gap      omega  full diag
   1  -3478.2488362 -0.347825E+04  0.434E-03   10.89       0.0  T
   2  -3478.2488385 -0.231127E-05  0.262E-03   10.89       1.0  T
   3  -3478.2488386 -0.699720E-07  0.319E-04   10.89       5.5  T
   4  -3478.2488386 -0.358009E-07  0.750E-05   10.89      23.4  T
     SCC iter.                  ...        4 min,  2.958 sec
     gradient                   ...        3 min, 50.030 sec
 * total energy  : -3427.3304645 Eh     change    :  -0.2203049E-02 Eh
   gradient norm :     0.0269482 Eh/a0  converged?    E=F G=F D=F
   time step     :     0.5358972 fs     power     :   0.4956062E-07
   step length   :     0.0832772 a0     speed     :   0.3758891E-02

........................................................................
.............................. CYCLE   34 ..............................
........................................................................

 iter      E             dE          RMSdq      gap      omega  full diag
   1  -3478.2538239 -0.347825E+04  0.491E-03   10.89       0.0  T
   2  -3478.2538257 -0.182155E-05  0.295E-03   10.89       1.0  T
   3  -3478.2538258 -0.898135E-07  0.239E-04   10.89       7.3  T
   4  -3478.2538259 -0.345208E-07  0.792E-05   10.89      22.1  T
     SCC iter.                  ...        3 min, 59.853 sec
     gradient                   ...        3 min, 49.460 sec
 * total energy  : -3427.3327075 Eh     change    :  -0.2242989E-02 Eh
   gradient norm :     0.0274554 Eh/a0  converged?    E=F G=F D=F
   time step     :     0.5894869 fs     power     :   0.4553032E-07
   step length   :     0.0988294 a0     speed     :   0.4055339E-02

........................................................................
.............................. CYCLE   35 ..............................
........................................................................

 iter      E             dE          RMSdq      gap      omega  full diag
   1  -3478.2812024 -0.347828E+04  0.564E-03   10.89       0.0  T
   2  -3478.2812029 -0.479194E-06  0.334E-03   10.89       1.0  T
   3  -3478.2812030 -0.125978E-06  0.159E-04   10.89      11.0  T
   4  -3478.2812030 -0.223013E-07  0.860E-05   10.89      20.4  T
     SCC iter.                  ...        4 min,  0.241 sec
     gradient                   ...        3 min, 48.998 sec
 * total energy  : -3427.3350928 Eh     change    :  -0.2385266E-02 Eh
   gradient norm :     0.0269079 Eh/a0  converged?    E=F G=F D=F
   time step     :     0.6484356 fs     power     :   0.4457944E-07
   step length   :     0.1150870 a0     speed     :   0.4293133E-02

........................................................................
.............................. CYCLE   36 ..............................
........................................................................

 iter      E             dE          RMSdq      gap      omega  full diag
   1  -3478.3369602 -0.347834E+04  0.676E-03   10.89       0.0  T
   2  -3478.3369614 -0.120074E-05  0.392E-03   10.89       1.0  T
   3  -3478.3369616 -0.169896E-06  0.231E-04   10.89       7.6  T
   4  -3478.3369616 -0.191967E-07  0.977E-05   10.89      17.9  T
     SCC iter.                  ...        3 min, 59.608 sec
     gradient                   ...        3 min, 50.345 sec
 * total energy  : -3427.3376533 Eh     change    :  -0.2560540E-02 Eh
   gradient norm :     0.0227516 Eh/a0  converged?    E=F G=F D=F
   time step     :     0.7132792 fs     power     :   0.4254091E-07
   step length   :     0.1333515 a0     speed     :   0.4522237E-02

........................................................................
.............................. CYCLE   37 ..............................
........................................................................

 iter      E             dE          RMSdq      gap      omega  full diag
   1  -3478.4092746 -0.347841E+04  0.764E-03   10.90       0.0  T
   2  -3478.4092775 -0.296094E-05  0.439E-03   10.90       1.0  T
   3  -3478.4092777 -0.189109E-06  0.381E-04   10.90       4.6  T
   4  -3478.4092777 -0.291207E-07  0.104E-04   10.90      16.9  T
     SCC iter.                  ...        3 min, 55.649 sec
     gradient                   ...        3 min, 48.497 sec
 * total energy  : -3427.3401716 Eh     change    :  -0.2518273E-02 Eh
   gradient norm :     0.0224434 Eh/a0  converged?    E=F G=F D=F
   time step     :     0.7846071 fs     power     :   0.3631054E-07
   step length   :     0.1543179 a0     speed     :   0.4757506E-02

........................................................................
.............................. CYCLE   38 ..............................
........................................................................

 iter      E             dE          RMSdq      gap      omega  full diag
   1  -3478.4629964 -0.347846E+04  0.726E-03   10.90       0.0  T
   2  -3478.4629973 -0.865020E-06  0.422E-03   10.90       1.0  T
   3  -3478.4629975 -0.173876E-06  0.198E-04   10.90       8.9  T
   4  -3478.4629975 -0.175874E-07  0.912E-05   10.90      19.2  T
     SCC iter.                  ...        3 min, 55.065 sec
     gradient                   ...        3 min, 49.322 sec
 * total energy  : -3427.3427207 Eh     change    :  -0.2549114E-02 Eh
   gradient norm :     0.0246069 Eh/a0  converged?    E=F G=F D=F
   time step     :     0.8630678 fs     power     :   0.3467562E-07
   step length   :     0.1754115 a0     speed     :   0.4916186E-02

........................................................................
.............................. CYCLE   39 ..............................
........................................................................

 iter      E             dE          RMSdq      gap      omega  full diag
   1  -3478.4746578 -0.347847E+04  0.666E-03   10.91       0.0  T
   2  -3478.4746601 -0.227889E-05  0.399E-03   10.91       1.0  T
   3  -3478.4746603 -0.201337E-06  0.239E-04   10.91       7.3  T
   4  -3478.4746603 -0.280502E-07  0.115E-04   10.91      15.3  T
     SCC iter.                  ...        3 min, 56.907 sec
     gradient                   ...        3 min, 49.075 sec
 * total energy  : -3427.3455792 Eh     change    :  -0.2858532E-02 Eh
   gradient norm :     0.0215587 Eh/a0  converged?    E=F G=F D=F
   time step     :     0.9493746 fs     power     :   0.3529483E-07
   step length   :     0.1983587 a0     speed     :   0.5053924E-02

........................................................................
.............................. CYCLE   40 ..............................
........................................................................

 iter      E             dE          RMSdq      gap      omega  full diag
   1  -3478.4639926 -0.347846E+04  0.664E-03   10.91       0.0  T
   2  -3478.4639977 -0.508453E-05  0.400E-03   10.91       1.0  T
   3  -3478.4639979 -0.267187E-06  0.435E-04   10.91       4.0  T
   4  -3478.4639980 -0.533551E-07  0.152E-04   10.91      11.6  T
     SCC iter.                  ...        3 min, 58.299 sec
     gradient                   ...        3 min, 48.428 sec
 * total energy  : -3427.3485985 Eh     change    :  -0.3019305E-02 Eh
   gradient norm :     0.0239085 Eh/a0  converged?    E=F G=F D=F
   time step     :     1.0443120 fs     power     :   0.3325667E-07
   step length   :     0.2258859 a0     speed     :   0.5232074E-02

........................................................................
.............................. CYCLE   41 ..............................
........................................................................

 iter      E             dE          RMSdq      gap      omega  full diag
   1  -3478.4866756 -0.347849E+04  0.747E-03   10.92       0.0  T
   2  -3478.4866764 -0.850797E-06  0.438E-03   10.92       1.0  T
   3  -3478.4866767 -0.263601E-06  0.236E-04   10.92       7.4  T
   4  -3478.4866767 -0.313753E-07  0.136E-04   10.92      12.9  T
     SCC iter.                  ...        4 min,  0.961 sec
     gradient                   ...        3 min, 49.772 sec
 * total energy  : -3427.3521408 Eh     change    :  -0.3542266E-02 Eh
   gradient norm :     0.0219125 Eh/a0  converged?    E=F G=F D=F
   time step     :     1.1487432 fs     power     :   0.3737129E-07
   step length   :     0.2557105 a0     speed     :   0.5384441E-02

........................................................................
.............................. CYCLE   42 ..............................
........................................................................

 iter      E             dE          RMSdq      gap      omega  full diag
   1  -3478.5387376 -0.347854E+04  0.897E-03   10.93       0.0  T
   2  -3478.5387413 -0.369627E-05  0.520E-03   10.93       1.0  T
   3  -3478.5387416 -0.269333E-06  0.386E-04   10.93       4.5  T
   4  -3478.5387416 -0.389264E-07  0.124E-04   10.93      14.2  T
     SCC iter.                  ...        3 min, 59.264 sec
     gradient                   ...        3 min, 49.138 sec
 * total energy  : -3427.3560484 Eh     change    :  -0.3907593E-02 Eh
   gradient norm :     0.0220435 Eh/a0  converged?    E=F G=F D=F
   time step     :     1.2500000 fs     power     :   0.3580142E-07
   step length   :     0.2903680 a0     speed     :   0.5618933E-02
 * RMSD in coord.:     0.0336144 a0     energy gain  -0.3981466E-01 Eh

........................................................................
.............................. CYCLE   43 ..............................
........................................................................

 iter      E             dE          RMSdq      gap      omega  full diag
   1  -3478.5421676 -0.347854E+04  0.148E-03   10.93       0.0  T
   2  -3478.5421677 -0.412847E-07  0.870E-04   10.93       2.0  T
   3  -3478.5421677 -0.103896E-07  0.505E-05   10.93      34.7  T
     SCC iter.                  ...        2 min, 58.546 sec
     gradient                   ...        3 min, 48.533 sec
 * total energy  : -3427.3567989 Eh     change    :  -0.7505015E-03 Eh
   gradient norm :     0.0218801 Eh/a0  converged?    E=F G=F D=F
   time step     :     0.2500000 fs     power     :   0.3913927E-07
   step length   :     0.0563308 a0     speed     :   0.5450308E-02

........................................................................
.............................. CYCLE   44 ..............................
........................................................................

 iter      E             dE          RMSdq      gap      omega  full diag
   1  -3478.5393154 -0.347854E+04  0.144E-03   10.93       0.0  T
   2  -3478.5393156 -0.168818E-06  0.845E-04   10.93       2.1  T
   3  -3478.5393156 -0.117157E-07  0.816E-05   10.93      21.5  T
     SCC iter.                  ...        2 min, 56.868 sec
     gradient                   ...        3 min, 47.799 sec
 * total energy  : -3427.3575968 Eh     change    :  -0.7979046E-03 Eh
   gradient norm :     0.0202498 Eh/a0  converged?    E=F G=F D=F
   time step     :     0.2500000 fs     power     :   0.4144632E-07
   step length   :     0.0551142 a0     speed     :   0.5332596E-02

........................................................................
.............................. CYCLE   45 ..............................
........................................................................

 iter      E             dE          RMSdq      gap      omega  full diag
   1  -3478.5319167 -0.347853E+04  0.157E-03   10.94       0.0  T
   2  -3478.5319171 -0.393853E-06  0.920E-04   10.94       1.9  T
   3  -3478.5319171 -0.147638E-07  0.149E-04   10.94      11.7  T
     SCC iter.                  ...        2 min, 55.861 sec
     gradient                   ...        3 min, 47.460 sec
 * total energy  : -3427.3584085 Eh     change    :  -0.8116950E-03 Eh
   gradient norm :     0.0181647 Eh/a0  converged?    E=F G=F D=F
   time step     :     0.2500000 fs     power     :   0.4165556E-07
   step length   :     0.0544996 a0     speed     :   0.5273134E-02

........................................................................
.............................. CYCLE   46 ..............................
........................................................................

 iter      E             dE          RMSdq      gap      omega  full diag
   1  -3478.5227900 -0.347852E+04  0.170E-03   10.94       0.0  T
   2  -3478.5227905 -0.503497E-06  0.995E-04   10.94       1.8  T
   3  -3478.5227905 -0.170280E-07  0.174E-04   10.94      10.0  T
     SCC iter.                  ...        3 min,  0.479 sec
     gradient                   ...        3 min, 48.507 sec
 * total energy  : -3427.3592007 Eh     change    :  -0.7922314E-03 Eh
   gradient norm :     0.0170188 Eh/a0  converged?    E=F G=F D=F
   time step     :     0.2500000 fs     power     :   0.4030847E-07
   step length   :     0.0543592 a0     speed     :   0.5259544E-02

........................................................................
.............................. CYCLE   47 ..............................
........................................................................

 iter      E             dE          RMSdq      gap      omega  full diag
   1  -3478.5154071 -0.347852E+04  0.173E-03   10.94       0.0  T
   2  -3478.5154075 -0.377899E-06  0.101E-03   10.94       1.7  T
   3  -3478.5154075 -0.166974E-07  0.139E-04   10.94      12.6  T
   4  -3478.5154075 -0.512864E-08  0.368E-05   10.94      47.6  T
     SCC iter.                  ...        3 min, 56.348 sec
     gradient                   ...        3 min, 50.701 sec
 * total energy  : -3427.3599647 Eh     change    :  -0.7640042E-03 Eh
   gradient norm :     0.0171224 Eh/a0  converged?    E=F G=F D=F
   time step     :     0.2500000 fs     power     :   0.3901140E-07
   step length   :     0.0543285 a0     speed     :   0.5256576E-02

........................................................................
.............................. CYCLE   48 ..............................
........................................................................

 iter      E             dE          RMSdq      gap      omega  full diag
   1  -3478.5122361 -0.347851E+04  0.188E-03   10.94       0.0  T
   2  -3478.5122363 -0.191566E-06  0.110E-03   10.94       1.6  T
   3  -3478.5122363 -0.160426E-07  0.855E-05   10.94      20.5  T
   4  -3478.5122363 -0.530281E-08  0.312E-05   10.94      56.2  T
     SCC iter.                  ...        3 min, 52.248 sec
     gradient                   ...        3 min, 49.741 sec
 * total energy  : -3427.3607894 Eh     change    :  -0.8247115E-03 Eh
   gradient norm :     0.0173576 Eh/a0  converged?    E=F G=F D=F
   time step     :     0.2750000 fs     power     :   0.3854207E-07
   step length   :     0.0596293 a0     speed     :   0.5244963E-02

........................................................................
.............................. CYCLE   49 ..............................
........................................................................

 iter      E             dE          RMSdq      gap      omega  full diag
   1  -3478.5157176 -0.347852E+04  0.206E-03   10.94       0.0  T
   2  -3478.5157177 -0.684622E-07  0.121E-03   10.94       1.5  T
   3  -3478.5157177 -0.179530E-07  0.607E-05   10.94      28.9  T
   4  -3478.5157177 -0.441878E-08  0.293E-05   10.94      59.8  T
     SCC iter.                  ...        4 min,  0.413 sec
     gradient                   ...        3 min, 47.568 sec
 * total energy  : -3427.3616923 Eh     change    :  -0.9029078E-03 Eh
   gradient norm :     0.0164795 Eh/a0  converged?    E=F G=F D=F
   time step     :     0.3025000 fs     power     :   0.3839970E-07
   step length   :     0.0654564 a0     speed     :   0.5234094E-02

........................................................................
.............................. CYCLE   50 ..............................
........................................................................

 iter      E             dE          RMSdq      gap      omega  full diag
   1  -3478.5265360 -0.347853E+04  0.234E-03   10.95       0.0  T
   2  -3478.5265362 -0.211502E-06  0.136E-03   10.95       1.3  T
   3  -3478.5265362 -0.228119E-07  0.888E-05   10.95      19.7  T
   4  -3478.5265362 -0.454065E-08  0.336E-05   10.95      52.2  T
     SCC iter.                  ...        4 min,  2.425 sec
     gradient                   ...        3 min, 50.250 sec
 * total energy  : -3427.3626646 Eh     change    :  -0.9722804E-03 Eh
   gradient norm :     0.0144988 Eh/a0  converged?    E=F G=F D=F
   time step     :     0.3327500 fs     power     :   0.3714551E-07
   step length   :     0.0722422 a0     speed     :   0.5251553E-02

........................................................................
.............................. CYCLE   51 ..............................
........................................................................

 iter      E             dE          RMSdq      gap      omega  full diag
   1  -3478.5422565 -0.347854E+04  0.259E-03   10.95       0.0  T
   2  -3478.5422570 -0.475615E-06  0.151E-03   10.95       1.2  T
   3  -3478.5422570 -0.284476E-07  0.143E-04   10.95      12.2  T
   4  -3478.5422571 -0.585123E-08  0.404E-05   10.95      43.4  T
     SCC iter.                  ...        4 min,  2.074 sec
     gradient                   ...        3 min, 50.694 sec
 * total energy  : -3427.3636697 Eh     change    :  -0.1005085E-02 Eh
   gradient norm :     0.0133872 Eh/a0  converged?    E=F G=F D=F
   time step     :     0.3660250 fs     power     :   0.3431693E-07
   step length   :     0.0803507 a0     speed     :   0.5309996E-02

........................................................................
.............................. CYCLE   52 ..............................
........................................................................

 iter      E             dE          RMSdq      gap      omega  full diag
   1  -3478.5558598 -0.347856E+04  0.262E-03   10.95       0.0  T
   2  -3478.5558601 -0.363462E-06  0.153E-03   10.95       1.1  T
   3  -3478.5558602 -0.313748E-07  0.118E-04   10.95      14.9  T
   4  -3478.5558602 -0.569071E-08  0.408E-05   10.95      42.9  T
     SCC iter.                  ...        3 min, 56.124 sec
     gradient                   ...        3 min, 46.915 sec
 * total energy  : -3427.3646941 Eh     change    :  -0.1024353E-02 Eh
   gradient norm :     0.0141285 Eh/a0  converged?    E=F G=F D=F
   time step     :     0.4026275 fs     power     :   0.3184986E-07
   step length   :     0.0892976 a0     speed     :   0.5364774E-02

........................................................................
.............................. CYCLE   53 ..............................
........................................................................

 iter      E             dE          RMSdq      gap      omega  full diag
   1  -3478.5599023 -0.347856E+04  0.254E-03   10.95       0.0  T
   2  -3478.5599024 -0.109815E-06  0.149E-03   10.95       1.2  T
   3  -3478.5599024 -0.338555E-07  0.770E-05   10.95      22.7  T
   4  -3478.5599024 -0.504861E-08  0.412E-05   10.95      42.5  T
     SCC iter.                  ...        3 min, 54.932 sec
     gradient                   ...        3 min, 47.988 sec
 * total energy  : -3427.3657751 Eh     change    :  -0.1081081E-02 Eh
   gradient norm :     0.0140137 Eh/a0  converged?    E=F G=F D=F
   time step     :     0.4428903 fs     power     :   0.3090382E-07
   step length   :     0.0983317 a0     speed     :   0.5370471E-02

........................................................................
.............................. CYCLE   54 ..............................
........................................................................

 iter      E             dE          RMSdq      gap      omega  full diag
   1  -3478.5519121 -0.347855E+04  0.264E-03   10.96       0.0  T
   2  -3478.5519126 -0.456699E-06  0.155E-03   10.96       1.1  T
   3  -3478.5519126 -0.436562E-07  0.128E-04   10.96      13.7  T
   4  -3478.5519127 -0.683440E-08  0.520E-05   10.96      33.7  T
     SCC iter.                  ...        3 min, 56.263 sec
     gradient                   ...        3 min, 48.829 sec
 * total energy  : -3427.3669251 Eh     change    :  -0.1149958E-02 Eh
   gradient norm :     0.0124562 Eh/a0  converged?    E=F G=F D=F
   time step     :     0.4871793 fs     power     :   0.2956815E-07
   step length   :     0.1082980 a0     speed     :   0.5377082E-02

........................................................................
.............................. CYCLE   55 ..............................
........................................................................

 iter      E             dE          RMSdq      gap      omega  full diag
   1  -3478.5382651 -0.347854E+04  0.272E-03   10.96       0.0  T
   2  -3478.5382659 -0.871662E-06  0.160E-03   10.96       1.1  T
   3  -3478.5382660 -0.547134E-07  0.205E-04   10.96       8.5  T
   4  -3478.5382660 -0.971841E-08  0.649E-05   10.96      27.0  T
     SCC iter.                  ...        3 min, 55.532 sec
     gradient                   ...        3 min, 48.881 sec
 * total energy  : -3427.3681095 Eh     change    :  -0.1184401E-02 Eh
   gradient norm :     0.0128450 Eh/a0  converged?    E=F G=F D=F
   time step     :     0.5358972 fs     power     :   0.2737835E-07
   step length   :     0.1199661 a0     speed     :   0.5414922E-02

........................................................................
.............................. CYCLE   56 ..............................
........................................................................

 iter      E             dE          RMSdq      gap      omega  full diag
   1  -3478.5339554 -0.347853E+04  0.260E-03   10.96       0.0  T
   2  -3478.5339557 -0.331010E-06  0.153E-03   10.96       1.1  T
   3  -3478.5339558 -0.511000E-07  0.126E-04   10.96      13.9  T
   4  -3478.5339558 -0.925820E-08  0.630E-05   10.96      27.8  T
     SCC iter.                  ...        3 min, 56.238 sec
     gradient                   ...        3 min, 48.123 sec
 * total energy  : -3427.3693644 Eh     change    :  -0.1254928E-02 Eh
   gradient norm :     0.0134796 Eh/a0  converged?    E=F G=F D=F
   time step     :     0.5894869 fs     power     :   0.2691142E-07
   step length   :     0.1320188 a0     speed     :   0.5417223E-02

........................................................................
.............................. CYCLE   57 ..............................
........................................................................

 iter      E             dE          RMSdq      gap      omega  full diag
   1  -3478.5473951 -0.347855E+04  0.294E-03   10.97       0.0  T
   2  -3478.5473955 -0.366059E-06  0.171E-03   10.97       1.0  T
   3  -3478.5473955 -0.418572E-07  0.149E-04   10.97      11.7  T
   4  -3478.5473955 -0.123282E-07  0.575E-05   10.97      30.4  T
     SCC iter.                  ...        3 min, 55.079 sec
     gradient                   ...        3 min, 49.082 sec
 * total energy  : -3427.3707369 Eh     change    :  -0.1372445E-02 Eh
   gradient norm :     0.0119952 Eh/a0  converged?    E=F G=F D=F
   time step     :     0.6484356 fs     power     :   0.2659333E-07
   step length   :     0.1450910 a0     speed     :   0.5412384E-02

........................................................................
.............................. CYCLE   58 ..............................
........................................................................

 iter      E             dE          RMSdq      gap      omega  full diag
   1  -3478.5712906 -0.347857E+04  0.336E-03   10.97       0.0  T
   2  -3478.5712913 -0.659436E-06  0.195E-03   10.97       1.0  T
   3  -3478.5712914 -0.425111E-07  0.193E-04   10.97       9.1  T
   4  -3478.5712914 -0.117079E-07  0.570E-05   10.97      30.7  T
     SCC iter.                  ...        4 min,  1.694 sec
     gradient                   ...        3 min, 48.228 sec
 * total energy  : -3427.3721885 Eh     change    :  -0.1451578E-02 Eh
   gradient norm :     0.0126573 Eh/a0  converged?    E=F G=F D=F
   time step     :     0.7132792 fs     power     :   0.2532050E-07
   step length   :     0.1607761 a0     speed     :   0.5452267E-02

........................................................................
.............................. CYCLE   59 ..............................
........................................................................

 iter      E             dE          RMSdq      gap      omega  full diag
   1  -3478.5851598 -0.347859E+04  0.328E-03   10.98       0.0  T
   2  -3478.5851601 -0.229998E-06  0.195E-03   10.98       1.0  T
   3  -3478.5851601 -0.493396E-07  0.115E-04   10.98      15.3  T
   4  -3478.5851601 -0.875525E-08  0.625E-05   10.98      28.0  T
     SCC iter.                  ...        4 min,  0.753 sec
     gradient                   ...        3 min, 47.702 sec
 * total energy  : -3427.3737711 Eh     change    :  -0.1582679E-02 Eh
   gradient norm :     0.0119434 Eh/a0  converged?    E=F G=F D=F
   time step     :     0.7846071 fs     power     :   0.2552814E-07
   step length   :     0.1773324 a0     speed     :   0.5467023E-02

........................................................................
.............................. CYCLE   60 ..............................
........................................................................

 iter      E             dE          RMSdq      gap      omega  full diag
   1  -3478.5870481 -0.347859E+04  0.356E-03   10.98       0.0  T
   2  -3478.5870494 -0.133395E-05  0.215E-03   10.98       1.0  T
   3  -3478.5870495 -0.610466E-07  0.224E-04   10.99       7.8  T
   4  -3478.5870495 -0.168784E-07  0.741E-05   10.99      23.7  T
     SCC iter.                  ...        3 min, 54.012 sec
     gradient                   ...        3 min, 47.174 sec
 * total energy  : -3427.3754649 Eh     change    :  -0.1693726E-02 Eh
   gradient norm :     0.0111710 Eh/a0  converged?    E=F G=F D=F
   time step     :     0.8630678 fs     power     :   0.2411065E-07
   step length   :     0.1968654 a0     speed     :   0.5517466E-02

........................................................................
.............................. CYCLE   61 ..............................
........................................................................

 iter      E             dE          RMSdq      gap      omega  full diag
   1  -3478.6076324 -0.347861E+04  0.419E-03   10.99       0.0  T
   2  -3478.6076327 -0.314521E-06  0.249E-03   10.99       1.0  T
   3  -3478.6076328 -0.627388E-07  0.128E-04   10.99      13.7  T
   4  -3478.6076328 -0.108798E-07  0.652E-05   10.99      26.9  T
     SCC iter.                  ...        3 min, 59.185 sec
     gradient                   ...        3 min, 48.735 sec
 * total energy  : -3427.3772440 Eh     change    :  -0.1779162E-02 Eh
   gradient norm :     0.0104608 Eh/a0  converged?    E=F G=F D=F
   time step     :     0.9493746 fs     power     :   0.2330026E-07
   step length   :     0.2187420 a0     speed     :   0.5573266E-02

........................................................................
.............................. CYCLE   62 ..............................
........................................................................

 iter      E             dE          RMSdq      gap      omega  full diag
   1  -3478.6533483 -0.347865E+04  0.568E-03   11.00       0.0  T
   2  -3478.6533495 -0.127740E-05  0.329E-03   11.00       1.0  T
   3  -3478.6533496 -0.915034E-07  0.251E-04   11.00       7.0  T
   4  -3478.6533497 -0.164123E-07  0.771E-05   11.00      22.7  T
     SCC iter.                  ...        3 min, 56.101 sec
     gradient                   ...        3 min, 48.064 sec
 * total energy  : -3427.3790559 Eh     change    :  -0.1811866E-02 Eh
   gradient norm :     0.0101882 Eh/a0  converged?    E=F G=F D=F
   time step     :     1.0443120 fs     power     :   0.2056716E-07
   step length   :     0.2436974 a0     speed     :   0.5644632E-02

........................................................................
.............................. CYCLE   63 ..............................
........................................................................

 iter      E             dE          RMSdq      gap      omega  full diag
   1  -3478.6667456 -0.347867E+04  0.533E-03   11.01       0.0  T
   2  -3478.6667466 -0.102157E-05  0.316E-03   11.01       1.0  T
   3  -3478.6667467 -0.742079E-07  0.183E-04   11.01       9.6  T
   4  -3478.6667467 -0.292816E-07  0.727E-05   11.01      24.1  T
     SCC iter.                  ...        3 min, 55.893 sec
     gradient                   ...        3 min, 47.077 sec
 * total energy  : -3427.3808581 Eh     change    :  -0.1802194E-02 Eh
   gradient norm :     0.0084257 Eh/a0  converged?    E=F G=F D=F
   time step     :     1.1487432 fs     power     :   0.1864380E-07
   step length   :     0.2696194 a0     speed     :   0.5677318E-02

........................................................................
.............................. CYCLE   64 ..............................
........................................................................

 iter      E             dE          RMSdq      gap      omega  full diag
   1  -3478.6693643 -0.347867E+04  0.551E-03   11.03       0.0  T
   2  -3478.6693656 -0.128988E-05  0.328E-03   11.03       1.0  T
   3  -3478.6693657 -0.836740E-07  0.196E-04   11.03       8.9  T
   4  -3478.6693657 -0.286268E-07  0.797E-05   11.03      22.0  T
     SCC iter.                  ...        3 min, 56.692 sec
     gradient                   ...        3 min, 49.811 sec
 * total energy  : -3427.3825715 Eh     change    :  -0.1713440E-02 Eh
   gradient norm :     0.0097956 Eh/a0  converged?    E=F G=F D=F
   time step     :     1.2500000 fs     power     :   0.1598520E-07
   step length   :     0.2960896 a0     speed     :   0.5729651E-02

........................................................................
.............................. CYCLE   65 ..............................
........................................................................

 iter      E             dE          RMSdq      gap      omega  full diag
   1  -3478.7098101 -0.347871E+04  0.626E-03   11.04       0.0  T
   2  -3478.7098120 -0.186163E-05  0.363E-03   11.04       1.0  T
   3  -3478.7098121 -0.767045E-07  0.303E-04   11.04       5.8  T
   4  -3478.7098121 -0.349237E-07  0.777E-05   11.04      22.5  T
     SCC iter.                  ...        3 min, 56.729 sec
     gradient                   ...        3 min, 47.366 sec
 * total energy  : -3427.3841021 Eh     change    :  -0.1530551E-02 Eh
   gradient norm :     0.0101563 Eh/a0  converged?    E=F G=F D=F
   time step     :     1.2500000 fs     power     :   0.1377115E-07
   step length   :     0.2934687 a0     speed     :   0.5678936E-02

........................................................................
.............................. CYCLE   66 ..............................
........................................................................

 iter      E             dE          RMSdq      gap      omega  full diag
   1  -3478.7067479 -0.347871E+04  0.478E-03   11.05       0.0  T
   2  -3478.7067495 -0.162159E-05  0.286E-03   11.05       1.0  T
   3  -3478.7067496 -0.837149E-07  0.234E-04   11.05       7.5  T
   4  -3478.7067496 -0.241512E-07  0.870E-05   11.05      20.1  T
     SCC iter.                  ...        3 min, 57.415 sec
     gradient                   ...        3 min, 48.336 sec
 * total energy  : -3427.3855161 Eh     change    :  -0.1414012E-02 Eh
[...]
  3011   6 C     3012   6 C                                       1.5261981
  3012   6 C     3013   6 C                                       1.5265651
  3013   6 C     3014   6 C                                       1.5270339
  3014   6 C     3015   6 C                                       1.5268491
  3015   6 C     3016   6 C                                       1.5238092
  3015   6 C     3017   1 H                                       1.0930847
  3015   6 C     3018   1 H                                       1.0927019
  3014   6 C     3019   1 H                                       1.0927158
  3014   6 C     3020   1 H                                       1.0919337
  3013   6 C     3021   1 H                                       1.0929261
  3013   6 C     3022   1 H                                       1.0928377
  3012   6 C     3023   1 H                                       1.0927861
  3012   6 C     3024   1 H                                       1.0921915
  3011   6 C     3025   1 H                                       1.0924817
  3011   6 C     3026   1 H                                       1.0928631
  3010   6 C     3027   1 H                                       1.0930183
  3010   6 C     3028   1 H                                       1.0927620
  3009   6 C     3029   1 H                                       1.0928675
  3009   6 C     3030   1 H                                       1.0929243
  3008   6 C     3031   1 H                                       1.0921865
  3008   6 C     3032   1 H                                       1.0910018
  3007   6 C     3033   1 H                                       1.0928533
  3007   6 C     3034   1 H                                       1.0933435
  3006   6 C     3035   1 H                                       1.0941068
  3006   6 C     3036   1 H                                       1.0929390
  3005   6 C     3037   1 H                                       1.0900269
  3005   6 C     3038   1 H                                       1.0913601
  3004   6 C     3039   1 H                                       1.0934171
  3004   6 C     3040   1 H                                       1.0933678
  3003   6 C     3041   1 H                                       1.0927853
  3003   6 C     3042   1 H                                       1.0931927
  3002   6 C     3043   1 H                                       1.0934394
  3002   6 C     3044   1 H                                       1.0908190
  3001   6 C     3045   1 H                                       1.0925154
  3001   6 C     3046   1 H                                       1.0934553
  3000   6 C     3047   1 H                                       1.0924338
  3000   6 C     3048   1 H                                       1.0929557
  2999   6 C     3049   1 H                                       1.0918129
  2999   6 C     3050   1 H                                       1.0935541
  2998   6 C     3051   1 H                                       1.0933469
  2998   6 C     3052   1 H                                       1.0922696
  2997   6 C     3053   1 H                                       1.0927540
  2997   6 C     3054   1 H                                       1.0926847
  2996   6 C     3055   1 H                                       1.0933523
  2996   6 C     3056   1 H                                       1.0924691
  2995   6 C     3057   1 H                                       1.0915342
  2995   6 C     3058   1 H                                       1.0930213
  2994   6 C     3059   1 H                                       1.0934045
  2994   6 C     3060   1 H                                       1.0922205
  2993   6 C     3061   1 H                                       1.0926413
  2993   6 C     3062   1 H                                       1.0939026
  2992   6 C     3063   1 H                                       1.0934360
  2992   6 C     3064   1 H                                       1.0928333
  2991   6 C     3065   1 H                                       1.0931178
  2991   6 C     3066   1 H                                       1.0939167
  2990   6 C     3067   1 H                                       1.0931744
  2990   6 C     3068   1 H                                       1.0934961
  2989   6 C     3069   1 H                                       1.0931869
  2989   6 C     3070   1 H                                       1.0913177
  2988   6 C     3071   1 H                                       1.0928835
  2988   6 C     3072   1 H                                       1.0930355
  2987   6 C     3073   1 H                                       1.0932869
  2987   6 C     3074   1 H                                       1.0936903
  2986   6 C     3075   1 H                                       1.0906951
  2986   6 C     3076   1 H                                       1.0932421
  2985   6 C     3077   1 H                                       1.0931804
  2985   6 C     3078   1 H                                       1.0911571
  2984   6 C     3079   1 H                                       1.0913592
  2984   6 C     3080   1 H                                       1.0924815
  2983   6 C     3081   1 H                                       1.0925704
  2983   6 C     3082   1 H                                       1.0912089
  2982   6 C     3083   1 H                                       1.0937730
  2982   6 C     3084   1 H                                       1.0938214
  2981   6 C     3085   1 H                                       1.0891110
  2981   6 C     3086   1 H                                       1.0934981
  2980   6 C     3087   1 H                                       1.0936333
  2980   6 C     3088   1 H                                       1.0917589
  2979   6 C     3089   1 H                                       1.0933757
  2979   6 C     3090   1 H                                       1.0921844
  2978   6 C     3091   1 H                                       1.0930226
  2978   6 C     3092   1 H                                       1.0918775
  2977   6 C     3093   1 H                                       1.0932756
  2977   6 C     3094   1 H                                       1.0928741
  2976   6 C     3095   1 H                                       1.0919093
  2976   6 C     3096   1 H                                       1.0931372
  2975   6 C     3097   1 H                                       1.0924501
  2975   6 C     3098   1 H                                       1.0923064
  2974   6 C     3099   1 H                                       1.0920331
  2974   6 C     3100   1 H                                       1.0929500
  2973   6 C     3101   1 H                                       1.0920987
  2973   6 C     3102   1 H                                       1.0927493
  2972   6 C     3103   1 H                                       1.0923963
  2972   6 C     3104   1 H                                       1.0924252
  2971   6 C     3105   1 H                                       1.0936661
  2971   6 C     3106   1 H                                       1.0919976
  2970   6 C     3107   1 H                                       1.0930870
  2970   6 C     3108   1 H                                       1.0937600
  2969   6 C     3109   1 H                                       1.0933993
  2969   6 C     3110   1 H                                       1.0916283
  2968   6 C     3111   1 H                                       1.0935975
  2968   6 C     3112   1 H                                       1.0924459
  2967   6 C     3113   1 H                                       1.0927077
  2967   6 C     3114   1 H                                       1.0896896
  2966   6 C     3115   1 H                                       1.0924475
  2966   6 C     3116   1 H                                       1.0940195
  2965   6 C     3117   1 H                                       1.0929100
  2965   6 C     3118   1 H                                       1.0932185
  2964   6 C     3119   1 H                                       1.0911239
  2964   6 C     3120   1 H                                       1.0911424
  2963   6 C     3121   1 H                                       1.0935017
  2963   6 C     3122   1 H                                       1.0941179
  2962   6 C     3123   1 H                                       1.0918076
  2962   6 C     3124   1 H                                       1.0932168
  2961   6 C     3125   1 H                                       1.0911853
  2961   6 C     3126   1 H                                       1.0932347
  2960   6 C     3127   1 H                                       1.0925980
  2960   6 C     3128   1 H                                       1.0930315
  2959   6 C     3129   1 H                                       1.0907644
  2959   6 C     3130   1 H                                       1.0931852
  2958   6 C     3131   1 H                                       1.0940097
  2958   6 C     3132   1 H                                       1.0918863
  2957   6 C     3133   1 H                                       1.0918445
  2957   6 C     3134   1 H                                       1.0930285
  2956   6 C     3135   1 H                                       1.0928960
  2956   6 C     3136   1 H                                       1.0900750
  2955   6 C     3137   1 H                                       1.0929861
  2955   6 C     3138   1 H                                       1.0936110
  2954   6 C     3139   1 H                                       1.0933001
  2954   6 C     3140   1 H                                       1.0922606
  2953   6 C     3141   1 H                                       1.0911547
  2953   6 C     3142   1 H                                       1.0932144
  2952   6 C     3143   1 H                                       1.0933602
  2952   6 C     3144   1 H                                       1.0933999
  2951   6 C     3145   1 H                                       1.0912983
  2951   6 C     3146   1 H                                       1.0933240
  2950   6 C     3147   1 H                                       1.0935345
  2950   6 C     3148   1 H                                       1.0919560
  2949   6 C     3149   1 H                                       1.0931592
  2949   6 C     3150   1 H                                       1.0937652
  2948   6 C     3151   1 H                                       1.0919872
  2948   6 C     3152   1 H                                       1.0907687
  2947   6 C     3153   1 H                                       1.0931862
  2947   6 C     3154   1 H                                       1.0938625
  2946   6 C     3155   1 H                                       1.0928076
  2946   6 C     3156   1 H                                       1.0920331
  2945   6 C     3157   1 H                                       1.0930172
  2945   6 C     3158   1 H                                       1.0934752
  2944   6 C     3159   1 H                                       1.0925857
  2944   6 C     3160   1 H                                       1.0934522
  2943   6 C     3161   1 H                                       1.0929594
  2943   6 C     3162   1 H                                       1.0933031
  2942   6 C     3163   1 H                                       1.0915068
  2942   6 C     3164   1 H                                       1.0929305
  2941   6 C     3165   1 H                                       1.0930741
  2941   6 C     3166   1 H                                       1.0929834
  2940   6 C     3167   1 H                                       1.0904499
  2940   6 C     3168   1 H                                       1.0918458
  2939   6 C     3169   1 H                                       1.0938352
  2939   6 C     3170   1 H                                       1.0929430
  2938   6 C     3171   1 H                                       1.0930467
  2938   6 C     3172   1 H                                       1.0937943
  2937   6 C     3173   1 H                                       1.0931770
  2937   6 C     3174   1 H                                       1.0910700
  2936   6 C     3175   1 H                                       1.0928912
  2936   6 C     3176   1 H                                       1.0935536
  2935   6 C     3177   1 H                                       1.0931122
  2935   6 C     3178   1 H                                       1.0926217
  2934   6 C     3179   1 H                                       1.0925201
  2934   6 C     3180   1 H                                       1.0934503
  2933   6 C     3181   1 H                                       1.0928950
  2933   6 C     3182   1 H                                       1.0915063
  2932   6 C     3183   1 H                                       1.0921423
  2932   6 C     3184   1 H                                       1.0935070
  2931   6 C     3185   1 H                                       1.0929844
  2931   6 C     3186   1 H                                       1.0930857
  2930   6 C     3187   1 H                                       1.0917527
  2930   6 C     3188   1 H                                       1.0927493
  2929   6 C     3189   1 H                                       1.0935633
  2929   6 C     3190   1 H                                       1.0929404
  2928   6 C     3191   1 H                                       1.0931226
  2928   6 C     3192   1 H                                       1.0916352
  2927   6 C     3193   1 H                                       1.0932742
  2927   6 C     3194   1 H                                       1.0937680
  2926   6 C     3195   1 H                                       1.0926791
  2926   6 C     3196   1 H                                       1.0931535
  2925   6 C     3197   1 H                                       1.0917392
  2925   6 C     3198   1 H                                       1.0934660
  2924   6 C     3199   1 H                                       1.0930580
  2924   6 C     3200   1 H                                       1.0932355
  2923   6 C     3201   1 H                                       1.0937434
  2923   6 C     3202   1 H                                       1.0934888
  2922   6 C     3203   1 H                                       1.0928157
  2922   6 C     3204   1 H                                       1.0928290
  2921   6 C     3205   1 H                                       1.0930301
  2921   6 C     3206   1 H                                       1.0930761
  2920   6 C     3207   1 H                                       1.0915508
  2920   6 C     3208   1 H                                       1.0922125
  2919   6 C     3209   1 H                                       1.0938633
  2919   6 C     3210   1 H                                       1.0910121
  2918   6 C     3211   1 H                                       1.0926248
  2918   6 C     3212   1 H                                       1.0940983
  2917   6 C     3213   1 H                                       1.0919113
  2917   6 C     3214   1 H                                       1.0917906
  2916   6 C     3215   1 H                                       1.0935441
  2916   6 C     3216   1 H                                       1.0934390
  2915   6 C     3217   1 H                                       1.0929192
  2915   6 C     3218   1 H                                       1.0916318
  2914   6 C     3219   1 H                                       1.0920248
  2914   6 C     3220   1 H                                       1.0923327
  2913   6 C     3221   1 H                                       1.0944109
  2913   6 C     3222   1 H                                       1.0934904
  2912   6 C     3223   1 H                                       1.0912287
  2912   6 C     3224   1 H                                       1.0928803
  2911   6 C     3225   1 H                                       1.0922704
  2911   6 C     3226   1 H                                       1.0923156
  2910   6 C     3227   1 H                                       1.0934388
  2910   6 C     3228   1 H                                       1.0932629
  2909   6 C     3229   1 H                                       1.0913355
  2909   6 C     3230   1 H                                       1.0914019
  2908   6 C     3231   1 H                                       1.0937806
  2908   6 C     3232   1 H                                       1.0923243
  2907   6 C     3233   1 H                                       1.0908277
  2907   6 C     3234   1 H                                       1.0935391
  2906   6 C     3235   1 H                                       1.0937819
  2906   6 C     3236   1 H                                       1.0920862
  2905   6 C     3237   1 H                                       1.0911398
  2905   6 C     3238   1 H                                       1.0939838
  2904   6 C     3239   1 H                                       1.0940981
  2904   6 C     3240   1 H                                       1.0936820
  2903   6 C     3241   1 H                                       1.0942730
  2903   6 C     3242   1 H                                       1.0890707
  2902   6 C     3243   1 H                                       1.0915249
  2902   6 C     3244   1 H                                       1.0931039
  2901   6 C     3245   1 H                                       1.0926430
  2901   6 C     3246   1 H                                       1.0915610
  2900   6 C     3247   1 H                                       1.0932449
  2900   6 C     3248   1 H                                       1.0928962
  2899   6 C     3249   1 H                                       1.0929058
  2899   6 C     3250   1 H                                       1.0924246
  2898   6 C     3251   1 H                                       1.0928025
  2898   6 C     3252   1 H                                       1.0928762
  2897   6 C     3253   1 H                                       1.0876407
  2897   6 C     3254   1 H                                       1.0883557
  2897   6 C     3255   1 H                                       1.0876313
  3016   6 C     3256   1 H                                       1.0880587
  3016   6 C     3257   1 H                                       1.0876604
  3016   6 C     3258   1 H                                       1.0879610

 * 2 distinct bonds (by element types)

   Z      Z             #   av. dist./Å        max./Å        min./Å
   1 H    6 C        2178     1.0925296     1.0949810     1.0864276
   6 C    6 C        1071     1.5274365     1.5349380     1.5205123


optimized geometry written to: xtbopt.xyz


           -------------------------------------------------
          | TOTAL ENERGY            -3427.445714692371 Eh   |
          | GRADIENT NORM               0.000823008551 Eh/α |
          | HOMO-LUMO GAP              11.311275450833 eV   |
           -------------------------------------------------

------------------------------------------------------------------------
 * finished run on 2024/06/20 at 20:53:43.793     
------------------------------------------------------------------------
 total:
 * wall-time:     3 d,  5 h, 36 min,  6.673 sec
 *  cpu-time:    16 d, 22 h,  8 min, 12.040 sec
 * ratio c/w:     5.234 speedup
 SCF:
 * wall-time:     0 d,  0 h,  7 min, 18.935 sec
 *  cpu-time:     0 d,  0 h, 38 min, 23.840 sec
 * ratio c/w:     5.249 speedup
 ANC optimizer:
 * wall-time:     3 d,  5 h, 28 min,  5.807 sec
 *  cpu-time:    16 d, 21 h, 28 min, 50.824 sec
 * ratio c/w:     5.234 speedup

