3258
 energy: -3427.445714692371 gnorm: 0.000823008551 xtb: 6.6.1 (8d0f1dd)
C          107.08297129866924      125.50177092296208      121.43687382470758
C          107.60873190074638      126.24879060511110      120.21715725674422
C          108.01093177872949      125.29337398470589      119.09674309979788
C          108.56585874505244      126.02720914201619      117.87968534639073
C          108.99980878881428      125.06354215460726      116.77968876157733
C          109.64354519612023      125.77408381633795      115.59060182830945
C          110.10332910659150      124.77478902572331      114.53472292770512
C          110.97058331700633      125.38400703909561      113.43705681931182
C          111.39453496091802      124.30904598992888      112.43825737835697
C          112.37343351367761      124.81367541380692      111.38180499885925
C          112.83046397201007      123.70654323675983      110.42825792616934
C          113.82769440777055      122.74008232309556      111.06463392864043
C          114.20335031008311      121.56845897761437      110.15277175509596
C          113.16732120932485      120.44541095337493      110.17268718543292
C          113.54400969635894      119.27284757422329      109.26719987421997
C          112.60358973455419      118.08468821886797      109.46139901840789
C          112.90974814501654      116.91045191926929      108.53268621222857
C          112.03355409630561      115.70559021036318      108.87019169626522
C          112.02049375598212      114.61342228554298      107.80352878074920
C          113.38261812240329      113.97956661094037      107.52622467738033
C          113.21373919290001      112.70707428919545      106.69696806278161
C          114.51099245638844      112.14144168559675      106.12351545173418
C          115.56039417374434      111.78838042792633      107.17494837558252
C          116.73785301388907      111.04223502168203      106.55184808081636
C          117.90023779697441      110.83050253647478      107.51752310999599
C          119.11484424768715      110.23790375322788      106.80625719482519
C          120.21179642696157      109.80319985357585      107.77418330179795
C          121.36661045528537      109.10086964388232      107.06016305991588
C          122.20530998000635      108.25812424831884      108.01616782543967
C          123.23710538942613      107.39107307922829      107.29649809847703
C          123.83911246648515      106.36220003330510      108.24934078850579
C          124.69240322136152      105.29136236844816      107.57360210845792
C          125.99030814610957      105.82492418448746      106.96919089298174
C          127.04633395935629      104.73183677804998      106.78421413956310
C          126.59464266047924      103.53859422177962      105.94034141047719
C          126.24309012514829      103.92180673878563      104.50526576966865
C          125.98780902869201      102.71652982667837      103.59938295232109
C          124.73913010659011      101.92513902488058      103.98525746543403
C          124.36179817473531      100.85767747673434      102.95704330441782
C          123.84934628472121      101.44312291750309      101.64343976523587
C          123.31277778951308      100.37247945864435      100.69738973136916
C          122.78231545542015      100.98643157498881       99.40404785251644
C          122.09831703849494       99.95278947453363       98.51428501858246
C          121.53566388130953      100.53644606002402       97.21832394479716
C          120.42683824076671      101.55913407750147       97.45925819649459
C          119.70245514270125      101.93669269821365       96.16920684081414
C          118.76380699655644      103.13414000016378       96.32573221629738
C          117.64164053913481      102.91565026892891       97.33862605227132
C          116.69008289769778      104.10923300829472       97.38268487617869
C          115.57941431960759      103.92789446795973       98.41438502452067
C          114.60536634031131      105.10763092081079       98.48332398890962
C          115.24511664196353      106.46587935433303       98.78427053675848
C          115.96653947835985      106.51081387101567      100.12680291018383
C          116.75604271625222      107.80098526686174      100.33751898397924
C          117.44503947871847      107.82697138343067      101.70888409558390
C          118.83174287948539      108.46673571071364      101.66613335041373
C          119.52639951216771      108.40381301284123      103.02597457260569
C          121.02810609506295      108.68914680214459      102.96812812143025
C          121.36634081547355      110.14245545349445      102.64529193334080
C          122.87282598761767      110.40844583673295      102.58605091552920
C          123.55828009308344      110.32232339763858      103.94813999530000
C          125.05661849407480      110.60507652521623      103.85926996201698
C          125.77493438056416      110.45823839687770      105.20341772510919
C          125.45977543755961      111.59694902285470      106.17080356667590
C          126.17364117683580      111.47666057410134      107.51843430268990
C          125.61232683458651      110.36219406484599      108.39855830171400
C          126.21463947110760      110.37068179950435      109.80200382178860
C          125.63929152474235      109.25965595280795      110.67773324724764
C          126.28032010010001      109.21124387997946      112.06272845881297
C          125.63901593282287      108.14677109270802      112.95160476129251
C          126.35887728016166      108.01071783594038      114.29137380490027
C          125.69676856170901      107.00962881762889      115.23961180594539
C          125.73049003636861      105.57788379434506      114.70549014033107
C          125.48359127327571      104.51758787651605      115.77977142457767
C          124.10648646265525      104.56855384344880      116.44326437610317
C          122.94931691482597      104.29220757355658      115.48449874038045
C          121.64591347780501      104.03770496329987      116.23813285625920
C          120.46205861458589      103.80121754659469      115.30186815413718
C          119.23125406565785      103.25186279222402      116.02320722228939
C          118.55731082219494      104.25691142664486      116.95381011682777
C          117.42162069395461      103.61003881580331      117.74239866375764
C          116.61103314744881      104.60240840140304      118.57963373525413
C          115.53202049558709      105.36221325617873      117.80525321980134
C          114.37241423128619      104.47133227457522      117.36090244281412
C          113.19145438005482      105.27858514523332      116.82818194181438
C          112.07985954778924      104.38771597619552      116.27599092991647
C          110.85677038512496      105.19158102908577      115.84469663142525
C          109.72516809719404      104.31643890374033      115.31209681367430
C          108.48750051501291      105.14599423730256      114.97935236958540
C          107.36741734172536      104.31408085403361      114.36236422896624
C          106.08801569643536      105.11947535710134      114.12721201274185
C          105.27227351899128      105.31755797111400      115.40217363459097
C          104.07443480564618      106.24015315003516      115.19597376020151
C          103.24802984136278      106.38147702809289      116.47156642367001
C          102.11400674801733      107.39098451036733      116.32488027406217
C          101.33731077517552      107.58784958446886      117.62451457055420
C          100.22235582603636      108.61535916499710      117.45761124409668
C           99.45992979495607      108.93422732480478      118.74341683215165
C          100.30070857373171      109.56484377332842      119.85464759764292
C          100.97779390205392      110.87598984162651      119.45969760792828
C          101.68563896372009      111.51315950455451      120.65302092260005
C          102.45195885708434      112.78388351577982      120.29155567985713
C          103.18285994561927      113.34138840989739      121.51057295924039
C          104.05363139722130      114.56314269247011      121.21783612394684
C          105.32425221256555      114.23640185741706      120.43173707167628
C          106.34656390880062      115.36695621293464      120.52658154462002
C          107.61617917462664      115.08897175243324      119.72514516818045
C          108.70181245142874      116.12817804891615      120.00116837586090
C          109.91697008516174      115.97018521503362      119.09128363631893
C          110.97163320561972      117.04696640145805      119.32819198752333
C          112.11282939539001      116.97615879066170      118.31344643480193
C          113.01198147403832      118.20626707737988      118.40219561286722
C          114.17160578718594      118.21893642900847      117.40569790328423
C          115.25246639003046      117.19282579188348      117.73495740459867
C          116.49868149240513      117.30252515498142      116.85508030110249
C          117.32508680653703      118.56279432454494      117.10548260067405
C          118.65449670641064      118.52729423413575      116.35562160977354
C          119.47588111798424      119.79694998039419      116.56413103415227
C          120.79530565731230      119.75176189330446      115.79932239428136
C          121.60154586402324      121.03674588080956      115.93814970267181
H          121.39126887728517      118.91020641084664      116.16054369670232
H          120.58745654256026      119.57404295485054      114.74193112249219
H          118.89749357291996      120.66219993927140      116.22818481487404
H          119.67772548219359      119.92940777265140      117.62930974829997
H          119.23695129332971      117.66483546376301      116.69040142116027
H          118.46251316386304      118.39732730552225      115.28775890646187
H          116.76394395526005      119.44503955676311      116.79228677742579
H          117.52114285057542      118.65960208410959      118.17703104279691
H          117.13222043069287      116.43111875470348      117.04408308456273
H          116.20299215560695      117.26811439616542      115.80348808671383
H          115.54397456322987      117.31535114658357      118.77994050721152
H          114.84043785656532      116.18818907344678      117.61797974417564
H          113.78843892834472      118.03847141319166      116.39776585459103
H          114.61415289285688      119.21682845600408      117.41803906572434
H          112.39897229657043      119.09513105711879      118.22947786483357
H          113.41577420628781      118.28091683640298      119.41363558977689
H          112.69536857503573      116.07072137537745      118.49067052341111
H          111.69545892571952      116.91065329295050      117.30603937566650
H          110.49485404705173      118.02919396455015      119.26423161730403
H          111.37570456536172      116.94960481666367      120.33965559044876
H          110.36487173027788      114.98759386137412      119.25353336606506
H          109.59242342082891      116.02135261801054      118.05035008716223
H          108.28018767214252      117.12850805958861      119.87088424326068
H          109.02203152462094      116.04467279801094      121.04276579861536
H          107.99444540500988      114.09652466469979      119.98313655926748
H          107.37771229235197      115.08534636640674      118.65899220715082
H          105.89243106669420      116.29702916895830      120.17745473887358
H          106.61450162849968      115.51054678759311      121.57486196393485
H          105.76878601952147      113.32220708401012      120.83340327544065
H          105.08053858675473      114.05119185640241      119.38334098500472
H          103.46901421860171      115.31103937789051      120.67706620795387
H          104.34605467972787      115.00670362591386      122.17424979082996
H          102.43981163337148      113.60936349361853      122.26712221781068
H          103.81170823640331      112.55463523140351      121.93646846252275
H          103.17219861821860      112.55961148917051      119.50165684362723
H          101.75951368487031      113.53668422894773      119.90422817564361
H          100.95183281936113      111.74461854324100      121.42883886689010
H          102.38613087623922      110.78933680143724      121.07838233781818
H          101.71196057507845      110.69095792284959      118.67292637427089
H          100.23041424538673      111.56863937189202      119.06242969410565
H           99.64782266124460      109.75282532291338      120.71023394830225
H          101.05995031498382      108.85427062758066      120.18670339181939
H           98.64300051822977      109.61727303017970      118.49104793830328
H           99.01221938399027      108.01430362988060      119.13025283463799
H          100.64377559701069      109.53800709847485      117.05501704500556
H           99.50925771085815      108.24121235934849      116.71951632302309
H          100.91101615979790      106.63412043587358      117.94687551371950
H          102.03129718375767      107.91843619464302      118.39716138427413
H          102.53236225342921      108.35252513585122      116.01397984824479
H          101.43375307160296      107.06289465680972      115.53603980820949
H          102.83368789280028      105.40783864205265      116.74747032910550
H          103.90640002598516      106.69902256552056      117.28479913004993
H          104.42927260814230      107.22748524059671      114.88805651787511
H          103.44378773289823      105.85418268307500      114.39139943428381
H          104.91935065920003      104.34552946271265      115.75407243375562
H          105.90688737693330      105.73998285679173      116.18438882945330
H          106.35057511200245      106.09410140080500      113.70832524471851
H          105.46544812469806      104.60621551585304      113.38985248721481
H          107.72097884604020      103.91024226040795      113.41146898731864
H          107.14191385269535      103.46667327966004      115.01426344236027
H          108.13006889294226      105.63094508285154      115.89059220818947
H          108.76529906608764      105.93773218845651      114.27942706611643
H          110.06191763919243      103.78880021127993      114.41653810437899
H          109.46532600254514      103.56248023436606      116.06086395351039
H          110.48676372862465      105.76551729113937      116.69536118492425
H          111.14835834399324      105.90798044276254      115.07321014164741
H          112.46023738782593      103.81869703470592      115.42491641036219
H          111.78285887914896      103.66917208783170      117.04163987911903
H          112.79286975844890      105.89341757675788      117.63874891748397
H          113.53847976816520      105.95568906581420      116.04386771952649
H          114.70734307492077      103.77811344205604      116.58736713665623
H          114.03449530313227      103.87612899813551      118.21320213116002
H          115.13777620523813      106.14918188181726      118.45477876185220
H          115.97235149784777      105.85052405870191      116.93442120594725
H          116.12342395068542      104.05884651011407      119.39414302582638
H          117.29725431394873      105.32345351346528      119.03371290651651
H          116.75875059587501      103.08489340281437      117.05422441071427
H          117.85299867091950      102.85872756270108      118.40933522690020
H          119.28967983056374      104.66397674614882      117.65445735462747
H          118.17142871857098      105.08491226246809      116.35830211771815
H          118.50312627577020      102.92289515898079      115.27827952159359
H          119.52629673590783      102.37050686959070      116.59902860207941
H          120.20447797128116      104.73410345540388      114.79393163849493
H          120.76257923727107      103.07952122072098      114.53699150393781
H          121.77461965610392      103.15891128228698      116.87512313109499
H          121.43996931352518      104.88848914428809      116.89076545651533
H          122.81519839249709      105.13999835987370      114.81162385240212
H          123.18727209538604      103.41662169984853      114.87442543946972
H          124.09033543392766      103.81393331441920      117.23546799297544
H          123.96264901898236      105.53990423206214      116.92003054107089
H          125.61475824325547      103.53027038815097      115.32763341271570
H          126.24610776047872      104.62328061709319      116.55688414423463
H          124.99634963645755      105.46589037684613      113.90833278248471
H          126.71688020813579      105.39015382728749      114.27206734768156
H          126.22299982951463      107.04278028927267      116.19760905042193
H          124.66445279010357      107.31637952838113      115.41756549176830
H          127.39376425152625      107.70558015553790      114.11399941310300
H          126.38899129076496      108.98857665713277      114.77986785773170
H          124.59262084871777      108.40676267307126      113.12776352506229
H          125.66096690997064      107.18897037627202      112.42904112528085
H          127.34766548708363      108.99969963953266      111.95624754082115
H          126.18871566946392      110.18964789920133      112.54140723152121
H          124.56090721748843      109.40510822970951      110.78387858002694
H          125.79359612134907      108.29720888770089      110.18299438286201
H          127.29901829391444      110.25010482381838      109.73134291505306
H          126.02165310603721      111.33739870599024      110.27387254178271
H          124.52942889262116      110.48332072028262      108.47365626527298
H          125.80698935858281      109.39286248902863      107.93632706184580
H          127.24185625226247      111.31202472348527      107.35437791585451
H          126.06770152849441      112.42513311812074      108.05214581363813
H          125.75391128051623      112.53935349120339      105.70009233394272
H          124.38529474077727      111.63825910528816      106.34952090328663
H          125.49432136150236      109.50274044728519      105.65027977528145
H          126.85422200745481      110.43554711526990      105.02917888588347
H          125.50085161837163      109.90653237444673      103.14480076797908
H          125.21681121341703      111.61471635624514      103.47176576622456
H          123.08909016308624      111.04233394666296      104.62056253907897
H          123.41728307248982      109.32615493968534      104.37076015128451
H          123.33633040901717      109.69387179782906      101.90033354396495
H          123.03934189620222      111.40870575193884      102.17639654652477
H          120.93269899299924      110.40101658600290      101.67655571485604
H          120.91293848240802      110.79371954204876      103.39725544055435
H          121.46300003075493      108.43174186590312      103.93574039213229
H          121.48875747690634      108.04008386800122      102.21781761354731
H          119.04962500464056      109.10557997571736      103.71406919931896
H          119.38908378616814      107.39864899371132      103.43564304166520
H          119.44081296903570      107.93166511382181      100.93302520795304
H          118.74363066870892      109.50285075879231      101.33610467696670
H          116.82090007644533      108.35837704875793      102.43050882683590
H          117.55392894467944      106.80179896966219      102.06958658669662
H          117.51004410796638      107.87787112369421       99.54993945136809
H          116.09395238272977      108.66292238678092      100.23105517762464
H          115.23586518749556      106.39077812901195      100.92884219570044
H          116.66488570276279      105.67569261772283      100.18661235986600
H          115.94371358876954      106.72782059905673       97.98630175810493
H          114.45709901399502      107.22299113678103       98.78353933970055
H          114.07851310450751      105.18144556562930       97.52800632134689
H          113.86001294901401      104.89203931491144       99.25338431579053
H          115.00756808902969      103.03082214596218       98.16156138598186
H          116.02595019313301      103.75763376412910       99.39617228949109
H          117.27151947921374      105.00160431656718       97.62205891705061
H          116.24474245201347      104.25877830643765       96.39527895973403
H          117.08779294532181      102.01216908291750       97.07538334748705
H          118.06855833785922      102.77204072267152       98.33322508304117
H          119.34681470328132      104.01009178464918       96.62196090194573
H          118.32008359022663      103.35564776511939       95.35069180074908
H          120.44617426511428      102.17944074195412       95.40455292018936
H          119.13474343774946      101.07474648100563       95.81275132551859
H          119.71173338866602      101.13886822210385       98.16902108720234
H          120.85556266175341      102.46062984061986       97.90030138971009
H          122.34203911358958      101.00145959942984       96.64495449441645
H          121.13388599411385       99.71751576241145       96.61638158245158
H          122.81565855690309       99.16672052181903       98.26662189908120
H          121.28221991255822       99.49086488122856       99.07389633098187
H          122.07075973129913      101.77067976232297       99.66384169607758
H          123.60504320241311      101.45298529083308       98.85558293152070
H          124.10290030441878       99.65282136198454      100.46988253536556
H          122.50415935272476       99.82983917168906      101.19199199691718
H          123.05068106790104      102.15738420427107      101.86014580349799
H          124.65034201703153      101.98828429931493      101.14007028881817
H          125.22536592644103      100.21846843924895      102.76033943805450
H          123.57806307032722      100.22576078081303      103.38356342306696
H          124.90698162956525      101.43765185987924      104.94751551715494
H          123.89934827340251      102.61504076824440      104.10234838723704
H          125.87857038518219      103.08216833302006      102.57653288075537
H          126.85675057598039      102.05347077666080      103.62060295280570
H          125.35588093952796      104.55762238098602      104.50107474458932
H          127.06884165629251      104.50430100000212      104.08679667109310
H          127.40825726395924      102.80758174544934      105.91931752010740
H          125.73849917086169      103.06172817894891      106.41752836957730
H          127.93461282122711      105.17544915165917      106.32548691304029
H          127.34021167323334      104.36235401463219      107.77123918269633
H          125.78831452396133      106.30967561758767      106.01284607464852
H          126.40947714409269      106.58401855473757      107.63622233380339
H          124.94490920917357      104.53906166604808      108.32424698231679
H          124.09902782083904      104.79923979100823      106.80029432587921
H          124.43644844087625      106.87848985209017      109.00496599341720
H          123.02019066808954      105.85964554056169      108.76869825490040
H          122.75158972418892      106.86825368748893      106.46923336532240
H          124.02141141707676      108.02142400482228      106.87366638860311
H          122.70741289515409      108.90273288800157      108.74107427979881
H          121.53355654504310      107.60266331507979      108.57567937444807
H          120.95407893994438      108.44143174458684      106.29175277734660
H          121.99713027080239      109.83490438870143      106.55446265775535
H          120.58398181189824      110.66587248072669      108.33130502885574
H          119.77796685346004      109.10885791051800      108.49812262192944
H          118.79147150243955      109.36717424657520      106.22875059496093
H          119.51631182176338      110.96891041759947      106.09940815238062
H          118.17712084120247      111.78362187849361      107.97568483449460
H          117.58674019217443      110.15797880805415      108.32035217218760
H          116.39572447971722      110.07079150592826      106.18501160338408
H          117.09972089021635      111.60756000011014      105.69297184970458
H          115.92366649803111      112.70166867982000      107.65110034738184
H          115.10373887475657      111.16774262411242      107.94979970974858
H          114.26898679210726      111.23974135032358      105.55327798911917
H          114.93684682619146      112.86576372462198      105.42366658143811
H          112.73167401255969      111.94382718119799      107.31346594672033
H          112.54032616778812      112.92227897000537      105.86343193292758
H          114.01839857500497      114.68822030584725      106.99079017259446
H          113.87217035774188      113.74279720314567      108.47202693297760
H          111.33346925365259      113.82745034432395      108.13233278952835
H          111.62080778605403      115.02251933173592      106.87218233968920
H          112.36925875899662      115.27619472312601      109.81658262605575
H          111.00678876491888      116.05104986466095      109.01418307594068
H          112.73406361521978      117.20951073561315      107.49745800887453
H          113.96345668043881      116.63890398370788      108.62461311201321
H          112.67255944000426      117.74338947662271      110.49745623093735
H          111.57375532643799      118.41184658372488      109.29551915100781
H          113.51992147096112      119.59664680734470      108.22312951967682
H          114.56851310532443      118.95887112101893      109.48714966626720
H          113.06387739613477      120.08022152836567      111.19862017258295
H          112.19398587867984      120.83502965183520      109.86593254451248
H          114.33577204078644      121.92861027462843      109.12910239240709
H          115.16221363339376      121.16078282270283      110.48054247751858
H          114.73065114826161      123.30086523761838      111.32144857116477
H          113.42027112964595      122.34285968929223      111.99539491845417
H          111.95456281400125      123.15788297048850      110.07684532831347
H          113.30417985006322      124.16445597495073      109.55621789822710
H          111.89153104268415      125.60768571940481      110.80465877940439
H          113.24730059420958      125.25121291737271      111.87228261762107
H          111.85254932803919      123.48754766294078      112.99260371422594
H          110.50547581579889      123.91118456182565      111.94239511053806
H          110.42367809543327      126.17792365635697      112.92400947849215
H          111.85899981207085      125.83883794807684      113.88351033930313
H          110.67320640834241      123.98344261927528      115.02736088851991
H          109.22801452568554      124.31201285697286      114.07289027814181
H          108.93338174877137      126.47919245363587      115.15244710316959
H          110.50418993306033      126.34665799582559      115.93890099905838
H          109.71574362786312      124.35020124893633      117.19826482519180
H          108.13215643531085      124.49420564339532      116.43964604140514
H          107.80731603568444      126.70993572724463      117.48807230547810
H          109.42077621644013      126.63313364970431      118.19203663300416
H          108.77070442681037      124.60344902867301      119.47030246144357
H          107.14515206539237      124.69591316751365      118.79941464251266
H          106.83980450848378      126.93406553604373      119.85274209355140
H          108.47516466394049      126.84950275579331      120.50584057142032
H          106.20949782978204      124.90966763341672      121.17331879131028
H          107.84459658754032      124.83244225213203      121.83214363931697
H          106.79988320073389      126.19894845811785      122.22220891584099
H          121.02237107140007      121.89257384378929      115.59723743371194
H          121.88284321682308      121.20719639429866      116.97519217952457
H          122.51163680590493      120.98185967212449      115.34452249908726
C          103.16805872454569       98.76548711339825      104.72309983277160
C          103.98160048888028       99.03478428435794      105.98052379784880
C          104.83051920814681       97.83541434884765      106.39390260853709
C          105.63393717580050       98.13216108085439      107.65530720910449
C          106.53564385614564       96.97919257710414      108.08664928140099
C          107.29091583872763       97.33192684494919      109.36430878756106
C          108.22553495752238       96.22827220548172      109.85191873188533
C          108.84672898567057       96.61507348109546      111.19108646906361
C          109.83650076604182       95.58815050861907      111.73782222228320
C          110.06372235690084       95.75563422441793      113.24110405539470
C          110.68114669087018       97.09790437521322      113.62981259346481
C          110.66389702785101       97.31131140598505      115.14128770731665
C          111.14723464589167       98.70147927269973      115.54614302797977
C          111.04472078494271       98.92229846470094      117.05395824179624
C          111.40474000995344      100.34968914075333      117.45709476669455
C          111.33844714169938      100.57147684620442      118.96746301573388
C          111.68423118062903      102.01182269063273      119.33312318578281
C          111.83949354956776      102.24526606039312      120.83297443290756
C          112.36429605825813      103.64991300821249      121.12563254903621
C          112.59302420814865      103.88536223146853      122.61606948248864
C          113.14656867828020      105.27571701169157      122.93751480927335