3864
 energy: -5104.056193605294 gnorm: 0.000983639799 xtb: 6.6.1 (8d0f1dd)
C           44.61823754214811       61.01682732284894       66.52951582082359
C           43.79234180083914       61.88079314532421       65.82102130974343
C           43.93830559032720       61.94961369155916       64.43988107443249
C           44.87402244850546       61.16695442221845       63.78710007511710
C           45.68584456442871       60.30477268621345       64.50392458908553
C           45.55901941958537       60.23742242786850       65.87998731820005
C           42.79487756329128       62.73994108618169       66.55899106647173
C           43.25145570923146       64.20145768341261       66.52903489741630
C           41.37290596839366       62.61566178829677       65.99536320710305
C           40.90043516439128       61.15972627001182       65.90408781502873
C           40.91787600084886       60.48370307266394       67.25251074507524
C           40.05282866166823       60.88092534410347       68.26574050288093
C           40.03529124250730       60.22103651896185       69.48136783770902
C           40.88341161366555       59.14936986422959       69.70451897567487
C           41.75551999952577       58.75080309392694       68.70653344277369
C           41.77233353191186       59.41314314956647       67.49090740699204
C           39.48651543969095       61.05973638893796       65.30131613887973
C           39.43999360455687       61.14971427784381       63.77248476495431
C           38.01612685224735       61.25799063262447       63.27147303060303
C           37.73852954757249       62.09352061762489       62.19528065533636
C           36.47175025511635       62.16611901377242       61.64654520226510
C           35.44443559769265       61.40610129017256       62.17712618703689
C           35.69514882325854       60.59765855724982       63.27126047884640
C           36.96604476317957       60.52685800493339       63.81623259167807
C           40.16412950737465       60.00129756331700       63.03250122059826
C           39.60398229741197       58.58943930114305       63.28322696400208
C           39.69350613998949       57.75968013621559       62.02512170483207
C           38.54334516457789       57.24966179634675       61.43553979090205
C           38.61286957382317       56.47203831808800       60.29255506052212
C           39.84159405604489       56.20282251937440       59.71634592582214
C           40.99441637514791       56.72074084245043       60.28142936607635
C           40.92027602783732       57.49266965767363       61.42693535290221
C           40.32639821220440       57.87872139400184       64.43914542515529
C           39.54114740305951       56.67348353508191       64.97678845122068
C           38.20250022835480       57.12804644837369       65.50758559023939
C           38.11475367305643       57.91080237381259       66.65477200627188
C           36.88568679178177       58.33557563558973       67.12996817006029
C           35.71996036530832       57.98325721285548       66.47017057415631
C           35.79368899426348       57.20636401702201       65.32672216632150
C           37.02488657626247       56.78435423290151       64.85361020248388
C           40.32436432547206       55.93664485178934       66.07908542812288
C           41.31244959142114       54.88264495628743       65.55557732737238
C           42.52385442606491       55.50283782142780       64.90814369282573
C           43.44452775125487       56.22404603879978       65.66167529881575
C           44.57880008449792       56.75481720498319       65.07599133435100
C           44.81338140723559       56.56898173212295       63.72401597402479
C           43.90201784436552       55.86067376078053       62.96094390167853
C           42.76608258189479       55.33328979983050       63.55036272437339
C           41.76456896203889       53.95738773905274       66.70231315412413
C           40.71529769428724       52.89023580373928       67.05958278094313
C           40.84579562883667       52.50548037607831       68.51329015302194
C           41.94423028973654       51.78847438107636       68.97003040046341
C           42.06447889623839       51.43021345297184       70.29956982538768
C           41.08282388209624       51.79560789418606       71.20534268307343
C           39.99657054499359       52.53493529976046       70.77132997617917
C           39.88334815411524       52.88968184467473       69.43830086246784
C           40.82525562428106       51.66744481088805       66.13857264769310
C           39.63748380114956       50.70862035472091       66.31561569290415
C           39.92476162411179       49.38244735629813       65.66239992630172
C           40.05360942859453       48.23107336818544       66.42819663324835
C           40.30231794253586       47.00494618157018       65.83488883841481
C           40.43066853522507       46.91401435877685       64.45954692223799
C           40.30020775987851       48.05661283805312       63.68863348655326
C           40.04816544130495       49.28057866348961       64.28109928215869
C           38.33899558630520       51.32623633799363       65.76187550192419
C           37.35509528194444       51.70969523652776       66.87444602065116
C           36.77865555785981       50.47464229925063       67.51799620860808
C           36.02087532073822       49.56467767390831       66.79086902673889
C           35.51466326456324       48.42455561090444       67.38639843843106
C           35.75608267070491       48.17582708466185       68.72653707423709
C           36.51001508318615       49.07339261763289       69.46251600169646
C           37.01844608896756       50.21137531425015       68.86099496063035
C           36.26870799616634       52.63437795311813       66.31812414218119
C           35.28118700997126       53.10800476032633       67.39093779297188
C           35.97440704056063       53.82268410601745       68.52194859976849
C           35.81383281279320       53.38227395859534       69.83010520483862
C           36.42747943831212       54.03868638611995       70.88236567170435
C           37.21954333963863       55.14796449442503       70.64124454836640
C           37.39310999478924       55.59280123740420       69.34155423881363
C           36.77294628209044       54.93726245675884       68.29270305979247
C           34.22823194513926       54.01192823850243       66.73377902831812
C           33.05798326752809       54.36684938176888       67.65230078372151
C           32.17345818539026       55.43866479555572       67.05780937642267
C           31.98341261817686       55.59542949456326       65.69004200146574
C           31.12370779259790       56.56435622884279       65.19989274378034
C           30.43966128741612       57.39701600823759       66.06628042835163
C           30.62407895431434       57.25567975646442       67.43126510003363
C           31.48131111111362       56.28618398941414       67.91662833139569
C           32.18517548959475       53.15738573784086       68.04959279035296
C           31.55327984795779       52.40450224351157       66.86195621145332
C           30.11134360700913       52.07722453524994       67.16075778406869
C           29.76381849827940       51.13055537489611       68.11726922061752
C           28.43665498832893       50.84246258136162       68.37809802159097
C           27.43272468053560       51.50438988683263       67.69217480854708
C           27.76656855988985       52.46063263773544       66.74897138809692
C           29.09545179059581       52.74310143210230       66.48699096127626
C           32.34309230328986       51.13899244475413       66.50159703696436
C           31.73765125796398       50.39662113429695       65.30373057462258
C           31.57883133364702       51.30875655715236       64.11359668392656
C           32.67571352383320       51.94444643137377       63.54240851157581
C           32.52923281131019       52.78143763425246       62.45105175562609
C           31.27334293414050       52.99164382346235       61.90682329569516
C           30.17301598378337       52.36161874153288       62.46066599742829
C           30.32650257407959       51.52948844919839       63.55551051361449
C           32.60184457188254       49.18455900606749       64.93157912967882
C           31.85414199589499       48.23303666098482       63.98607740690011
C           30.83480641713453       47.45018043725693       64.77156278984232
C           29.48169945653219       47.73849064251776       64.64892257838841
C           28.53865087593887       47.05635850031054       65.39735436570059
C           28.93650551472282       46.06698985953885       66.27930888841846
C           30.28252541107754       45.76909872690950       66.40865619575564
C           31.22297858680449       46.45906912288129       65.66586429050150
C           32.84350010228790       47.33159490639657       63.23665011867781
C           32.13918842971901       46.32163432240903       62.31786139642170
C           31.14015259894657       47.04814074330142       61.44873472720155
C           31.54900432596116       48.02612535221543       60.54838070096509
C           30.62383069958322       48.74177508599634       59.81123940160133
C           29.27088059649254       48.48605566289011       59.95372858823650
C           28.85325929349587       47.50186897920106       60.83114651082420
C           29.78174413371254       46.78900467988723       61.56991190830551
C           33.13439442657427       45.52860379985236       61.45100993250797
C           33.71406105838924       44.27701200982032       62.12957812700290
C           34.52597646871371       44.61817002851685       63.35275157877761
C           34.08628693249759       44.24576215134437       64.61767703143104
C           34.82127917138634       44.56316700241747       65.74764347406625
C           36.01182112080574       45.26015798582961       65.63125688451325
C           36.46271699225340       45.63595130978457       64.37684377338914
C           35.72657761892737       45.31341286715188       63.25057174813269
C           34.55688973029127       43.46975220377423       61.12775832181466
C           34.97500999063242       42.11221683348637       61.70739090158290
C           33.75480121932279       41.25119069066628       61.93976800196754
C           33.36166568632403       40.91142732675973       63.22759902934490
C           32.23549333110944       40.13638445894220       63.44567166619200
C           31.48546489766178       39.68296440290292       62.37476084133255
C           31.87160567696977       40.00389318797080       61.08456123327650
C           32.99593725924536       40.78077015881685       60.87378036256337
C           35.95084487838861       41.35275047817798       60.79709009923926
C           37.36893964299757       41.93165739275184       60.63139562721817
C           38.08830986814438       40.98231206011197       59.70126301368429
C           38.43984457587293       39.70084886479322       60.11347446384550
C           39.00706151955162       38.80203949390562       59.22870535337560
C           39.23409400246771       39.17132895325685       57.91401175976470
C           38.90248123857376       40.44786063606290       57.49428584677949
C           38.33326154887278       41.34350891983286       58.38354982743891
C           38.10432419045941       42.10434681831200       61.96610174642532
C           39.57868517567660       42.48883384052474       61.77676976116187
H           42.77223941016778       62.40885167736346       67.60368741676402
H           40.69569413606258       63.18298522793334       66.63766338699398
H           41.33414072149090       63.06345174480347       65.00082373708604
H           41.60418259427976       60.62715852917545       65.25813603039157
H           39.03231524826588       60.12353159578896       65.62294970614475
H           38.86999059645434       61.86910128693626       65.70101503207977
H           39.95802902549923       62.07040130019118       63.47526290596504
H           40.08733096905819       60.21905789018553       61.96303879777394
H           41.22737835604478       60.02084171703689       63.27994171835672
H           38.54576829323218       58.68428438886847       63.53803905545271
H           40.48063074893435       58.57440539227535       65.26020384268189
H           39.36177814843684       55.97933306739932       64.14830775888181
H           40.86101317976004       56.66357826314697       66.69123286635535
H           39.60519655022633       55.43307116113863       66.72995242727430
H           40.79864279640762       54.27394374604282       64.80269366156446
H           42.69839704249594       53.46418957702488       66.42124819662409
H           41.96770336157905       54.56405969240667       67.58732531432530
H           39.72628253153918       53.33384451079840       66.91963577041845
H           40.87080033872732       51.99764141634595       65.09820306306648
H           41.75084554780630       51.12743415657285       66.34867549546473
H           39.51409648764346       50.52829115084349       67.38888369966662
H           37.89591951610502       52.26342635274822       67.64586295197431
H           36.74823848254816       53.50129592843521       65.85880202204308
H           35.71733716896515       52.11217953798423       65.53356043711725
H           34.79090910339612       52.22171258150440       67.80429836253450
H           34.71178806426020       54.94162988188172       66.42385856895363
H           33.85726649703203       53.51641398163594       65.83700998165718
H           33.47980447257789       54.76766102378217       68.58309207887315
H           32.77788110309354       52.46517628541332       68.64960879637201
H           31.38526284963228       53.53370453497366       68.69216920816993
H           31.55511822754955       53.06817010941904       65.99309342378899
H           33.37459195663577       51.40286642210179       66.27492924039809
H           32.36513303280084       50.45878890831224       67.35561398319935
H           30.74691175769851       50.03331558952136       65.59707720952086
H           33.51969033672570       49.52477803174089       64.44817605401344
H           32.88390136376116       48.64936168551442       65.83993529515325
H           31.32593701004625       48.84258330875944       63.24437086319757
H           33.49453165334869       47.97147340164314       62.63653142125982
H           33.47318239009768       46.80047902492664       63.94912855608887
H           31.58745319676779       45.61369725578800       62.94558924080798
H           32.60766589632771       45.19536187825200       60.55257928980115
H           33.95006795835511       46.18270759409169       61.13941955823532
H           32.87116052128883       43.64866635755340       62.44044850601460
H           33.97596796934075       43.31322242497851       60.21652960737591
H           35.44576756579723       44.03601937034132       60.84944532861353
H           35.45642161522168       42.28567170749484       62.67474480170742
H           36.04187282009820       40.33676637791171       61.19049552293222
H           35.51738175537407       41.27415905361660       59.79707695237292
H           44.52181151110219       60.95552005286910       67.60480763434168
H           46.19927452341250       59.58080228965256       66.45210995728870
H           46.42089106322670       59.70038727392951       63.99313366720381
H           44.97697335957930       61.23322602079523       62.71390460264079
H           43.31833374449310       62.62102305480037       63.86281654171518
H           39.37998447783863       61.70958792787935       68.10168096472525
H           39.35437629406557       60.54108545505873       70.25691926357291
H           40.86521376896877       58.62878375823560       70.65077806951304
H           42.42413568621579       57.91855237426117       68.87661561413256
H           42.45849764814873       59.09621787781998       66.71701079836180
H           38.52808716700931       62.70620511264053       61.78467672579774
H           36.28707258634259       62.81473255528326       60.80278871466744
H           34.45467014473522       61.45368616647136       61.74755404438410
H           34.89905065044147       60.01335408268518       63.71049120064423
H           37.11712236780446       59.90163322999655       64.68256055128538
H           37.58124204629608       57.46592795345563       61.87908109118083
H           37.70992393986738       56.07028155650485       59.85622244831558
H           39.89915705564836       55.58906958535100       58.82956634434856
H           41.95660133495061       56.52983162382283       59.82903862658154
H           41.82891526869380       57.89195678586981       61.85339672095827
H           41.30730398387571       57.54481800212494       64.09908889354567
H           39.01313073632544       58.18836900565633       67.18729723099385
H           36.83966056098170       58.94531318131488       68.02052045401382
H           34.75986883247825       58.30783110276954       66.84319892752674
H           34.88899538999447       56.93170246723161       64.80259914091901
H           37.07652248800682       56.18157342467325       63.95765255097218
H           43.27550999245077       56.36913259775883       66.71828344745956
H           45.28456818094925       57.31233589614592       65.67349588695836
H           45.70402401970663       56.97942546299297       63.27058747323488
H           44.07209389575320       55.72098393053404       61.90385867480892
H           42.05348850508034       54.79078854133101       62.94457646168858
H           42.72013023852441       51.51019625237888       68.27384547164881
H           42.92612457050647       50.86603432575125       70.62713807597221
H           41.16922200601078       51.51263526301419       72.24406024966082
H           39.22960809282668       52.84007127808710       71.46856534877629
H           39.03664699407220       53.48240222945699       69.12208556330155
H           39.94918330743806       48.29701350713869       67.50235898342594
H           40.39686492038162       46.11922511642122       66.44700573229066
H           40.63332389774278       45.96338740031989       63.98699903445426
H           40.38669473577751       47.98819196937612       62.61498952520896
H           39.93603695014454       50.16188981566344       63.66454302430198
H           38.57420950336957       52.21374245206889       65.17036713499755
H           37.85367766062248       50.61906337831973       65.08778265001447
H           35.82544971024571       49.73950661177400       65.74326642951631
H           34.93806734548276       47.72360002612150       66.80001970345162
H           35.36060195603838       47.28582926204277       69.19415416080317
H           36.70658936329165       48.88580802555808       70.50839099693097
H           37.61082297251536       50.90540853847773       69.44180418252510
H           35.20228693100012       52.51259296831259       70.02691928881204
H           36.28563280701007       53.68293769010560       71.89292586790758
H           37.70227643899522       55.66132597558948       71.45981062045965
H           38.01464438994269       56.45320940790089       69.14045549196855
H           36.91639230969606       55.30258914136968       67.28695002011044
H           32.50455175327218       54.96613109264713       64.98429672502701
H           30.98829455957985       56.66494558273687       64.13224147018737
H           29.76957644849778       58.15212447805458       65.68234051420922
H           30.09874383979432       57.90304890225997       68.11841661979500
H           31.62089239131291       56.18324646216334       68.98403939780729
H           30.53574313051853       50.61162161253439       68.66642218730966
H           28.18435657516214       50.09878157897629       69.12032522112020
H           26.39609214416675       51.27876872999109       67.89542102045496
H           26.98948696401452       52.98776975625378       66.21425105525540
H           29.35084938054872       53.49157104399661       65.74952117450391
H           33.66082578832343       51.79041940036934       63.96108888752373
H           33.39480505673506       53.27158486355930       62.02567169731732
H           31.14944010882744       53.64868365521752       61.05799559110612
H           29.19044944440476       52.52126798376025       62.04097123617998
H           29.46118120142751       51.05186356134875       63.99256720530931
H           29.16425687298557       48.50205467952731       63.95260566891333
H           27.49081925355095       47.29778313614759       65.29153178328636
H           28.20259211276886       45.53088343575781       66.86300105957146
H           30.60067294522982       44.99729859166624       67.09520150600738
H           32.27006231233642       46.21874080470963       65.78150527526536
H           32.60096763896796       48.24577180582440       60.43685365828794
H           30.95306410343369       49.51443031458455       59.13110984722836
H           28.55074313330106       49.05572796969414       59.38513184075657
H           27.79892438605635       47.29846075583110       60.95435516491653
H           29.44474247229489       46.03435582910342       62.26658571049279
H           33.15348153887489       43.70818784701353       64.71730482291296
H           34.46164905215295       44.26658039579036       66.72285720328804
H           36.58650287018775       45.51425244198393       66.50963451382195
H           37.38868992425560       46.18690894913095       64.28489282725728
H           36.08808522617871       45.60926402124466       62.27613405841389
H           33.94579963817647       41.25828853871597       64.06886676339059
H           31.94459563069794       39.88447243141162       64.45541600629710
H           30.60710263604516       39.07754883784650       62.54160294880874
H           31.29650770311876       39.64348561605110       60.24314701283048
H           33.29449486341701       41.01260316813856       59.86132674305853
H           38.06218808363752       42.33525132004303       58.05225538929515
H           39.07917347977238       40.74506648558778       56.46991337445505
H           39.66250607453199       38.45662052860607       57.22854353880066
H           39.26636337787398       37.80465113476345       59.55449124345734
H           38.26310643498223       39.39683019724408       61.13478479077701
H           44.24388670698849       64.29654044816554       66.96433761408068
H           43.29062265414217       64.56889347854005       65.50596434254406
H           42.56380156242732       64.82621659373127       67.09495865227831
H           37.30335195983047       42.90884213689999       60.14058496693864
H           37.60152333271260       42.86988752135212       62.55876892907983
H           38.05306351191929       41.16924090370506       62.52433325556645
C           40.31888382120422       42.61045918988067       63.12039457607220
C           39.75004799603702       43.79350587317864       61.03678528386060
C           40.61750612364128       43.88199234708241       59.95474236998166
C           40.84000111611914       45.09061650228728       59.31657597466314
C           40.18272182299071       46.23255901317003       59.74149673554740
C           39.30438019032507       46.15472132601377       60.80997621588574
C           39.10205309537646       44.94928884773625       61.45748852920796
H           41.12415882006616       42.99156710790244       59.60718727746834
H           41.52252466661376       45.14475772114108       58.47957141293838
H           40.34284817298629       47.17459864439198       59.23526867775948
H           38.76941877647083       47.03516013648816       61.13682419870523
H           38.43039296540623       44.91120165719435       62.30115625650915
C           40.37710523952599       41.30007641742864       63.91227798632507
H           41.34209929781940       42.94047034359076       62.91722781055577
H           39.83697526472174       43.38277345083079       63.72255228749516
C           41.34711671046394       41.38055471780411       65.05959468614394
C           41.23219722049485       42.37811999183519       66.02214905496278
C           42.12164671314362       42.45046696279317       67.07770941759759
C           43.14147326403356       41.52107617660969       67.19199436589878
C           43.26267736605497       40.52065054724838       66.24423673332655
C           42.37131148632253       40.45141599195869       65.18674240526779
H           40.43304103465859       43.10158994799934       65.94955109952485
H           42.02329142692300       43.23472257088754       67.81413387171779
H           43.83485334037387       41.57888179792759       68.01754558750299
H           44.05193854079356       39.78688746389134       66.32573388972246
H           42.46443801086343       39.65498354673399       64.46063333393676
H           40.06388966047626       41.69672210721038       61.19513666738595
H           39.38547729932043       41.06903317872385       64.31000616053258
H           40.67279276987707       40.48442837147328       63.24779703599140
C           37.51746348082595       60.77031039957831       57.00882473879998
C           38.33292978014492       60.62468929958036       58.12456611607109
C           37.80496509873702       60.00614281252210       59.25159758509611
C           36.49854933793480       59.55377530931526       59.26293438332659
C           35.69365171969543       59.71312107492700       58.14748812572073
C           36.20906756503265       60.32029067338473       57.01551308458900
C           39.72689605031002       61.20739672706909       58.12446046349306
C           39.76189456524390       62.38905155787986       59.09836707159148
C           40.78628621608516       60.14792533341168       58.46360134100343
C           42.20581645058947       60.71250167265622       58.63317086530375
C           43.14673676181881       59.61389781180114       59.06442824214001
C           43.68628527236336       59.63122375717958       60.34428145489456
C           44.58156879370982       58.66046725300441       60.75547111283619
C           44.94067040932691       57.64074042848065       59.89137228190661
C           44.39257634351074       57.59807920251836       58.62086797448293
C           43.50772595933947       58.57904812382316       58.21006965509385
C           42.71092044159542       61.40336921844050       57.36077262800128
C           44.12831882472951       61.96040599351978       57.53522570211639
C           44.19038352395501       62.96998910848510       58.65176968719587
C           45.03728015580814       62.77583063154530       59.73578047718834
C           45.10267471736253       63.70139961056839       60.76347998503417
C           44.31112290814804       64.83591356994268       60.72620781248056
C           43.46375839678603       65.04232061171007       59.65028317369717
C           43.41086226094343       64.12159564478596       58.61939154488091
C           44.64912009917725       62.56740384151711       56.21709564720932
C           46.09774213322506       62.13999273976947       55.95283967580788
C           46.13390496112524       60.65710688804768       55.68072109100074
C           45.53307473950105       60.10916607629725       54.55353138665719
C           45.54100583356274       58.74182629196038       54.34645155185009
C           46.14225202682238       57.90092403800407       55.26779867545050
C           46.73051754717559       58.43373518536316       56.39956793463049
C           46.72785169180651       59.80124781389295       56.59836028135917
C           46.75212878577334       62.92429597940685       54.80821115794624
C           46.95169823688858       64.42825225209036       55.07798201270690
C           47.86611022351603       65.00593697580901       54.02487535845967
C           47.39555915777806       65.95619078700969       53.12923824024771
C           48.24049753773242       66.53615305799683       52.19903148237999
C           49.57462918670230       66.17222683656023       52.15002024923433
C           50.05312311724923       65.20977525733932       53.02374982454475
C           49.20409202093748       64.63186032018778       53.94970556062971
C           47.51990507713439       64.69399181779687       56.47988034982726
C           47.93350398580760       66.15330922872674       56.70411279277749
C           46.75348196236749       67.07595918810630       56.53125833285713
C           46.81319734427606       68.12207837277060       55.61925039681055
C           45.73619425347253       68.97209399799254       55.44006246569375
C           44.57734124496795       68.78731754701262       56.17366025445734
C           44.50929409210675       67.75253039506381       57.09067866140838
C           45.58857127022018       66.90675584629801       57.27090414800664
C           48.55200357820572       66.34444858888089       58.10017032561768
C           49.92884292543844       65.67259680308487       58.26874103587246
C           50.19295067931865       65.46966886903431       59.74142769264186
C           50.00450632916183       64.21214178674694       60.30236851522102
C           50.20646482879238       63.99074517965231       61.65249429830536
C           50.59297824921789       65.03610801841778       62.47273840418135
C           50.76896621466090       66.29804113851485       61.93120110707888
C           50.56842919148659       66.51296294520871       60.57901722395380
C           51.03769574665561       66.46516874488019       57.57070509964201
C           52.36934453161024       65.69326572868167       57.47547994189193
C           53.47543337191440       66.69391081208310       57.25585979314808
C           53.62163774878246       67.35761180425071       56.04286848935629
C           54.62565703128784       68.29152285251620       55.86571792561879