3864
 energy: -5104.235242059759 gnorm: 0.000771534635 xtb: 6.6.1 (8d0f1dd)
C           63.51161417665939       66.01430796377841       63.92826055078355
C           63.85918294458283       65.67065171304328       62.62697427058560
C           62.85581605728411       65.61869368313998       61.66873022317942
C           61.54458918278284       65.91838474130688       61.99062791969955
C           61.21313359336204       66.27077547166169       63.28639354525220
C           62.20125928462995       66.31147921612097       64.25537515477617
C           65.29036366335303       65.36904706664087       62.25454264668764
C           66.16655192919879       66.60736153786669       62.45610247808363
C           65.81733447719942       64.16603041116711       63.05340226805554
C           67.01276696815174       63.46633924160608       62.38297235447939
C           67.74005221437376       62.60770587475636       63.38618862783594
C           69.05676996905525       62.88483926919147       63.73018083595656
C           69.73201188360547       62.09943305725562       64.64858531821842
C           69.09752223981319       61.02053786500750       65.23962993812174
C           67.78292103025069       60.73768245537698       64.90885211780980
C           67.11118711256704       61.52618830238089       63.99281846322868
C           66.55028988788010       62.62652840478169       61.18687631240073
C           67.70799873756938       61.97010208447410       60.42521358404849
C           68.73715626452544       62.99212107435485       60.01149900818261
C           70.06777791023994       62.83967386344971       60.37966595651302
C           71.02421088901502       63.76195222533251       59.99158198443741
C           70.66291320093379       64.85599724249229       59.22454834136355
C           69.34020808958240       65.01739029150238       58.84757559506745
C           68.38714976782843       64.09297207526994       59.23529423340010
C           67.20815173026919       61.24542343575148       59.16416268025452
C           66.28331607940974       60.04609880098383       59.43387281452381
C           65.43381001302869       59.80998762458859       58.21097067335459
C           64.07002585779931       60.07288702103901       58.26207439939965
C           63.27918777499429       59.94632184949003       57.13448714525197
C           63.84172255699932       59.54513458903509       55.93587509580365
C           65.19659557609810       59.26704908326198       55.87678413118788
C           65.98895078663980       59.40414259477150       57.00304173302453
C           67.08310890021330       58.80779791883617       59.85436188387176
C           66.18226168883839       57.61374182214382       60.20784388566057
C           65.08578534957427       58.04171899315999       61.15563614830592
C           65.38559606992726       58.55462446534747       62.41389009129625
C           64.38052901941577       58.97121097430872       63.26826964334239
C           63.05511240786576       58.89843489672910       62.87543534075687
C           62.74436653558165       58.38761544352781       61.62834870673868
C           63.75058238750663       57.95394677993207       60.78256239076418
C           66.97851001140403       56.46490362325534       60.84897135854315
C           68.02345612422513       55.79823965591600       59.93696998764310
C           69.08747794008784       55.13330302615490       60.77520019223012
C           70.42941806642870       55.43514779320171       60.58283340243473
C           71.41279614899683       54.82626649867782       61.34245050668763
C           71.06708444764143       53.90931773423419       62.31916692932132
C           69.73257653334991       53.60551394391221       62.52633623009799
C           68.75424985695454       54.20793381272082       61.75754069766483
C           67.38907983070712       54.77408256481552       58.98620699403907
C           68.39570835502285       54.26467621459746       57.94926151581032
C           68.87816841078478       55.36617564204547       57.03864942098996
C           70.24173799636772       55.56686127493648       56.85936652751723
C           70.71246527653953       56.55502154050080       56.01235814841433
C           69.82197859748803       57.35735835324538       55.32044785046735
C           68.46179135625223       57.15962681917026       55.48162797723750
C           67.99444211489386       56.17272903936157       56.33124567536299
C           67.82173059291020       53.12529376096175       57.08986652105033
C           67.73913254387112       51.77646373366784       57.82307848142008
C           69.04903742820287       51.42953281995599       58.48184523603383
C           70.19921271038298       51.23300346237312       57.72574621567571
C           71.39739676665096       50.90655138436444       58.33228083797896
C           71.46933764602642       50.76870939808651       59.70827837797178
C           70.33317888806423       50.96560556764933       60.47148983560882
C           69.13648910870550       51.29513419629090       59.86121335001748
C           67.31795114877549       50.68937237294848       56.82144090966361
C           67.36646950785409       49.25863010351540       57.37835005573840
C           67.20810000979812       48.27458276782674       56.24591984850738
C           68.29396640227291       47.51228668177306       55.83516313043801
C           68.17104510679700       46.59704605643628       54.80423421528813
C           66.95773294062160       46.43382242401450       54.15846904375020
C           65.87205122550178       47.19865699456846       54.55019086486019
C           65.99688335346349       48.10750838462899       55.58463276222151
C           66.31133607832534       49.04316400059901       58.46749886610443
C           66.27036264479331       47.59227214101485       58.96203871160822
C           67.64248005262705       47.10695427817954       59.35510002817950
C           68.16138898585739       45.95075407314189       58.78638964056772
C           69.42104299770946       45.49219378970000       59.12919501404857
C           70.18593065367502       46.18750104399178       60.04964541203594
C           69.67749140285321       47.33798425729338       60.62803413066342
C           68.41614813948044       47.78949289704227       60.28656029553841
C           65.30242832960215       47.42873347541341       60.14496041839964
C           63.83552957356979       47.68030239562279       59.76442949349257
C           63.39999662354502       46.81695120606434       58.60823807059059
C           63.63711617830936       45.44686925328245       58.60323270425803
C           63.24661050999650       44.66438965298325       57.53170499135035
C           62.58320697557956       45.23178939028416       56.45738859300235
C           62.32740362094692       46.59103813599279       56.45667562370935
C           62.74521833739057       47.37593196805037       57.51708083311149
C           62.92619075674513       47.48472191429182       60.99080924545076
C           61.57319551534273       48.21192195400457       60.85454149212409
C           61.17205783150046       48.79362840381873       62.18907685732250
C           60.73648531423572       47.99170198680445       63.23810516964785
C           60.40384773001874       48.54760520678035       64.46133257178055
C           60.50576391212166       49.91420482621132       64.66121616473809
C           60.94968982105883       50.72253697069545       63.62878839432216
C           61.27833450403989       50.16331344729318       62.40636229961672
C           60.47598123960513       47.31758635084877       60.26636630153559
C           59.21264725810647       48.13433943131321       59.96364161918925
C           59.48147294002629       49.12980289311284       58.86161207740712
C           59.62330748497958       48.72043288383097       57.54114833750275
C           59.80832373621519       49.64932584473664       56.53311388191098
C           59.85940543313043       51.00137513152272       56.82572499165806
C           59.76279915979040       51.41888807813274       58.14171906074438
C           59.57586536212042       50.48629423736995       59.14649197380033
C           58.02791628763304       47.24107360522839       59.56912598778651
C           57.28701651395135       46.55371229626306       60.72945312105277
C           56.25430902402282       45.62333860343657       60.14364139451277
C           56.36918534100432       44.25148497483494       60.32285256873075
C           55.44678742090741       43.38113664586375       59.76767189308357
C           54.38791084488579       43.87209836492823       59.02445101626298
C           54.25655479385443       45.23945340298468       58.84633121286321
C           55.18254114278488       46.10672893789291       59.39850888103900
C           56.63966495754295       47.58661030724735       61.66146046386152
C           55.64556501839920       46.99594947740719       62.67272735857726
C           56.26359258885815       45.86545347848956       63.45531074252479
C           57.45873877343310       46.03372979754390       64.14504767150149
C           58.01070961328468       44.99344082544166       64.86935073728614
C           57.37383969543343       43.76501875455225       64.92078994961615
C           56.18010114957485       43.58758398294968       64.24404900259415
C           55.63137866524096       44.63084783966035       63.52002296956688
C           55.13940461059600       48.08753183134357       63.63998257040033
C           53.76309987741803       48.69986460214158       63.30862652032927
C           52.66317101346004       47.71300811508842       63.63793953774167
C           52.22535000062877       47.62200237121396       64.95565067883969
C           51.18734678948444       46.78418311756317       65.31833872390730
C           50.56958646461933       45.99831635095640       64.36077263464135
C           51.01684600834249       46.05078495996641       63.05370409872513
C           52.05164191542486       46.89791562985430       62.69383737680398
C           53.62254139393741       49.23085494809754       61.87907908335193
C           54.52914365137045       50.41678768323726       61.50744642796716
C           54.73008633929730       50.43344164250883       60.00725195463057
C           56.00285984326013       50.53617936404385       59.45978878472370
C           56.19315400542896       50.53355696083375       58.08809267025948
C           55.10628808679485       50.43096650923955       57.23880016697519
C           53.83081904174972       50.34184802232077       57.76933995566677
C           53.64726331571794       50.34381929929126       59.13935942620082
C           53.99038703229864       51.78909339442711       61.95750800721439
C           54.53894198076281       52.30693866959363       63.29894597975419
C           53.73475347034184       53.51646232684992       63.71087813765800
C           52.89660467419822       53.46140916321316       64.81735515002974
C           52.13560589955127       54.55710623932050       65.18997079455399
C           52.19437165710375       55.72676481693020       64.45216483532650
C           53.02479295773566       55.79501876868832       63.34584947627975
C           53.78638668735847       54.69969061189212       62.98045862886247
C           56.03228668334027       52.63770232162666       63.19968503217488
C           56.65022178508590       53.05350098657988       64.54253284162741
H           65.31186719103653       65.11563717392659       61.19128668416588
H           66.11587810595965       64.50014781397979       64.04965600736152
H           65.00722441316096       63.44419582077028       63.17804693390187
H           67.70887751664816       64.23092385880354       62.02377289711030
H           65.87638158985597       61.85048982433248       61.55188313076802
H           65.99334850032695       63.26061792813991       60.49818908926778
H           68.19333624740635       61.24705981957858       61.08962585204158
H           66.67354155196031       61.97037400778368       58.54555069991560
H           68.07286426016279       60.90333409388990       58.58981143589017
H           65.60786489620186       60.30158895800450       60.25417733383935
H           67.69525025324386       59.06327735156249       60.72178944859935
H           65.71646752954929       57.25488634295559       59.28415997297718
H           67.49396292679376       56.85214558118175       61.73120751239055
H           66.26864521285299       55.70868211964218       61.19325017857699
H           68.50949000971289       56.56826333138150       59.33124363627928
H           67.02640019742800       53.92670702585227       59.56848989873626
H           66.53479495953600       55.22478949939646       58.48189240555728
H           69.26548168127036       53.87179211778176       58.48830574981051
H           66.82378583379020       53.39677301162535       56.73951314439785
H           68.46311171433587       53.00451864588109       56.21248319754622
H           66.97108160591682       51.85221449035905       58.59811842496187
H           68.35668908314258       49.10195905785170       57.82068181410984
H           66.53135093938634       49.70482689749100       59.30565550107727
H           65.33207454494413       49.31257954048687       58.07197296046107
H           65.91414175214621       46.96067283788912       58.14095599090361
H           65.41147306058990       46.42008372722131       60.54959873423289
H           65.58428793687749       48.12496167202654       60.93830594218215
H           63.74509019811680       48.72792351415151       59.46041284781609
H           62.76162946556011       46.42050501631454       61.16502093417071
H           63.44791434557606       47.88387344720155       61.86516401226096
H           61.71295288369521       49.05254092219373       60.16538670829776
H           60.84027596427460       46.86080983956833       59.34462560031098
H           60.23293216309438       46.51123611374412       60.96009769565462
H           58.95348692710468       48.69633692060810       60.86626018035179
H           57.30824883634261       47.85214369047753       59.01872774429277
H           58.38839962860546       46.46852598091084       58.88803419672989
H           57.99733581776604       45.94998190196034       61.30628228567610
H           57.42889488988614       48.10416332473304       62.21050093391739
H           56.12286149372061       48.32165036786614       61.04794521302621
H           54.79112329856230       46.58222676143724       62.12972507551569
H           55.06413033330540       47.66232669761325       64.64511318198404
H           55.87668973054654       48.88972481413689       63.69826029698902
H           53.63578764914465       49.54419643375802       63.99789236005871
H           53.83213514556518       48.42043259057204       61.17923550850708
H           52.57701313367619       49.51746975888782       61.74212662271296
H           55.50508809238780       50.26277585197221       61.97127703143355
H           54.24658860812206       52.52878480273194       61.19422381190708
H           52.90046746264238       51.74878814401335       62.02189468804769
H           64.27114317848766       66.05244592775573       64.69557403693811
H           61.94981827392709       66.58078005786285       65.27158322208503
H           60.19305975070923       66.51323228117181       63.54577607148664
H           60.78554407863219       65.87635500846312       61.22268874704497
H           63.09961578833317       65.33993185363948       60.65402276653345
H           69.56172067190005       63.72279329012567       63.26916649939039
H           70.75688448127272       62.32967948199121       64.90310639041138
H           69.62357574047658       60.40465719167236       65.95474032332908
H           67.28116796892233       59.89784291857410       65.36899986855597
H           66.08586200971843       61.29499607142964       63.74651679654493
H           70.35799613435969       61.98976293452251       60.98250624437981
H           72.05439940787662       63.62695102229373       60.28960370865260
H           71.40770066361159       65.57738482126686       58.92139033478786
H           69.04875916751246       65.86616108860039       58.24532221120065
H           67.36269314718203       64.23617806272895       58.92413141899873
H           63.62400849735676       60.38016599570787       59.19702371209294
H           62.22318142108624       60.16603126579240       57.19077189167533
H           63.23114985493459       59.45566957612044       55.05063187789810
H           65.63653750672999       58.95368164729924       54.94112155824019
H           67.04879556721869       59.20281684025133       56.93928956298808
H           67.75916576446571       58.52567332698215       59.04560448876580
H           66.41476374020833       58.64123724465738       62.73146113456737
H           64.63018411865963       59.35740977458927       64.24683140535062
H           62.27316067739321       59.23964428899427       63.53857952242920
H           61.71156177363994       58.33434497074961       61.31484979395621
H           63.49616574419139       57.55475155184197       59.81067221899706
H           70.70799285895079       56.15659897363665       59.82667438487225
H           72.45235249409627       55.07084871106767       61.17476631940158
H           71.83329819670602       53.43622080381218       62.91635473564225
H           69.45396896958280       52.89549029725031       63.29245731580429
H           67.71787531064683       53.95945079486600       61.93240730198237
H           70.94223310278124       54.93852155531319       57.39376989339519
H           71.77754139112007       56.69893627556582       55.89232300125428
H           70.18461982743798       58.13586456964212       54.66563099200606
H           67.76571882263492       57.78237213846659       54.93961110805783
H           66.92944541966807       56.03282925866072       56.44507437711899
H           70.16053669179804       51.33367375471702       56.65161003930028
H           72.28145049801809       50.75715457270903       57.72797084249118
H           72.40619343828864       50.51079822594738       60.18122996295350
H           70.38068962247458       50.86421934183766       61.54595878961663
H           68.25853485307789       51.45634806328892       60.47122051818734
H           66.30335965858501       50.90904859038609       56.48128209841815
H           67.98341221878808       50.73156030186249       55.95501649382736
H           69.24421846415538       47.63055761305591       56.33933675601820
H           69.02589983544149       46.00333558608314       54.50838583756892
H           66.85972009621287       45.71385251335840       53.35851492455453
H           64.92442331973228       47.08753895641791       54.04339880959621
H           65.13413669347665       48.68154004950428       55.88596141530763
H           67.57423266551321       45.40860468805543       58.05786958036194
H           69.80935258529715       44.59235580857709       58.67317228251131
H           71.17260816255259       45.83543775399131       60.31453467542595
H           70.26948356127710       47.88861991439936       61.34485055640521
H           68.03974534795158       48.69075792001337       60.74574808566072
H           64.13827702499330       44.98191606818160       59.44029573788840
H           63.46367075898624       43.60493788505826       57.53679729801556
H           62.26844262202130       44.61667244734936       55.62821104750954
H           61.79605291296784       47.03661423417426       55.62807672415146
H           62.54157454493046       48.43809505739149       57.50706463514248
H           60.65584609423151       46.92258280893040       63.10335263727740
H           60.06881635253540       47.91091430995871       65.26869940723500
H           60.24377057420109       50.34565845342612       65.61651291147625
H           61.04666881052720       51.78866456204268       63.78102376207224
H           61.62639290578603       50.80303748184197       61.60682712825694
H           59.57511182346768       47.67116435439643       57.29238119717178
H           59.90340894562599       49.31513929405295       55.51079436672223
H           59.97538529473091       51.72449928811142       56.03227873602333
H           59.82175506449749       52.46912716485239       58.39206341771141
H           59.49413266347050       50.81990602086530       60.17123110989988
H           57.19140314109474       43.85943834394187       60.90599697778838
H           55.55303897178695       42.31657521421218       59.92008087911167
H           53.67083784166640       43.19480543646296       58.58448701610221
H           53.42823968950495       45.62955675110769       58.27160049060242
H           55.07010495799042       47.17093855743148       59.24162151586208
H           57.96542101427403       46.98718799880291       64.11529701584047
H           58.94268391205298       45.13944136062715       65.39870921145533
H           57.80630232933755       42.95274993706251       65.48853987959707
H           55.67454324919952       42.63265844802852       64.27581895411484
H           54.69798281647579       44.48331705319376       62.99473037491391
H           52.70597781192446       48.22884760439262       65.71046888199220
H           50.84960858436838       46.75273255472884       66.34502887074136
H           49.74693752095760       45.35275943188842       64.63129112726007
H           50.54581419935445       45.43313801194500       62.30384933283410
H           52.36768336514585       46.92024444503080       61.66167766331068
H           56.86407589337618       50.61254909784030       60.10862574987442
H           57.19280032706364       50.60420664970146       57.68702340688734
H           55.25531410912135       50.41948674330642       56.16862400626693
H           52.97323656523326       50.25684279190589       57.11850099364183
H           52.64556171567619       50.26587506472212       59.53299533536913
H           54.42657173049451       54.77045677897956       62.11264860825288
H           53.07608568084258       56.70968462201420       62.77052797740320
H           51.59876737266794       56.58390259731591       64.73267846598786
H           51.49761898564547       54.49015592596442       66.06048067510500
H           52.83324408979831       52.55159244812834       65.39934531422681
H           65.77439941695415       67.44383276727865       61.88064797933739
H           66.19336788937706       66.89838293402651       63.50356815345208
H           67.18505270728301       66.41454036856004       62.12706445190825
H           54.40664862789414       51.53308758719922       64.06212185781995
H           56.57111172380370       51.76450695138648       62.82960478219287
H           56.18433804229898       53.44352222285453       62.47963706061014
C           58.12945607493004       53.40055200097068       64.33406092869268
C           56.47553573044329       51.96097369637136       65.56622107554637
C           55.68470784404330       52.16768963197275       66.68973417890916
C           55.49736496965946       51.16307038388602       67.62271532033678
C           56.09963119946578       49.92927022751549       67.44672108006134
C           56.89451330754346       49.71173656817673       66.33431618149504
C           57.07874882999307       50.71835845361871       65.40398011281403
H           55.20511329990346       53.12639918936657       66.83280242123689
H           54.87864199387146       51.34485959974506       68.48987223888021
H           55.95183919225531       49.14178269076316       68.17213123000482
H           57.36807925946977       48.75107733701546       66.19025920312517
H           57.70856242392741       50.53028185955942       64.54596766582695
C           58.79414205107116       53.95997912580150       65.59412609924135
H           58.67303196953232       52.50898695534803       64.01552621650377
H           58.20526826381288       54.13949234618290       63.53443004072653
C           60.25616484822464       54.21667545861985       65.36017791590929
C           60.66608773571240       55.17754917393221       64.44093612105064
C           62.00976159133221       55.40242782633128       64.20226934405473
C           62.96883931974507       54.66708544997819       64.87957550095153
C           62.57407745993631       53.70960640248458       65.79750988907672
C           61.22754312175764       53.48775935343603       66.03376556797301
H           59.92378038934186       55.75615697069410       63.91059236246127
H           62.31366184468683       56.15446677770048       63.48781621995954
H           64.01862375971577       54.84278844400673       64.69423942348647
H           63.31483656629037       53.13106616744965       66.33133854544644
H           60.92780215383615       52.73876163887615       66.75422639549468
H           56.13047810743344       53.95080715560080       64.89902409228074
H           58.29727079326074       54.89334137974025       65.86859425190177
H           58.66797646295911       53.25307474601114       66.41779979264678
C           50.26231662875013       41.70581346154572       67.94964795328745
C           51.43786935601881       41.75223078555016       67.20991953080855
C           52.42691896680216       40.81527556665661       67.48581838194441
C           52.24644032312518       39.86091022231062       68.46984162388863
C           51.06742080100611       39.82149285353806       69.19454691916877
C           50.07388670166318       40.74816116722502       68.93062031883184
C           51.63791189648475       42.82209048046391       66.16702336316943
C           52.70964520140500       43.81022293124676       66.63801578503121
C           52.02053019089534       42.25206985851970       64.79688046368670
C           51.01806698783616       41.22542217622296       64.24735342105726
C           49.65098105085229       41.84312129242402       64.10948699320019
C           48.63417116957869       41.49903368722758       64.99166825860134
C           47.38975580223510       42.09660246388522       64.90890680446512
C           47.13824581379835       43.04163177517345       63.92793179173263
C           48.13377098483603       43.37041186386497       63.02400718050634
C           49.37954997490765       42.77527557658278       63.11556996000665
C           51.52412409604152       40.67603318820244       62.90392491602699
C           52.44766606883644       39.45267820016424       63.06334132187585
C           53.56417053412873       39.50662703093597       62.05175684051700
C           53.28991703379126       39.56041821989844       60.68973436944151
C           54.30890005729801       39.68302456847378       59.76330905819611
C           55.62759378198196       39.72662037389414       60.18402623707593
C           55.91680951086334       39.64343377802033       61.53494697341390
C           54.89121224489158       39.54561731832906       62.45953783357598
C           51.63203567676021       38.15998988207542       62.92827164944713
C           52.46596918946105       36.91184130953449       63.23145990778527
C           52.88502621801023       36.86111061266057       64.68011479209954
C           51.94714247196119       36.86023080903594       65.70639734318257
C           52.34157787137371       36.76377120298984       67.02796258615473
C           53.68531177566770       36.66890223172728       67.34894115821295
C           54.63026135673432       36.67839138420842       66.33806368247785
C           54.23015366733012       36.77154432848407       65.01647125795076
C           51.71061531038436       35.61550932190715       62.89016561053798
C           51.47746432827928       35.36923156475960       61.39002910779893
C           50.63359073394451       34.12777003573096       61.22816976593624
C           49.32070118622796       34.22865779365301       60.78590697896234
C           48.53905026858572       33.10036569075064       60.60792584735233
C           49.05936546317307       31.84644337733173       60.87581028649616
C           50.36153869169679       31.73300436063661       61.33341028568164
C           51.13918851701614       32.86322297388319       61.51000269428022
C           52.79727063721771       35.25352613312710       60.61590815963082
C           52.59268868944564       34.82705926065451       59.15383022956672
C           51.74437353237865       35.83301194603180       58.41868321300046
C           52.16512513742741       37.14897357896864       58.26826086224204
C           51.38127714931407       38.07056822637159       57.59661818806175
C           50.17143139757702       37.68576057265165       57.04318787173146
C           49.73999299204249       36.37731705208533       57.18568854274793
C           50.51808278490313       35.46543021397722       57.87762721033501
C           53.95531951525258       34.60644533132012       58.46390385360622
C           53.99902471769287       33.30086181773510       57.65239004331468
C           55.43342307755465       32.95388690881233       57.33866961411816
C           56.01414058971550       31.80285705317098       57.85356656968037
C           57.33220291216809       31.48515484504103       57.57681063316541
C           58.09883174010216       32.32790038698813       56.79215374824516
C           57.53785084583779       33.48855018886625       56.28840096721184
C           56.21661210823304       33.79461019138174       56.55521720549601
C           53.14590795557172       33.40555460081221       56.37675409262418
C           52.40727284689461       32.10722219369093       56.02483849703996
C           53.33839635848413       30.92428334923926       56.00046292369284
C           54.45391986088931       30.89879580777055       55.17296241005261
C           55.31070506133849       29.81442668211988       55.17249367010647