3258
 energy: -3427.579992523490 gnorm: 0.000714712532 xtb: 6.6.1 (8d0f1dd)
C          107.45495763620016       97.58506308605266      118.10094315864079
C          108.37591715122124       98.51019398919981      118.88482150735064
C          107.98507463070864       99.98401034934528      118.76631914800747
C          108.39179061025442      100.59213021651546      117.42857364459434
C          108.16688585004694      102.10066175196523      117.36627412562815
C          108.64786291898446      102.65387443604141      116.02980223067809
C          108.51783522392948      104.16671072154509      115.89009499800579
C          109.04518310812553      104.61614769250082      114.53133315894947
C          109.01196719976005      106.12544156093936      114.31819759373725
C          109.57620223461915      106.48197758540586      112.94608028752796
C          109.64724350242314      107.98249989672311      112.69043145796601
C          110.23581588359713      108.28122386650030      111.31450634774365
C          110.37016909456806      109.77589618306335      111.05184441376679
C          110.90806944928624      110.07703216360146      109.65716299510447
C          110.93976027701009      111.57599784956719      109.38178733531734
C          111.57142279669863      111.91401280509051      108.03618822403493
C          111.70885900982086      113.42044474065601      107.85175140366138
C          112.41804477939863      113.78369477328596      106.55416365737420
C          112.59241320219795      115.28777976448815      106.36185436145652
C          113.46701464919096      115.96511945969577      107.41299146547640
C          113.70871742655729      117.42867652140166      107.05383446633910
C          114.34757728760417      118.20343305541265      108.20200514888757
C          114.66637023709218      119.65720323157463      107.85167828973785
C          113.48584443033614      120.46486726278532      107.30949176713499
C          112.29617023539183      120.52779558861759      108.26292006054480
C          111.16384984095811      121.41226409335566      107.73903731040832
C          110.29718298946756      120.74332626579533      106.67461177070464
C          109.17436373492150      121.67566248284574      106.22433892150069
C          108.14738640095915      121.01530570073405      105.30581787737266
C          108.72138092105419      120.58289172450408      103.95890933542591
C          107.62973102386150      120.15648903082410      102.98090351718135
C          108.20706958570361      119.69950902093588      101.64261599811201
C          107.14194170277322      119.49356848341631      100.56556598158291
C          106.17811623344605      118.33817548397199      100.83571343887117
C          106.79877671159322      116.96185806595807      100.60844103264621
C          105.79622166359712      115.84733828777013      100.89945082936663
C          106.27324048062802      114.45875608460673      100.47545298098679
C          106.39289945996505      114.31249684586000       98.95915890278864
C          106.55009804119452      112.85575376388846       98.53260391048836
C          106.84088962126900      112.67890824234097       97.04000106853803
C          105.82671210871825      113.34461219759935       96.10915165603049
C          104.41745573085953      112.77694807100471       96.25033597355490
C          103.35297384902307      113.60792503513065       95.53493154495200
C          103.19776471951606      115.01161869149274       96.12209758403252
C          101.86029602152603      115.64673124400710       95.74705221753943
C          101.79135502715032      117.14809034194843       96.03320404999565
C          102.10351620913377      117.51654542899404       97.48238045841410
C          101.77547081231994      118.97863019522680       97.77974211206171
C          102.19477512921333      119.37877245533053       99.19299164020686
C          101.69127496305910      120.75964274438758       99.61859792386257
C          100.18255031312347      120.82203459855396       99.86881618977006
C           99.76443562823330      120.08761406098287      101.14198069064710
C           98.25559822740613      119.87632321206064      101.27147785125523
C           97.62287021094883      119.06236435918322      100.13924684730401
C           98.29185546283742      117.71253884197809       99.88810933450696
C           97.59610199027892      116.94864082149216       98.76479065233828
C           98.28251533133684      115.62636601345331       98.43072723425146
C           97.61769071857763      114.94191512725493       97.23926261592506
C           98.27611547620249      113.61770324038353       96.86043374556596
C           97.61437646715291      113.00853274907988       95.62645102214697
C           98.29123873193387      111.73467460436160       95.12096660800208
C           99.66495977918665      111.98129942463338       94.50253903818927
C          100.20220212233893      110.74341674255689       93.78755937119985
C          101.60911992037738      110.96854825323007       93.23703236996882
C          102.15339486667702      109.74192588690988       92.50836386911824
C          103.46095932209296      110.00975901353378       91.76164351228495
C          104.63579474515100      110.38929568068406       92.66291734771964
C          105.91061978784768      110.57755806491963       91.84119689516997
C          107.08697440661054      111.15226749695148       92.63122755340392
C          107.67366897815103      110.18932374147673       93.66071538983851
C          108.95060004750013      110.74852766686179       94.28549595205190
C          109.60105911174128      109.77553949614369       95.26508082954827
C          110.89192504534400      110.33169272441920       95.86299089553381
C          111.60269808684382      109.30055800015354       96.73670375566230
C          112.92904834479793      109.81786226273640       97.28981099497243
C          113.74903273275278      108.73650095432882       97.99686773320799
C          113.12747390939130      108.27829947960883       99.31350580437663
C          113.86087565691048      107.08937473254794       99.93091037508871
C          113.18488613330747      106.63885408820551      101.22328026991423
C          113.73849504439247      105.32914186895356      101.77801013261927
C          113.00970837511997      104.92139375330321      103.05680272122481
C          113.35895440341260      103.51220654041080      103.52593505079149
C          112.59813068198505      103.14055335258706      104.79733496859271
C          112.73150072790888      101.66208731649529      105.15080413605642
C          111.93179812186013      101.29910078144424      106.39947084829201
C          111.94480423058062       99.79912455286008      106.68208104195899
C          111.11655297453875       99.43787805739123      107.91302358162355
C          111.04747121761477       97.92964056146434      108.13444373379414
C          110.26494953563677       97.52725774410766      109.38544372686276
C          108.77592796746951       97.87496908805747      109.36861227526349
C          108.00371967349690       97.22704655095779      108.22314602154428
C          106.49495849991960       97.42165917444777      108.36141188012031
C          105.74714026014273       96.87820018715445      107.14547674322930
C          104.22539049181280       96.99746996681162      107.25009152951519
C          103.68393943628772       98.42630521802700      107.17151037253335
C          103.78683298858627       99.03852526704586      105.77682155768915
C          103.22916957795186      100.46014485833825      105.73370360063882
C          103.39294556925319      101.08518372828557      104.35025765154985
C          102.71924790922925      102.44813479696573      104.18990664937215
C          103.33697115002572      103.58946586426282      104.99701921683598
C          104.72653389443828      104.01357326493429      104.52119452701851
C          105.17543998017518      105.29373652630782      105.22842954524680
C          106.68515522688368      105.53419064618419      105.19481149958119
C          107.21664411955402      106.11990303846362      103.88866383109875
C          108.73284946995447      106.30251882690462      103.96220796144809
C          109.33908553196804      107.01637940500652      102.75381192099134
C          109.15122007662433      108.53247144775202      102.76265189117218
C          109.80529416189312      109.18553454734288      101.54534032232969
C          109.71305663221385      110.70893810879693      101.57079085640092
C          110.14130713138941      111.34121113161568      100.24579073009988
C          110.14642503497443      112.86443821653374      100.34170225233206
C          110.34254102103499      113.58211281635668       99.00783586638688
C          110.33965214035183      115.09793620968500       99.20621469600948
C          110.24691896114145      115.89489565724332       97.90863956043324
C          110.33308472261187      117.39760727008249       98.17312946583148
C          110.12521621777455      118.22645364861891       96.90961001759715
C          110.19278869842033      119.72884774309540       97.17132885614508
C          109.91988304927536      120.53654326893944       95.90479694656432
C          109.95163453656691      122.04180349075969       96.15174694430443
C          109.61531758645640      122.83050453725797       94.89239049702512
H          109.23133383767187      122.29402432384947       96.93325165114695
H          110.94265940949580      122.33388000938800       96.50766610918492
H          110.66142965804758      120.27946105708588       95.14610368315482
H          108.93847996485017      120.26597594752731       95.51030806980036
H          109.45875121185971      119.99700586578075       97.93617589438446
H          111.18062265633223      119.98411576061991       97.56300033189727
H          110.88553485190566      117.95989083935279       96.17041095226485
H          109.14994048767545      117.98171023388601       96.48029219035615
H          109.57898580158142      117.67742675466980       98.91327644923312
H          111.31063953773514      117.63463121622222       98.60008474413121
H          111.05408389693964      115.59786211388536       97.23737571845666
H          109.30296848070816      115.66851282134466       97.40476422083758
H          109.49688071249817      115.37114581642241       99.84600338582754
H          111.25305210706793      115.39088903968648       99.72921432906423
H          111.28423619230971      113.26908284081222       98.54912232592177
H          109.53736250271704      113.30193487211200       98.32559977979983
H          109.18902401901404      113.18295984190134      100.76259982274466
H          110.92977697189488      113.17662799183860      101.03683395392260
H          111.13570696884348      110.98058683161688       99.97097747743059
H          109.45399843220088      111.02610150646781       99.45518261861905
H          108.68271768050302      111.00485262097023      101.78824741550501
H          110.33893869342644      111.09967869858143      102.37678442686898
H          110.85600719028324      108.88800855079133      101.49625620030783
H          109.32348460551583      108.81905825860116      100.63695239728490
H          108.08724601291161      108.77839070460644      102.77262639097044
H          109.59308486352784      108.94300662212535      103.67367230331213
H          110.41268759149663      106.80953660346005      102.73130059783196
H          108.90584304317623      106.59983291269781      101.84271623236417
H          108.98409221930348      106.86117021472003      104.86660654221177
H          109.19135999364011      105.31288627737078      104.05171817720112
H          106.96992560961078      105.45947619167582      103.05319308323023
H          106.73528811929856      107.08283058428076      103.70321683177102
H          106.94134581313355      106.22207215812490      106.00341479210971
H          107.19797078700597      104.59059891613397      105.39530542945343
H          104.65364869061308      106.15257074516676      104.79897381795493
H          104.87113572112126      105.22503068643560      106.27616673461849
H          105.44383860639870      103.21861940686314      104.73415121675542
H          104.71310520923956      104.16479860016453      103.44014439299561
H          102.66819358799859      104.45230357564263      104.92726146515474
H          103.38468447297849      103.31000857417166      106.05178645853931
H          102.74939246607119      102.72373371416565      103.13175852653850
H          101.66641187512158      102.34877682802204      104.47002619941000
H          104.45399849659930      101.16935943391692      104.10927298471248
H          102.95345334444295      100.40296718071711      103.61737084291752
H          102.16835112112089      100.43589492058790      105.99804488659512
H          103.74404631134496      101.06519139266720      106.48276492460980
H          104.82923290347661       99.05741878386176      105.45619314485025
H          103.23730628485171       98.41231195188405      105.06869143537070
H          102.63161574751491       98.41218285004727      107.46799482987933
H          104.21163040537083       99.05910648285513      107.88678065193722
H          103.77196059842198       96.40899746223906      106.44761906197606
H          103.91001749900784       96.55157645828626      108.19681642784705
H          106.09704922656783       97.39204669938172      106.24740334936354
H          105.99881974537534       95.81904982565591      107.03093982502853
H          106.14073293317601       96.91098168629715      109.26058796886635
H          106.28264509627125       98.48545425536919      108.48522578778200
H          108.32674931834551       97.65547357507113      107.27211627270570
H          108.22700020994716       96.15862142001902      108.19891213899315
H          108.34394559383362       97.53981605058077      110.31603710385909
H          108.65022602235446       98.95741533294645      109.32028928013011
H          110.36693693964101       96.44627577670823      109.52255127465266
H          110.71968288790448       98.01090966118711      110.25274196095742
H          110.60437339260683       97.45469704423587      107.25575244736761
H          112.06655669664890       97.54194038251630      108.22774790597232
H          111.55130058847125       99.91488374155793      108.79359645637322
H          110.10741926454261       99.83410472879088      107.78774172517301
H          111.54805440494074       99.26661939745827      105.81170729279057
H          112.97533788245417       99.46311892319967      106.82335751937575
H          112.33684226962006      101.83545124542634      107.26001737056390
H          110.89779803691894      101.62695426467388      106.26795420452257
H          112.37488277994922      101.06088103992732      104.30919545308055
H          113.78484699340271      101.41541893593511      105.30409885239526
H          112.95641478982041      103.75104672868832      105.62869864902038
H          111.53876385349234      103.37609800578674      104.66042788963946
H          113.10844548186908      102.80076320862288      102.73342075401595
H          114.43379461674617      103.43579975156078      103.70309947090040
H          113.23834290574119      105.63744447678401      103.84954763966623
H          111.93151675951445      104.96878343278938      102.87819385086935
H          113.62033650738911      104.54308186898578      101.02677156964710
H          114.80678540902116      105.43342940206135      101.97871941599274
H          113.28821784665433      107.42317490348108      101.97727424315661
H          112.11718076916114      106.50761579815158      101.02697132886398
H          113.86363144154632      106.26118956602019       99.21679212995168
H          114.90097864591144      107.35683962289704      100.13008394424921
H          113.13029291893781      109.11207682809369      100.02037294742385
H          112.08866814271383      107.99045310334596       99.14217655961284
H          113.85277423823777      107.87760729313440       97.32820228749840
H          114.75307707737937      109.12188977234192       98.19369996418038
H          113.52016944627738      110.22061127420851       96.46253468753902
H          112.73319461117011      110.63923962278160       97.98347945015037
H          110.94323679459742      109.02404105214518       97.56122329057214
H          111.79001735056208      108.40050611483305       96.14500027576725
H          111.55858759910227      110.63872456854648       95.05234218914957
H          110.66567560957371      111.22123827669093       96.45608454281285
H          108.89850318941211      109.54302129088589       96.06861809145897
H          109.82624354335306      108.84054953383111       94.74472512947034
H          109.66404813250406      110.98181743239226       93.49017352672483
H          108.72004748015294      111.68259523425007       94.80112555820968
H          106.94092649552991      109.99735258037812       94.44655646446347
H          107.89714260060195      109.23740953627897       93.17215501157348
H          107.87511012105398      111.42374853157888       91.92300007863223
H          106.77159834719410      112.07022602593474       93.13281616680884
H          106.20491046813110      109.62010164832888       91.40307669242625
H          105.68880056342506      111.25812607397407       91.01386345686328
H          104.41150916312985      111.32017003784307       93.18609480822701
H          104.78561335676825      109.60858270698427       93.41022284196916
H          103.72896703457566      109.11147616222550       91.19789708076731
H          103.29649644610045      110.81116929088832       91.03577710238673
H          102.30496558912675      108.93238461483091       93.22530313656161
H          101.40800075483213      109.40075153348546       91.78435280365210
H          101.59082744425909      111.81715502165079       92.54790365921814
H          102.27540896619676      111.22478585677453       94.06144779175145
H          100.21069603244969      109.90178430160604       94.48356208470098
H           99.52906170721518      110.48006023910933       92.96712356828267
H           99.59963853859971      112.80743081242629       93.78957435230551
H          100.36871460538673      112.27497906641108       95.28295307392483
H           98.38751228484784      111.01970863186467       95.94071891465222
H           97.64704942916809      111.28019604396550       94.36434589841863
H           96.57147657034491      112.78359422802572       95.86475521799879
H           97.61168876557457      113.74908086389358       94.82179221762048
H           99.33499422915791      113.78992480901037       96.66171136245956
H           98.20595211845028      112.91750747031043       97.69667711375355
H           96.56258694148086      114.76865141992856       97.46434085707810
H           97.65994864926977      115.61522139745368       96.37833191125505
H           99.33356897610221      115.81303064586527       98.19787506045530
H           98.25023323813004      114.96648201960474       99.30126356586560
H           96.55756261848691      116.75552014630564       99.04310665309815
H           97.58144394723406      117.57491948234581       97.86782414981653
H           99.33469764055013      117.86348567931748       99.60826907578385
H           98.27209241069842      117.12029963894018      100.80580332932317
H           96.57121682145548      118.89432355471737      100.38787188752373
H           97.63809046828199      119.64455428934018       99.21464703437725
H           98.06564237330092      119.36597944727494      102.21868102744897
H           97.75659296555541      120.84844511359005      101.31706778204331
H          100.25074775627208      119.11422222520149      101.18366015887366
H          100.11017565102813      120.65760249730840      102.00880973071496
H           99.87734161781619      121.86894489218164       99.94623077995413
H           99.66397177684289      120.39864260286127       99.00973380803795
H          102.20773522519116      121.05785176806238      100.53449631108174
H          101.95612419537214      121.48209720770240       98.84243667946468
H          101.83577954956885      118.62667745327239       99.89774664141075
H          103.28672636103192      119.37125365977614       99.24849414519859
H          102.28317476396920      119.62146301906654       97.05643329492436
H          100.70135869919191      119.12709478845846       97.65246275475306
H          101.52234232180612      116.87757999860506       98.15306770958145
H          103.16080027355846      117.33702601241548       97.68796858164782
H          102.48818585913918      117.67355636039439       95.37620011679546
H          100.78455907469356      117.49845637608205       95.78836799158566
H          101.67645396346443      115.49001597638133       94.68055810423525
H          101.05967065315666      115.14083480299391       96.29280227603607
H          103.27366751652585      114.95220428431428       97.21001158092803
H          104.00466361053806      115.64977650751372       95.75967875845396
H          103.58498465222725      113.68124082851756       94.46922625303105
H          102.39691141849680      113.08644044138178       95.62498360840655
H          104.40192369510140      111.75565275456685       95.85944701981242
H          104.14729708686619      112.72826424716224       97.30511430495665
H          105.81129860859831      114.41470730553570       96.31379118499392
H          106.16211230113737      113.21841570979481       95.07606344172125
H          107.82760305123367      113.09932904519320       96.82195112799971
H          106.88641278484018      111.60957267214934       96.81684192165345
H          107.36970942736798      112.40509987051149       99.09623801029443
H          105.64421305855453      112.30827148069875       98.79721266974100
H          105.49323226077324      114.72982956413848       98.50221294665972
H          107.24963976354233      114.88324789123163       98.59769334068335
H          107.23521172578988      114.24466678508914      100.94691607448917
H          105.55756634998140      113.71841163414236      100.84506160405243
H          105.58682108488610      115.83728523000963      101.97312018127079
H          104.85740839785147      116.06933348719677      100.38356116825405
H          107.13111205325399      116.89756222853849       99.57061383249507
H          107.67422055893327      116.83249253399576      101.24847117321205
H          105.79731202464721      118.40750962594906      101.85532586918656
H          105.31927978519036      118.43961445855115      100.16571784447640
H          106.56576998662041      120.41681696378326      100.47250961545848
H          107.63644163316792      119.31946801186974       99.60537717783808
H          108.91248259181036      120.45707128833783      101.28770589634398
H          108.77224582578702      118.77661195377789      101.78776473688934
H          107.04760674200598      119.34879789870513      103.42908220100615
H          106.95046428676359      120.99697428794695      102.81013016888924
H          109.28508306692814      121.41371961385170      103.52453268223047
H          109.41124863478575      119.74925052320091      104.10635757616974
H          107.71715944580922      120.14523065997976      105.80883355976586
H          107.33150967944462      121.72367346923076      105.13128857940815
H          108.65536998522303      122.04854430473765      107.11052230089348
H          109.60736562919411      122.54088246259361      105.71561035166974
H          110.91216529129476      120.46537249259876      105.81797044934150
H          109.86095387131284      119.82820963634971      107.08560529560279
H          110.51915706996046      121.68970720362715      108.57467946479399
H          111.58401352242012      122.33386266110320      107.33024841579778
H          111.90560926742890      119.52424837020328      108.44099518064093
H          112.64383106452665      120.92114305122944      109.22189760770323
H          113.83338877409227      121.48575284469456      107.12342558693645
H          113.16891294452331      120.04922321912019      106.35189216430470
H          115.04883388210597      120.15156645071363      108.74910299876032
H          115.46361946690159      119.67104008120808      107.10420272366014
H          113.68284055942036      118.17339852411753      109.06797864008401
H          115.27758222322490      117.70834748694193      108.49550672347362
H          114.34839542981825      117.48869575036585      106.16939781135872
H          112.74848439906516      117.88273348116817      106.80135069130009
H          112.97603787430806      115.92504831378440      108.38497298139742
H          114.42203358124394      115.44225021660013      107.49735166582339
H          113.04100442685990      115.46453167600836      105.38207107944561
H          111.60780461075035      115.76190839962499      106.36475800692733
H          113.39663959963613      113.30025512035782      106.53516510978197
H          111.84544554471255      113.38337061465100      105.71335608640418
H          110.71898569106861      113.88490663896891      107.86851662909996
H          112.27608562455612      113.81655009621979      108.69462533315686
H          112.56230732402933      111.45648538178628      107.97997704462507
H          110.97220236982275      111.49361642657051      107.22671664094678
H          109.92148393097284      111.97455071020369      109.41474170281779
H          111.50915512477535      112.07003764455158      110.17196003744859
H          111.91791275727242      109.67141879544502      109.55981062231970
H          110.28905567792886      109.57831056950057      108.90763687097342
H          109.39463666849372      110.24846479380454      111.16428105080243
H          111.03541096981017      110.21509607610308      111.79750648581589
H          111.21981800817169      107.81179057595720      111.23583323901497
H          109.60091549860984      107.83147522755078      110.54746214392554
H          108.64361289657137      108.41068354908610      112.76069372168301
H          110.26279437026618      108.45244396725779      113.46112973714665
H          110.58162055863504      106.06172903947243      112.85797820540701
H          108.96311393442704      106.01360535196653      112.17175586687878
H          107.98431261124489      106.48820922896738      114.40009008154726
H          109.60140193097452      106.61895696122225      115.09431853950767
H          110.07664293194173      104.26951046685473      114.42253290609622
H          108.45941919565959      104.13268740123762      113.74568506809614
H          107.47039708662176      104.45771178530615      115.99385105509847
H          109.08385960786697      104.65850192044967      116.68372188976321
H          109.69754050692134      102.37738687274721      115.89531169452870
H          108.08167108677080      102.17718346351110      115.22828910934142
H          107.10458676960539      102.31863304764855      117.49582873874034
H          108.70993768508075      102.58440243499801      118.18090783998012
H          109.45277717882192      100.38751513220974      117.25913971538255
H          107.83614664613442      100.11443621230836      116.61938397911389
H          106.90632380177952      100.08687032665276      118.90587951120789
H          108.47654698858042      100.54612331493406      119.56263358598568
H          108.35624002185354       98.21878230533757      119.93685809319096
H          109.40203860111609       98.38253212979784      118.52974445913706
H          107.80359742382826       96.55681801941006      118.15828441358312
H          106.44630081612060       97.62381250561214      118.50694076995840
H          107.41408086133234       97.87321770716147      117.05391642992836
H          110.32344791018011      122.60790286950403       94.09675043741015
H          108.61825868215497      122.57587359647859       94.53851980310377
H          109.64605102334276      123.90004716484782       95.08890314544134
C          112.47022728485273      120.30721097984498       92.20236401123292
C          113.16753311423402      120.76242705075553       93.47863115542123
C          113.53761375209830      119.58667736738900       94.37969410163679
C          114.11472432509913      120.04990964418143       95.71415644952172
C          114.56846603374871      118.88394169349179       96.58848782377407
C          115.14513662698489      119.37220147643515       97.91479085528587
C          115.72144692490627      118.25739275322280       98.78613754694332
C          116.98734835092148      117.62544532149880       98.20836713127464
C          117.67091820791164      116.71297077408396       99.22182480621787
C          118.92039399451109      116.03220227836033       98.66912643628021
C          119.56477716308054      115.09933700524279       99.69790926753458
C          118.82820406266764      113.76481476070420       99.80441819019208
C          119.12444827773717      113.01198786436451      101.09848021853169
C          118.40117797873616      111.66729393826411      101.13667641386658
C          118.44019197675912      111.01194686837556      102.51334166229233
C          117.75584465269107      109.64718112517630      102.51352712049622
C          117.61724700025779      109.07584076307138      103.92107163770902
C          117.08479876603255      107.64555882139805      103.92778907915542
C          116.81838254634701      107.15203320927446      105.34719568924247
C          116.50150091716010      105.66096031669940      105.40638562946384
C          116.12380546910821      105.21959330106040      106.81750604329574