      -----------------------------------------------------------      
     |                   =====================                   |     
     |                           x T B                           |     
     |                   =====================                   |     
     |                         S. Grimme                         |     
     |          Mulliken Center for Theoretical Chemistry        |     
     |                    University of Bonn                     |     
      -----------------------------------------------------------      

   * xtb version 6.6.1 (8d0f1dd) compiled by 'stahn@M-Bot' on 2023-08-01

   xtb is free software: you can redistribute it and/or modify it under
   the terms of the GNU Lesser General Public License as published by
   the Free Software Foundation, either version 3 of the License, or
   (at your option) any later version.
   
   xtb is distributed in the hope that it will be useful,
   but WITHOUT ANY WARRANTY; without even the implied warranty of
   MERCHANTABILITY or FITNESS FOR A PARTICULAR PURPOSE.  See the
   GNU Lesser General Public License for more details.
   
   Cite this work as:
   * C. Bannwarth, E. Caldeweyher, S. Ehlert, A. Hansen, P. Pracht,
     J. Seibert, S. Spicher, S. Grimme, WIREs Comput. Mol. Sci., 2020, 11,
     e01493. DOI: 10.1002/wcms.1493
   
   for GFN2-xTB:
   * C. Bannwarth, S. Ehlert and S. Grimme., J. Chem. Theory Comput., 2019,
     15, 1652-1671. DOI: 10.1021/acs.jctc.8b01176
   for GFN1-xTB:
   * S. Grimme, C. Bannwarth, P. Shushkov, J. Chem. Theory Comput., 2017,
     13, 1989-2009. DOI: 10.1021/acs.jctc.7b00118
   for GFN0-xTB:
   * P. Pracht, E. Caldeweyher, S. Ehlert, S. Grimme, ChemRxiv, 2019, preprint.
     DOI: 10.26434/chemrxiv.8326202.v1
   for GFN-FF:
   * S. Spicher and S. Grimme, Angew. Chem. Int. Ed., 2020, 59, 15665-15673.
     DOI: 10.1002/anie.202004239
   
   for ALPB and GBSA implicit solvation:
   * S. Ehlert, M. Stahn, S. Spicher, S. Grimme, J. Chem. Theory Comput.,
     2021, 17, 4250-4261. DOI: 10.1021/acs.jctc.1c00471
   
   for DFT-D4:
   * E. Caldeweyher, C. Bannwarth and S. Grimme, J. Chem. Phys., 2017,
     147, 034112. DOI: 10.1063/1.4993215
   * E. Caldeweyher, S. Ehlert, A. Hansen, H. Neugebauer, S. Spicher,
     C. Bannwarth and S. Grimme, J. Chem. Phys., 2019, 150, 154122.
     DOI: 10.1063/1.5090222
   * E. Caldeweyher, J.-M. Mewes, S. Ehlert and S. Grimme, Phys. Chem. Chem. Phys.
     2020, 22, 8499-8512. DOI: 10.1039/D0CP00502A
   
   for sTDA-xTB:
   * S. Grimme and C. Bannwarth, J. Chem. Phys., 2016, 145, 054103.
     DOI: 10.1063/1.4959605
   
   in the mass-spec context:
   * V. Asgeirsson, C. Bauer and S. Grimme, Chem. Sci., 2017, 8, 4879.
     DOI: 10.1039/c7sc00601b
   * J. Koopman and S. Grimme, ACS Omega 2019, 4, 12, 15120-15133.
     DOI: 10.1021/acsomega.9b02011
   
   for metadynamics refer to:
   * S. Grimme, J. Chem. Theory Comput., 2019, 155, 2847-2862
     DOI: 10.1021/acs.jctc.9b00143
   
   for SPH calculations refer to:
   * S. Spicher and S. Grimme, J. Chem. Theory Comput., 2021, 17, 1701-1714
     DOI: 10.1021/acs.jctc.0c01306
   
   with help from (in alphabetical order)
   P. Atkinson, C. Bannwarth, F. Bohle, G. Brandenburg, E. Caldeweyher
   M. Checinski, S. Dohm, S. Ehlert, S. Ehrlich, I. Gerasimov, C. Hölzer
   A. Katbashev, J. Koopman, C. Lavigne, S. Lehtola, F. März, M. Müller,
   F. Musil, H. Neugebauer, J. Pisarek, C. Plett, P. Pracht, F. Pultar,
   J. Seibert, P. Shushkov, S. Spicher, M. Stahn, M. Steiner, T. Strunk,
   J. Stückrath, T. Rose, and J. Unsleber
   
 * started run on 2024/10/04 at 02:44:54.168     

           -------------------------------------------------
          |                Calculation Setup                |
           -------------------------------------------------

          program call               : /home/abt-grimme/AK-bin/xtb input.xyz --input input.inp --opt
          hostname                   : boar101.thch.uni-bonn.de
          coordinate file            : input.xyz
          omp threads                :                     8

   ID    Z sym.   atoms
    1    6 C      1-120, 363-482, 725-844, 1087-1206, 1449-1568, 1811-1930,
                  2173-2292, 2535-2654, 2897-3016
    2    1 H      121-362, 483-724, 845-1086, 1207-1448, 1569-1810,
                  1931-2172, 2293-2534, 2655-2896, 3017-3258

molecular fragmentation (1/2 indicates fragments):
111111111111111111111111111111111111111111111111111111111111111111111111
111111111111111111111111111111111111111111111111111111111111111111111111
111111111111111111111111111111111111111111111111111111111111111111111111
111111111111111111111111111111111111111111111111111111111111111111111111
111111111111111111111111111111111111111111111111111111111111111111111111
112222222222222222222222222222222222222222222222222222222222222222222222
222222222222222222222222222222222222222222222222222222222222222222222222
222222222222222222222222222222222222222222222222222222222222222222222222
222222222222222222222222222222222222222222222222222222222222222222222222
222222222222222222222222222222222222222222222222222222222222222222222222
222222222222222222222222222222222222222222222222222222222222222222222222
222222222222222222222222222222222222222222222222222222222222222222222222
222222222222222222222222222222222222222222222222222222222222222222222222
222222222222222222222222222222222222222222222222222222222222222222222222
222222222222222222222222222222222222222222222222222222222222222222222222
222222222222222222222222222222222222222222222222222222222222222222222222
222222222222222222222222222222222222222222222222222222222222222222222222
222222222222222222222222222222222222222222222222222222222222222222222222
222222222222222222222222222222222222222222222222222222222222222222222222
222222222222222222222222222222222222222222222222222222222222222222222222
222222222222222222222222222222222222222222222222222222222222222222222222
222222222222222222222222222222222222222222222222222222222222222222222222
222222222222222222222222222222222222222222222222222222222222222222222222
222222222222222222222222222222222222222222222222222222222222222222222222
222222222222222222222222222222222222222222222222222222222222222222222222
222222222222222222222222222222222222222222222222222222222222222222222222
222222222222222222222222222222222222222222222222222222222222222222222222
222222222222222222222222222222222222222222222222222222222222222222222222
222222222222222222222222222222222222222222222222222222222222222222222222
222222222222222222222222222222222222222222222222222222222222222222222222
222222222222222222222222222222222222222222222222222222222222222222222222
222222222222222222222222222222222222222222222222222222222222222222222222
222222222222222222222222222222222222222222222222222222222222222222222222
222222222222222222222222222222222222222222222222222222222222222222222222
222222222222222222222222222222222222222222222222222222222222222222222222
222222222222222222222222222222222222222222222222222222222222222222222222
222222222222222222222222222222222222222222222222222222222222222222222222
222222222222222222222222222222222222222222222222222222222222222222222222
222222222222222222222222222222222222222222222222222222222222222222222222
222222222222222222222222222222222222222222222222222222222222222222222222
222222222222222222222222222222222222222222222222222222222222222222222222
222222222222222222222222222222222222222222222222222222222222222222222222
222222222222222222222222222222222222222222222222222222222222222222222222
222222222222222222222222222222222222222222222222222222222222222222222222
222222222222222222222222222222222222222222222222222222222222222222222222
222222222222222222
# atoms in fragment 1/2:   362  2896
 fragment masses (1/2) :     1685.21    13481.68
CMA distance (Bohr)    :  15.540
constraining FC (au)   :  0.0500

           -------------------------------------------------
          |                 G F N 2 - x T B                 |
           -------------------------------------------------

        Reference                      10.1021/acs.jctc.8b01176
      * Hamiltonian:
        H0-scaling (s, p, d)           1.850000    2.230000    2.230000
        zeta-weighting                 0.500000
      * Dispersion:
        s8                             2.700000
        a1                             0.520000
        a2                             5.000000
        s9                             5.000000
      * Repulsion:
        kExp                           1.500000    1.000000
        rExp                           1.000000
      * Coulomb:
        alpha                          2.000000
        third order                    shell-resolved
        anisotropic                    true
        a3                             3.000000
        a5                             4.000000
        cn-shift                       1.200000
        cn-exp                         4.000000
        max-rad                        5.000000


          ...................................................
          :                      SETUP                      :
          :.................................................:
          :  # basis functions                6498          :
          :  # atomic orbitals                6498          :
          :  # shells                         4338          :
          :  # electrons                      6498          :
          :  max. iterations                   250          :
          :  Hamiltonian                  GFN2-xTB          :
          :  restarted?                      false          :
          :  GBSA solvation                  false          :
          :  PC potential                    false          :
          :  electronic temp.          300.0000000     K    :
          :  accuracy                    1.0000000          :
          :  -> integral cutoff          0.2500000E+02      :
          :  -> integral neglect         0.1000000E-07      :
          :  -> SCF convergence          0.1000000E-05 Eh   :
          :  -> wf. convergence          0.1000000E-03 e    :
          :  Broyden damping             0.4000000          :
          ...................................................

 iter      E             dE          RMSdq      gap      omega  full diag
   1  -3473.5723606 -0.347357E+04  0.244E+00   11.24       0.0  T
   2  -3478.6213045 -0.504894E+01  0.135E+00   11.40       1.0  T
   3  -3478.8278784 -0.206574E+00  0.595E-01   11.42       1.0  T
   4  -3478.8483548 -0.204764E-01  0.754E-02   11.43       1.0  T
   5  -3478.8493028 -0.948029E-03  0.389E-02   11.43       1.0  T
   6  -3478.8495109 -0.208056E-03  0.667E-03   11.44       1.0  T
   7  -3478.8495279 -0.169915E-04  0.124E-03   11.44       1.4  T
   8  -3478.8495289 -0.105836E-05  0.394E-04   11.44       4.4  T
   9  -3478.8495290 -0.664495E-07  0.144E-04   11.44      12.2  T
  10  -3478.8495290 -0.413957E-08  0.419E-05   11.44      41.8  T

   *** convergence criteria satisfied after 10 iterations ***

         #    Occupation            Energy/Eh            Energy/eV
      -------------------------------------------------------------
         1        2.0000           -0.6247777             -17.0011
       ...           ...                  ...                  ...
      3243        2.0000           -0.4022036             -10.9445
      3244        2.0000           -0.4020767             -10.9411
      3245        2.0000           -0.4020018             -10.9390
      3246        2.0000           -0.4018700             -10.9354
      3247        2.0000           -0.4017591             -10.9324
      3248        2.0000           -0.4014069             -10.9228
      3249        2.0000           -0.4011631             -10.9162 (HOMO)
      3250                          0.0191532               0.5212 (LUMO)
      3251                          0.0207121               0.5636
      3252                          0.0232580               0.6329
      3253                          0.0236619               0.6439
      3254                          0.0238406               0.6487
       ...                                ...                  ...
      6498                          0.3891735              10.5900
      -------------------------------------------------------------
                  HL-Gap            0.4203163 Eh           11.4374 eV
             Fermi-level           -0.1910049 Eh           -5.1975 eV

 SCC (total)                   0 d,  0 h, 14 min, 15.371 sec
 SCC setup                      ...        0 min,  0.439 sec (  0.051%)
 Dispersion                     ...        0 min,  3.632 sec (  0.425%)
 classical contributions        ...        0 min,  0.148 sec (  0.017%)
 integral evaluation            ...        0 min,  5.933 sec (  0.694%)
 iterations                     ...        9 min, 57.058 sec ( 69.801%)
 molecular gradient             ...        3 min, 59.455 sec ( 27.994%)
 printout                       ...        0 min,  8.707 sec (  1.018%)

         :::::::::::::::::::::::::::::::::::::::::::::::::::::
         ::                     SUMMARY                     ::
         :::::::::::::::::::::::::::::::::::::::::::::::::::::
         :: total energy           -3427.578735886093 Eh    ::
         :: gradient norm              0.019124766157 Eh/a0 ::
         :: HOMO-LUMO gap             11.437389268684 eV    ::
         ::.................................................::
         :: SCC energy             -3478.849528993444 Eh    ::
         :: -> isotropic ES            0.417941212341 Eh    ::
         :: -> anisotropic ES          1.114265435558 Eh    ::
         :: -> anisotropic XC          1.947622206251 Eh    ::
         :: -> dispersion             -4.075587025762 Eh    ::
         :: repulsion energy          50.609315358241 Eh    ::
         :: add. restraining           0.000000000000 Eh    ::
         :: total charge              -0.000000000012 e     ::
         :::::::::::::::::::::::::::::::::::::::::::::::::::::

      ----------------------------------------------------------- 
     |              Fast Inertial Relaxation Engine              |
      ----------------------------------------------------------- 

          ...................................................
          :                      SETUP                      :
          :.................................................:
          :   energy convergence        0.5000000E-05 Eh    :
          :   grad. convergence         0.1000000E-02 Eh/a0 :
          :   optimization log               true           :
          :   writing optlog all                1     steps :
          :   Hessian reset                    20     steps :
          :   time step scaling                 5     steps :
          :   maximium step len.        1.0000000     a0    :
          :   initial time step         0.2500000     fs    :
          :   maximum time step         1.2500000     fs    :
          :   power reset thr           0.0000000     au    :
          :   alpha parameter           0.1000000           :
          :   BFGS update                   false           :
          :   preconditioning               false           :
          ...................................................

........................................................................
.............................. CYCLE    1 ..............................
........................................................................

 iter      E             dE          RMSdq      gap      omega  full diag
   1  -3478.8532376 -0.347885E+04  0.276E-04   11.44       0.0  T
   2  -3478.8532376 -0.306732E-07  0.157E-04   11.44      11.1  T
   3  -3478.8532376 -0.660748E-09  0.508E-05   11.44      34.5  T
     SCC iter.                  ...        2 min, 57.844 sec
     gradient                   ...        3 min, 58.363 sec
 * total energy  : -3427.5787770 Eh     change    :  -0.4112160E-04 Eh
   gradient norm :     0.0175773 Eh/a0  converged?    E=F G=F D=F
   time step     :     0.2500000 fs     power     :   0.2090632E-08
   step length   :     0.0022414 a0     speed     :   0.2168657E-03

........................................................................
.............................. CYCLE    2 ..............................
........................................................................

 iter      E             dE          RMSdq      gap      omega  full diag
   1  -3478.8586350 -0.347886E+04  0.399E-04   11.44       0.0  T
   2  -3478.8586351 -0.642349E-07  0.228E-04   11.44       7.7  T
   3  -3478.8586351 -0.137697E-08  0.735E-05   11.44      23.8  T
     SCC iter.                  ...        3 min,  2.204 sec
     gradient                   ...        3 min, 57.580 sec
 * total energy  : -3427.5788309 Eh     change    :  -0.5385424E-04 Eh
   gradient norm :     0.0153515 Eh/a0  converged?    E=F G=F D=F
   time step     :     0.2500000 fs     power     :   0.2661799E-08
   step length   :     0.0032712 a0     speed     :   0.3165067E-03

........................................................................
.............................. CYCLE    3 ..............................
........................................................................

 iter      E             dE          RMSdq      gap      omega  full diag
   1  -3478.8654843 -0.347887E+04  0.508E-04   11.44       0.0  T
   2  -3478.8654844 -0.103269E-06  0.290E-04   11.44       6.0  T
   3  -3478.8654844 -0.223508E-08  0.931E-05   11.44      18.8  T
     SCC iter.                  ...        3 min,  1.567 sec
     gradient                   ...        3 min, 58.216 sec
 * total energy  : -3427.5788889 Eh     change    :  -0.5806869E-04 Eh
   gradient norm :     0.0125743 Eh/a0  converged?    E=F G=F D=F
   time step     :     0.2500000 fs     power     :   0.2767610E-08
   step length   :     0.0041696 a0     speed     :   0.4034306E-03

........................................................................
.............................. CYCLE    4 ..............................
........................................................................

 iter      E             dE          RMSdq      gap      omega  full diag
   1  -3478.8734799 -0.347887E+04  0.595E-04   11.44       0.0  T
   2  -3478.8734801 -0.140161E-06  0.340E-04   11.44       5.2  T
   3  -3478.8734801 -0.323280E-08  0.108E-04   11.44      16.2  T
     SCC iter.                  ...        2 min, 55.484 sec
     gradient                   ...        3 min, 58.147 sec
 * total energy  : -3427.5789423 Eh     change    :  -0.5339533E-04 Eh
   gradient norm :     0.0094366 Eh/a0  converged?    E=F G=F D=F
   time step     :     0.2500000 fs     power     :   0.2403723E-08
   step length   :     0.0049016 a0     speed     :   0.4742556E-03

........................................................................
.............................. CYCLE    5 ..............................
........................................................................

 iter      E             dE          RMSdq      gap      omega  full diag
   1  -3478.8822460 -0.347888E+04  0.657E-04   11.44       0.0  T
   2  -3478.8822462 -0.167117E-06  0.375E-04   11.44       4.7  T
   3  -3478.8822462 -0.375121E-08  0.118E-04   11.44      14.9  T
     SCC iter.                  ...        2 min, 59.490 sec
     gradient                   ...        3 min, 58.245 sec
 * total energy  : -3427.5789833 Eh     change    :  -0.4095427E-04 Eh
   gradient norm :     0.0063164 Eh/a0  converged?    E=F G=F D=F
   time step     :     0.2500000 fs     power     :   0.1655554E-08
   step length   :     0.0054369 a0     speed     :   0.5260480E-03

........................................................................
.............................. CYCLE    6 ..............................
........................................................................

 iter      E             dE          RMSdq      gap      omega  full diag
   1  -3478.8922435 -0.347889E+04  0.760E-04   11.44       0.0  T
   2  -3478.8922437 -0.214261E-06  0.435E-04   11.44       4.0  T
   3  -3478.8922437 -0.511864E-08  0.132E-04   11.44      13.3  T
     SCC iter.                  ...        3 min,  4.160 sec
     gradient                   ...        4 min,  1.979 sec
 * total energy  : -3427.5790082 Eh     change    :  -0.2490345E-04 Eh
   gradient norm :     0.0041136 Eh/a0  converged?    E=F G=F D=F
   time step     :     0.2750000 fs     power     :   0.5881041E-09
   step length   :     0.0063476 a0     speed     :   0.5583298E-03

........................................................................
.............................. CYCLE    7 ..............................
........................................................................

 iter      E             dE          RMSdq      gap      omega  full diag
   1  -3478.9024004 -0.347890E+04  0.806E-04   11.44       0.0  T
   2  -3478.9024006 -0.214049E-06  0.463E-04   11.43       3.8  T
   3  -3478.9024006 -0.515774E-08  0.129E-04   11.43      13.6  T
     SCC iter.                  ...        2 min, 55.704 sec
     gradient                   ...        3 min, 58.369 sec
 * total energy  : -3427.5790114 Eh     change    :  -0.3214585E-05 Eh
   gradient norm :     0.0052665 Eh/a0  converged?    E=T G=F D=F
   time step     :     0.3025000 fs     power     :  -0.4392682E-09
   step length   :     0.0068411 a0     speed     :   0.5470348E-03

........................................................................
.............................. CYCLE    8 ..............................
........................................................................
 * reset velocities

 iter      E             dE          RMSdq      gap      omega  full diag
   1  -3478.9022755 -0.347890E+04  0.139E-05   11.43       0.0  T
   2  -3478.9022755 -0.118234E-09  0.746E-06   11.43     234.9  T
   3  -3478.9022755 -0.140972E-10  0.338E-06   11.43     518.3  T
     SCC iter.                  ...        2 min, 57.432 sec
     gradient                   ...        3 min, 59.510 sec
 * total energy  : -3427.5790120 Eh     change    :  -0.5927554E-06 Eh
   gradient norm :     0.0052016 Eh/a0  converged?    E=T G=F D=T
   time step     :     0.1512500 fs     power     :   0.5154759E-10
   step length   :     0.0001130 a0     speed     :   0.1806520E-04

........................................................................
.............................. CYCLE    9 ..............................
........................................................................

 iter      E             dE          RMSdq      gap      omega  full diag
   1  -3478.9020277 -0.347890E+04  0.281E-05   11.43       0.0  T
   2  -3478.9020277 -0.164164E-09  0.164E-05   11.43     107.0  T
   3  -3478.9020277 -0.568434E-10  0.410E-06   11.43     427.5  T
     SCC iter.                  ...        3 min,  3.244 sec
     gradient                   ...        3 min, 59.654 sec
 * total energy  : -3427.5790131 Eh     change    :  -0.1153664E-05 Eh
   gradient norm :     0.0050811 Eh/a0  converged?    E=T G=F D=T
   time step     :     0.1512500 fs     power     :   0.1000731E-09
   step length   :     0.0002245 a0     speed     :   0.3590756E-04

........................................................................
.............................. CYCLE   10 ..............................
........................................................................

 iter      E             dE          RMSdq      gap      omega  full diag
   1  -3478.9016627 -0.347890E+04  0.412E-05   11.43       0.0  T
   2  -3478.9016627 -0.383352E-09  0.240E-05   11.43      72.9  T
   3  -3478.9016627 -0.854925E-10  0.605E-06   11.43     289.3  T
     SCC iter.                  ...        2 min, 59.293 sec
     gradient                   ...        3 min, 58.947 sec
 * total energy  : -3427.5790148 Eh     change    :  -0.1662067E-05 Eh
   gradient norm :     0.0049055 Eh/a0  converged?    E=T G=F D=T
   time step     :     0.1512500 fs     power     :   0.1434505E-09
   step length   :     0.0003335 a0     speed     :   0.5333485E-04

........................................................................
.............................. CYCLE   11 ..............................
........................................................................

 iter      E             dE          RMSdq      gap      omega  full diag
   1  -3478.9011886 -0.347890E+04  0.541E-05   11.43       0.0  T
   2  -3478.9011886 -0.778073E-09  0.315E-05   11.43      55.6  T
   3  -3478.9011886  0.259206E-10  0.790E-06   11.43     221.8  T
     SCC iter.                  ...        2 min, 57.388 sec
     gradient                   ...        3 min, 59.712 sec
 * total energy  : -3427.5790169 Eh     change    :  -0.2113040E-05 Eh
   gradient norm :     0.0046801 Eh/a0  converged?    E=T G=F D=T
   time step     :     0.1512500 fs     power     :   0.1798507E-09
   step length   :     0.0004387 a0     speed     :   0.7015363E-04

........................................................................
.............................. CYCLE   12 ..............................
........................................................................

 iter      E             dE          RMSdq      gap      omega  full diag
   1  -3478.9006166 -0.347890E+04  0.662E-05   11.43       0.0  T
   2  -3478.9006166 -0.113323E-08  0.386E-05   11.43      45.4  T
   3  -3478.9006166  0.318323E-10  0.956E-06   11.43     183.2  T
     SCC iter.                  ...        3 min,  1.981 sec
     gradient                   ...        3 min, 58.599 sec
 * total energy  : -3427.5790194 Eh     change    :  -0.2445035E-05 Eh
   gradient norm :     0.0044124 Eh/a0  converged?    E=T G=F D=T
   time step     :     0.1512500 fs     power     :   0.2079165E-09
   step length   :     0.0005389 a0     speed     :   0.8618273E-04

........................................................................
.............................. CYCLE   13 ..............................
........................................................................

 iter      E             dE          RMSdq      gap      omega  full diag
   1  -3478.8999612 -0.347890E+04  0.774E-05   11.43       0.0  T
   2  -3478.8999612 -0.154250E-08  0.452E-05   11.43      38.8  T
   3  -3478.8999612 -0.773070E-11  0.110E-05   11.43     158.9  T
     SCC iter.                  ...        2 min, 57.257 sec
     gradient                   ...        3 min, 58.566 sec
 * total energy  : -3427.5790221 Eh     change    :  -0.2698751E-05 Eh
   gradient norm :     0.0041126 Eh/a0  converged?    E=T G=F D=T
   time step     :     0.1512500 fs     power     :   0.2268735E-09
   step length   :     0.0006332 a0     speed     :   0.1012577E-03

........................................................................
.............................. CYCLE   14 ..............................
........................................................................

 iter      E             dE          RMSdq      gap      omega  full diag
   1  -3478.8991594 -0.347890E+04  0.974E-05   11.43       0.0  T
   2  -3478.8991594 -0.231103E-08  0.569E-05   11.43      30.8  T
   3  -3478.8991594 -0.554792E-10  0.136E-05   11.43     128.4  T
     SCC iter.                  ...        3 min,  0.181 sec
     gradient                   ...        3 min, 59.643 sec
 * total energy  : -3427.5790252 Eh     change    :  -0.3114063E-05 Eh
   gradient norm :     0.0037589 Eh/a0  converged?    E=T G=F D=T
   time step     :     0.1663750 fs     power     :   0.2369973E-09
   step length   :     0.0008023 a0     speed     :   0.1166376E-03

........................................................................
.............................. CYCLE   15 ..............................
........................................................................

 iter      E             dE          RMSdq      gap      omega  full diag
   1  -3478.8982115 -0.347890E+04  0.120E-04   11.43       0.0  T
   2  -3478.8982115 -0.331283E-08  0.701E-05   11.43      25.0  T
   3  -3478.8982115 -0.372893E-10  0.163E-05   11.43     107.2  T
     SCC iter.                  ...        2 min, 58.781 sec
     gradient                   ...        3 min, 59.436 sec
 * total energy  : -3427.5790287 Eh     change    :  -0.3487827E-05 Eh
   gradient norm :     0.0033670 Eh/a0  converged?    E=T G=F D=T
   time step     :     0.1830125 fs     power     :   0.2359532E-09
   step length   :     0.0009981 a0     speed     :   0.1319233E-03

........................................................................
.............................. CYCLE   16 ..............................
........................................................................

 iter      E             dE          RMSdq      gap      omega  full diag
   1  -3478.8971388 -0.347890E+04  0.144E-04   11.43       0.0  T
   2  -3478.8971388 -0.452656E-08  0.846E-05   11.43      20.7  T
   3  -3478.8971388 -0.124146E-09  0.189E-05   11.43      92.7  T
     SCC iter.                  ...        3 min,  5.287 sec
     gradient                   ...        3 min, 59.853 sec
 * total energy  : -3427.5790324 Eh     change    :  -0.3702739E-05 Eh
   gradient norm :     0.0029750 Eh/a0  converged?    E=T G=F D=F
   time step     :     0.2013138 fs     power     :   0.2226725E-09
   step length   :     0.0012198 a0     speed     :   0.1465696E-03

........................................................................
.............................. CYCLE   17 ..............................
........................................................................

 iter      E             dE          RMSdq      gap      omega  full diag
   1  -3478.8959982 -0.347890E+04  0.170E-04   11.44       0.0  T
   2  -3478.8959982 -0.570435E-08  0.997E-05   11.44      17.6  T
   3  -3478.8959982 -0.115051E-09  0.208E-05   11.44      84.2  T
     SCC iter.                  ...        3 min,  0.306 sec
     gradient                   ...        3 min, 58.538 sec
 * total energy  : -3427.5790361 Eh     change    :  -0.3721455E-05 Eh
   gradient norm :     0.0026529 Eh/a0  converged?    E=T G=F D=F
   time step     :     0.2214451 fs     power     :   0.1987921E-09
   step length   :     0.0014634 a0     speed     :   0.1598503E-03

........................................................................
.............................. CYCLE   18 ..............................
........................................................................

 iter      E             dE          RMSdq      gap      omega  full diag
   1  -3478.8949014 -0.347889E+04  0.194E-04   11.44       0.0  T
   2  -3478.8949014 -0.626778E-08  0.114E-04   11.44      15.4  T
   3  -3478.8949014 -0.153250E-09  0.214E-05   11.44      81.9  T
     SCC iter.                  ...        3 min,  2.622 sec
     gradient                   ...        3 min, 58.739 sec
 * total energy  : -3427.5790397 Eh     change    :  -0.3612080E-05 Eh
   gradient norm :     0.0024877 Eh/a0  converged?    E=T G=F D=F
   time step     :     0.2435896 fs     power     :   0.1701412E-09
   step length   :     0.0017205 a0     speed     :   0.1708527E-03

........................................................................
.............................. CYCLE   19 ..............................
........................................................................

 iter      E             dE          RMSdq      gap      omega  full diag
   1  -3478.8940217 -0.347889E+04  0.214E-04   11.44       0.0  T
   2  -3478.8940217 -0.577529E-08  0.126E-04   11.44      13.9  T
   3  -3478.8940217 -0.204636E-09  0.200E-05   11.44      87.4  T
     SCC iter.                  ...        2 min, 59.071 sec
     gradient                   ...        3 min, 57.527 sec
 * total energy  : -3427.5790432 Eh     change    :  -0.3463359E-05 Eh
   gradient norm :     0.0025099 Eh/a0  converged?    E=T G=F D=F
   time step     :     0.2679486 fs     power     :   0.1464428E-09
   step length   :     0.0019804 a0     speed     :   0.1787833E-03

........................................................................
.............................. CYCLE   20 ..............................
........................................................................

 iter      E             dE          RMSdq      gap      omega  full diag
   1  -3478.8935703 -0.347889E+04  0.230E-04   11.44       0.0  T
   2  -3478.8935703 -0.447835E-08  0.136E-04   11.44      12.9  T
   3  -3478.8935703 -0.135969E-09  0.172E-05   11.44     101.7  T
     SCC iter.                  ...        2 min, 56.996 sec
     gradient                   ...        3 min, 57.037 sec
 * total energy  : -3427.5790467 Eh     change    :  -0.3494526E-05 Eh
   gradient norm :     0.0026288 Eh/a0  converged?    E=T G=F D=F
   time step     :     0.2947435 fs     power     :   0.1367465E-09
   step length   :     0.0022413 a0     speed     :   0.1839404E-03
 * RMSD in coord.:     0.0005713 a0     energy gain  -0.3107735E-03 Eh

........................................................................
.............................. CYCLE   21 ..............................
........................................................................

 iter      E             dE          RMSdq      gap      omega  full diag
   1  -3478.8936739 -0.347889E+04  0.187E-04   11.44       0.0  T
   2  -3478.8936739 -0.175351E-08  0.110E-04   11.44      15.9  T
   3  -3478.8936739 -0.177351E-10  0.114E-05   11.44     153.7  T
     SCC iter.                  ...        3 min,  5.376 sec
     gradient                   ...        3 min, 57.880 sec
 * total energy  : -3427.5790496 Eh     change    :  -0.2978210E-05 Eh
   gradient norm :     0.0026763 Eh/a0  converged?    E=T G=F D=F
   time step     :     0.2500000 fs     power     :   0.1452524E-09
   step length   :     0.0019113 a0     speed     :   0.1849267E-03

........................................................................
.............................. CYCLE   22 ..............................
........................................................................

 iter      E             dE          RMSdq      gap      omega  full diag
   1  -3478.8942530 -0.347889E+04  0.182E-04   11.44       0.0  T
   2  -3478.8942530 -0.137106E-08  0.107E-04   11.44      16.4  T
   3  -3478.8942530 -0.632099E-10  0.112E-05   11.44     157.1  T
     SCC iter.                  ...        3 min,  4.717 sec
     gradient                   ...        3 min, 56.695 sec
 * total energy  : -3427.5790528 Eh     change    :  -0.3192716E-05 Eh
   gradient norm :     0.0026005 Eh/a0  converged?    E=T G=F D=F
   time step     :     0.2500000 fs     power     :   0.1588395E-09
   step length   :     0.0019288 a0     speed     :   0.1866257E-03

........................................................................
.............................. CYCLE   23 ..............................
........................................................................

 iter      E             dE          RMSdq      gap      omega  full diag
   1  -3478.8952620 -0.347890E+04  0.182E-04   11.44       0.0  T
   2  -3478.8952620 -0.185446E-08  0.106E-04   11.44      16.5  T
   3  -3478.8952620  0.500222E-11  0.123E-05   11.44     142.4  T
     SCC iter.                  ...        3 min,  2.730 sec
     gradient                   ...        3 min, 56.662 sec
 * total energy  : -3427.5790562 Eh     change    :  -0.3380496E-05 Eh
   gradient norm :     0.0023876 Eh/a0  converged?    E=T G=F D=F
   time step     :     0.2500000 fs     power     :   0.1682517E-09
   step length   :     0.0019616 a0     speed     :   0.1897971E-03

........................................................................
.............................. CYCLE   24 ..............................
........................................................................

 iter      E             dE          RMSdq      gap      omega  full diag
   1  -3478.8966298 -0.347890E+04  0.186E-04   11.44       0.0  T
   2  -3478.8966298 -0.282307E-08  0.107E-04   11.44      16.3  T
   3  -3478.8966298 -0.595719E-10  0.143E-05   11.44     122.6  T
     SCC iter.                  ...        2 min, 59.710 sec
     gradient                   ...        3 min, 57.689 sec
 * total energy  : -3427.5790596 Eh     change    :  -0.3386757E-05 Eh
   gradient norm :     0.0020605 Eh/a0  converged?    E=T G=F D=F
   time step     :     0.2500000 fs     power     :   0.1665502E-09
   step length   :     0.0020082 a0     speed     :   0.1943054E-03

........................................................................
.............................. CYCLE   25 ..............................
........................................................................

 iter      E             dE          RMSdq      gap      omega  full diag
   1  -3478.8982596 -0.347890E+04  0.190E-04   11.44       0.0  T
   2  -3478.8982596 -0.378577E-08  0.109E-04   11.44      16.0  T
   3  -3478.8982596 -0.773070E-10  0.166E-05   11.44     105.8  T
     SCC iter.                  ...        2 min, 59.319 sec
     gradient                   ...        4 min,  0.368 sec
 * total energy  : -3427.5790628 Eh     change    :  -0.3166993E-05 Eh
   gradient norm :     0.0016807 Eh/a0  converged?    E=T G=F D=F
   time step     :     0.2500000 fs     power     :   0.1509769E-09
   step length   :     0.0020619 a0     speed     :   0.1995020E-03

........................................................................
.............................. CYCLE   26 ..............................
........................................................................

 iter      E             dE          RMSdq      gap      omega  full diag
   1  -3478.9002057 -0.347890E+04  0.211E-04   11.44       0.0  T
   2  -3478.9002057 -0.584760E-08  0.121E-04   11.44      14.5  T
   3  -3478.9002057 -0.171894E-09  0.202E-05   11.44      86.7  T
     SCC iter.                  ...        3 min,  2.699 sec
     gradient                   ...        3 min, 58.387 sec
 * total energy  : -3427.5790657 Eh     change    :  -0.2953563E-05 Eh
   gradient norm :     0.0013447 Eh/a0  converged?    E=T G=F D=F
   time step     :     0.2750000 fs     power     :   0.1206872E-09
   step length   :     0.0023337 a0     speed     :   0.2052678E-03

........................................................................
.............................. CYCLE   27 ..............................
........................................................................

 iter      E             dE          RMSdq      gap      omega  full diag
   1  -3478.9022528 -0.347890E+04  0.226E-04   11.44       0.0  T
   2  -3478.9022528 -0.671389E-08  0.130E-04   11.44      13.5  T
   3  -3478.9022528 -0.186446E-09  0.215E-05   11.44      81.5  T
     SCC iter.                  ...        3 min,  0.905 sec
     gradient                   ...        3 min, 57.902 sec
 * total energy  : -3427.5790682 Eh     change    :  -0.2462034E-05 Eh
   gradient norm :     0.0012982 Eh/a0  converged?    E=T G=F D=F
   time step     :     0.3025000 fs     power     :   0.8455442E-10
   step length   :     0.0026169 a0     speed     :   0.2092579E-03

........................................................................
.............................. CYCLE   28 ..............................
........................................................................

 iter      E             dE          RMSdq      gap      omega  full diag
   1  -3478.9040138 -0.347890E+04  0.225E-04   11.44       0.0  T
   2  -3478.9040138 -0.522596E-08  0.129E-04   11.44      13.6  T
   3  -3478.9040138 -0.176442E-09  0.183E-05   11.44      95.7  T
     SCC iter.                  ...        3 min,  1.040 sec
     gradient                   ...        3 min, 57.405 sec
 * total energy  : -3427.5790702 Eh     change    :  -0.1992621E-05 Eh
   gradient norm :     0.0015430 Eh/a0  converged?    E=T G=F D=F
   time step     :     0.3327500 fs     power     :   0.6115166E-10
   step length   :     0.0028538 a0     speed     :   0.2074504E-03

........................................................................
.............................. CYCLE   29 ..............................
........................................................................

 iter      E             dE          RMSdq      gap      omega  full diag
   1  -3478.9051465 -0.347891E+04  0.211E-04   11.44       0.0  T
   2  -3478.9051465 -0.253613E-08  0.122E-04   11.44      14.4  T
   3  -3478.9051465 -0.171440E-09  0.124E-05   11.44     141.0  T
     SCC iter.                  ...        3 min,  0.323 sec
     gradient                   ...        3 min, 55.839 sec
 * total energy  : -3427.5790721 Eh     change    :  -0.1976745E-05 Eh
   gradient norm :     0.0017710 Eh/a0  converged?    E=T G=F D=F
   time step     :     0.3660250 fs     power     :   0.5999898E-10
   step length   :     0.0030442 a0     speed     :   0.2011755E-03

........................................................................
.............................. CYCLE   30 ..............................
........................................................................

 iter      E             dE          RMSdq      gap      omega  full diag
   1  -3478.9054353 -0.347891E+04  0.198E-04   11.44       0.0  T
   2  -3478.9054353 -0.105547E-08  0.116E-04   11.44      15.1  T
   3  -3478.9054353 -0.161890E-09  0.920E-06   11.44     190.4  T
     SCC iter.                  ...        2 min, 56.786 sec
     gradient                   ...        3 min, 57.319 sec
 * total energy  : -3427.5790746 Eh     change    :  -0.2440238E-05 Eh
   gradient norm :     0.0017816 Eh/a0  converged?    E=T G=F D=F
   time step     :     0.4026275 fs     power     :   0.7296780E-10
   step length   :     0.0032572 a0     speed     :   0.1956854E-03

........................................................................
.............................. CYCLE   31 ..............................
........................................................................

 iter      E             dE          RMSdq      gap      omega  full diag
   1  -3478.9047917 -0.347890E+04  0.198E-04   11.44       0.0  T
   2  -3478.9047917 -0.267210E-08  0.116E-04   11.44      15.1  T
   3  -3478.9047917 -0.151431E-09  0.120E-05   11.44     146.5  T
     SCC iter.                  ...        2 min, 59.677 sec
     gradient                   ...        3 min, 58.395 sec
 * total energy  : -3427.5790777 Eh     change    :  -0.3065967E-05 Eh
   gradient norm :     0.0015442 Eh/a0  converged?    E=T G=F D=F
   time step     :     0.4428903 fs     power     :   0.8252800E-10
   step length   :     0.0035514 a0     speed     :   0.1939609E-03

........................................................................
.............................. CYCLE   32 ..............................
........................................................................

 iter      E             dE          RMSdq      gap      omega  full diag
   1  -3478.9033417 -0.347890E+04  0.208E-04   11.44       0.0  T
   2  -3478.9033417 -0.631780E-08  0.123E-04   11.44      14.3  T
   3  -3478.9033417 -0.296950E-09  0.197E-05   11.44      89.1  T
     SCC iter.                  ...        3 min,  0.782 sec
     gradient                   ...        3 min, 58.730 sec
 * total energy  : -3427.5790810 Eh     change    :  -0.3307693E-05 Eh
   gradient norm :     0.0012670 Eh/a0  converged?    E=T G=F D=F
   time step     :     0.4871793 fs     power     :   0.7535212E-10
   step length   :     0.0039443 a0     speed     :   0.1958382E-03

........................................................................
.............................. CYCLE   33 ..............................
........................................................................

 iter      E             dE          RMSdq      gap      omega  full diag
   1  -3478.9016396 -0.347890E+04  0.206E-04   11.44       0.0  T
   2  -3478.9016397 -0.802356E-08  0.122E-04   11.44      14.4  T
   3  -3478.9016397 -0.296041E-09  0.229E-05   11.44      76.4  T
     SCC iter.                  ...        2 min, 59.151 sec
     gradient                   ...        3 min, 58.225 sec
 * total energy  : -3427.5790840 Eh     change    :  -0.3079584E-05 Eh
   gradient norm :     0.0013589 Eh/a0  converged?    E=T G=F D=F
   time step     :     0.5358972 fs     power     :   0.6025488E-10
   step length   :     0.0043912 a0     speed     :   0.1982054E-03

........................................................................
.............................. CYCLE   34 ..............................
........................................................................

 iter      E             dE          RMSdq      gap      omega  full diag
   1  -3478.9006247 -0.347890E+04  0.185E-04   11.44       0.0  T
   2  -3478.9006247 -0.361024E-08  0.110E-04   11.44      16.0  T
   3  -3478.9006247 -0.142791E-09  0.129E-05   11.44     135.5  T
     SCC iter.                  ...        2 min, 55.406 sec
     gradient                   ...        4 min,  1.780 sec
 * total energy  : -3427.5790873 Eh     change    :  -0.3235380E-05 Eh
   gradient norm :     0.0016014 Eh/a0  converged?    E=T G=F D=F
   time step     :     0.5894869 fs     power     :   0.6317861E-10
   step length   :     0.0048157 a0     speed     :   0.1976070E-03

........................................................................
.............................. CYCLE   35 ..............................
........................................................................

 iter      E             dE          RMSdq      gap      omega  full diag
   1  -3478.9009890 -0.347890E+04  0.195E-04   11.44       0.0  T
   2  -3478.9009890 -0.858108E-09  0.114E-04   11.44      15.3  T
   3  -3478.9009890 -0.718501E-10  0.676E-06   11.44     259.2  T
     SCC iter.                  ...        3 min,  0.805 sec
     gradient                   ...        3 min, 58.765 sec
 * total energy  : -3427.5790916 Eh     change    :  -0.4303276E-05 Eh
   gradient norm :     0.0015130 Eh/a0  converged?    E=T G=F D=F
   time step     :     0.6484356 fs     power     :   0.8170500E-10
   step length   :     0.0053216 a0     speed     :   0.1985143E-03

........................................................................
.............................. CYCLE   36 ..............................
........................................................................

 iter      E             dE          RMSdq      gap      omega  full diag
   1  -3478.9028901 -0.347890E+04  0.258E-04   11.44       0.0  T
   2  -3478.9028901 -0.714363E-08  0.149E-04   11.44      11.8  T
   3  -3478.9028901 -0.150976E-09  0.217E-05   11.44      80.8  T
     SCC iter.                  ...        3 min,  2.724 sec
     gradient                   ...        3 min, 59.092 sec
 * total energy  : -3427.5790968 Eh     change    :  -0.5255869E-05 Eh
   gradient norm :     0.0011440 Eh/a0  converged?    E=F G=F D=F
   time step     :     0.7132792 fs     power     :   0.8477754E-10
   step length   :     0.0060432 a0     speed     :   0.2049397E-03

........................................................................
.............................. CYCLE   37 ..............................
........................................................................

 iter      E             dE          RMSdq      gap      omega  full diag
   1  -3478.9054333 -0.347891E+04  0.295E-04   11.44       0.0  T
   2  -3478.9054333 -0.132632E-07  0.171E-04   11.44      10.2  T
   3  -3478.9054333 -0.357886E-09  0.309E-05   11.44      56.7  T
     SCC iter.                  ...        3 min,  0.848 sec
     gradient                   ...        3 min, 57.400 sec
 * total energy  : -3427.5791019 Eh     change    :  -0.5045915E-05 Eh
   gradient norm :     0.0012403 Eh/a0  converged?    E=F G=F D=F
   time step     :     0.7846071 fs     power     :   0.6860481E-10
   step length   :     0.0069444 a0     speed     :   0.2140913E-03

........................................................................
.............................. CYCLE   38 ..............................
........................................................................

 iter      E             dE          RMSdq      gap      omega  full diag
   1  -3478.9066327 -0.347891E+04  0.261E-04   11.44       0.0  T
   2  -3478.9066327 -0.600767E-08  0.153E-04   11.44      11.4  T
   3  -3478.9066327 -0.353793E-09  0.219E-05   11.44      80.1  T
     SCC iter.                  ...        3 min,  2.444 sec
     gradient                   ...        3 min, 59.283 sec
 * total energy  : -3427.5791073 Eh     change    :  -0.5414656E-05 Eh
   gradient norm :     0.0013739 Eh/a0  converged?    E=F G=F D=F
   time step     :     0.8630678 fs     power     :   0.7442831E-10
   step length   :     0.0078082 a0     speed     :   0.2188378E-03

........................................................................
.............................. CYCLE   39 ..............................
........................................................................

 iter      E             dE          RMSdq      gap      omega  full diag
   1  -3478.9056247 -0.347891E+04  0.285E-04   11.44       0.0  T
   2  -3478.9056247 -0.932778E-08  0.166E-04   11.44      10.6  T
   3  -3478.9056247 -0.294676E-09  0.282E-05   11.44      62.2  T
     SCC iter.                  ...        3 min,  8.450 sec
     gradient                   ...        3 min, 56.465 sec
 * total energy  : -3427.5791139 Eh     change    :  -0.6607982E-05 Eh
   gradient norm :     0.0010648 Eh/a0  converged?    E=F G=F D=F
   time step     :     0.9493746 fs     power     :   0.8022330E-10
   step length   :     0.0088656 a0     speed     :   0.2258837E-03

........................................................................
.............................. CYCLE   40 ..............................
........................................................................

 iter      E             dE          RMSdq      gap      omega  full diag
   1  -3478.9039936 -0.347890E+04  0.313E-04   11.44       0.0  T
   2  -3478.9039936 -0.113846E-07  0.182E-04   11.44       9.6  T
   3  -3478.9039936 -0.357431E-09  0.278E-05   11.44      62.9  T
     SCC iter.                  ...        2 min, 56.932 sec
     gradient                   ...        3 min, 56.382 sec
 * total energy  : -3427.5791206 Eh     change    :  -0.6657933E-05 Eh
   gradient norm :     0.0012933 Eh/a0  converged?    E=F G=F D=F
   time step     :     1.0443120 fs     power     :   0.6957669E-10
   step length   :     0.0101985 a0     speed     :   0.2362225E-03

........................................................................
.............................. CYCLE   41 ..............................
........................................................................

 iter      E             dE          RMSdq      gap      omega  full diag
   1  -3478.9049206 -0.347890E+04  0.310E-04   11.44       0.0  T
   2  -3478.9049207 -0.429918E-08  0.181E-04   11.44       9.7  T
   3  -3478.9049207 -0.304681E-09  0.130E-05   11.44     134.9  T
     SCC iter.                  ...        3 min,  2.446 sec
     gradient                   ...        3 min, 58.083 sec
 * total energy  : -3427.5791288 Eh     change    :  -0.8193585E-05 Eh
   gradient norm :     0.0012132 Eh/a0  converged?    E=F G=F D=F
   time step     :     1.1487432 fs     power     :   0.8646669E-10
   step length   :     0.0115564 a0     speed     :   0.2433406E-03

........................................................................
.............................. CYCLE   42 ..............................
........................................................................

 iter      E             dE          RMSdq      gap      omega  full diag
   1  -3478.9075126 -0.347891E+04  0.398E-04   11.44       0.0  T
   2  -3478.9075126 -0.206142E-07  0.232E-04   11.44       7.6  T
   3  -3478.9075126 -0.507498E-09  0.359E-05   11.44      48.8  T
     SCC iter.                  ...        3 min,  0.908 sec
     gradient                   ...        3 min, 57.681 sec
 * total energy  : -3427.5791377 Eh     change    :  -0.8967343E-05 Eh
   gradient norm :     0.0012738 Eh/a0  converged?    E=F G=F D=F
   time step     :     1.2500000 fs     power     :   0.7713936E-10
   step length   :     0.0132456 a0     speed     :   0.2563174E-03
 * RMSD in coord.:     0.0016847 a0     energy gain  -0.9106555E-04 Eh

........................................................................
.............................. CYCLE   43 ..............................
........................................................................

 iter      E             dE          RMSdq      gap      omega  full diag
   1  -3478.9076023 -0.347891E+04  0.605E-05   11.44       0.0  T
   2  -3478.9076023 -0.138243E-09  0.355E-05   11.44      49.3  T
   3  -3478.9076023 -0.800355E-10  0.266E-06   11.44     657.6  T
     SCC iter.                  ...        2 min, 57.422 sec
     gradient                   ...        3 min, 56.357 sec
 * total energy  : -3427.5791394 Eh     change    :  -0.1724500E-05 Eh
   gradient norm :     0.0012996 Eh/a0  converged?    E=T G=F D=F
   time step     :     0.2500000 fs     power     :   0.8962746E-10
   step length   :     0.0025489 a0     speed     :   0.2466240E-03

........................................................................
.............................. CYCLE   44 ..............................
........................................................................

 iter      E             dE          RMSdq      gap      omega  full diag
   1  -3478.9072986 -0.347891E+04  0.596E-05   11.44       0.0  T
   2  -3478.9072986 -0.284672E-09  0.347E-05   11.44      50.4  T
   3  -3478.9072986 -0.241016E-10  0.488E-06   11.44     359.0  T
     SCC iter.                  ...        2 min, 57.498 sec
     gradient                   ...        3 min, 56.456 sec
 * total energy  : -3427.5791414 Eh     change    :  -0.1905576E-05 Eh
   gradient norm :     0.0012051 Eh/a0  converged?    E=T G=F D=F
   time step     :     0.2500000 fs     power     :   0.9996865E-10
   step length   :     0.0024792 a0     speed     :   0.2398773E-03

........................................................................
.............................. CYCLE   45 ..............................
........................................................................

 iter      E             dE          RMSdq      gap      omega  full diag
   1  -3478.9066798 -0.347891E+04  0.706E-05   11.44       0.0  T
   2  -3478.9066798 -0.869932E-09  0.409E-05   11.44      42.8  T
   3  -3478.9066798 -0.186446E-10  0.877E-06   11.44     199.7  T
     SCC iter.                  ...        3 min,  2.076 sec
     gradient                   ...        3 min, 58.094 sec
 * total energy  : -3427.5791434 Eh     change    :  -0.2004941E-05 Eh
   gradient norm :     0.0010431 Eh/a0  converged?    E=T G=F D=F
   time step     :     0.2500000 fs     power     :   0.1030300E-09
   step length   :     0.0024446 a0     speed     :   0.2365320E-03

........................................................................
.............................. CYCLE   46 ..............................
........................................................................

 iter      E             dE          RMSdq      gap      omega  full diag
   1  -3478.9058700 -0.347891E+04  0.812E-05   11.44       0.0  T
   2  -3478.9058700 -0.142745E-08  0.471E-05   11.44      37.2  T
   3  -3478.9058700 -0.459295E-10  0.112E-05   11.44     156.6  T
     SCC iter.                  ...        3 min,  0.955 sec
     gradient                   ...        3 min, 57.456 sec
 * total energy  : -3427.5791453 Eh     change    :  -0.1975679E-05 Eh
   gradient norm :     0.0009152 Eh/a0  converged?    E=T G=T D=F
   time step     :     0.2500000 fs     power     :   0.9877700E-10
   step length   :     0.0024409 a0     speed     :   0.2361660E-03

   *** GEOMETRY OPTIMIZATION CONVERGED AFTER 46 CYCLES ***

------------------------------------------------------------------------
 total energy gain   :        -0.0004094 Eh       -0.2569 kcal/mol
 total RMSD          :         0.0020768 a0        0.0011 Å
 total power (kW/mol):        -0.0233698 (step)   -0.0001 (real)
------------------------------------------------------------------------

 FIRE (total)                  0 d,  5 h, 35 min, 24.862 sec
 setup                          ...        0 min,  0.116 sec (  0.001%)
 velocities                     ...        0 min,  0.003 sec (  0.000%)
 propagation                    ...        0 min,  0.005 sec (  0.000%)
 singlepoint calculation        ...      335 min, 23.996 sec ( 99.996%)
 log and printout               ...        0 min,  0.685 sec (  0.003%)
 preconditioner                 ...        0 min,  0.000 sec (  0.000%)
 model hessian                  ...        0 min,  0.000 sec (  0.000%)
 hessian update                 ...        0 min,  0.000 sec (  0.000%)

================
 final structure:
================
3258
 xtb: 6.6.1 (8d0f1dd)
C          107.45515443423150       97.58485415639710      118.10071114279860
C          108.37674359769692       98.50960533851502      118.88470737238286
C          107.98551559967778       99.98355194529564      118.76636288829376
C          108.39259860915004      100.59121260858500      117.42813361783409
C          108.16719334908153      102.10004320677282      117.36634429073828
C          108.64874030931927      102.65318143356299      116.02965235868967
C          108.51797745578246      104.16642366035997      115.89029011926127
C          109.04562501960017      104.61554891949811      114.53109480084478
C          109.01172934377909      106.12526413423029      114.31807474328055
C          109.57617253543049      106.48106338144326      112.94540160247141
C          109.64720073932976      107.98214848776085      112.69052444498364
C          110.23600383327529      108.28059595767186      111.31421322015271
C          110.37004457581621      109.77585141634422      111.05199215498340
C          110.90830409954620      110.07667963859264      109.65688196477230
C          110.93980496616855      111.57613866015659      109.38189282382379
C          111.57175144368824      111.91354989411170      108.03583678396895
C          111.70897747302999      113.42050573492469      107.85225914735736
C          112.41829767918857      113.78343569236566      106.55421928626407
C          112.59196077532053      115.28796454110429      106.36214982891487
C          113.46701479216880      115.96493599828108      107.41369580765397
C          113.70821376436687      117.42879598971919      107.05391104819418
C          114.34754959754537      118.20284653359217      108.20270072326646
C          114.66634580075933      119.65679830886549      107.85205138464673
C          113.48564360097640      120.46402413734540      107.30889650395223
C          112.29599368720068      120.52695425396311      108.26282401620955
C          111.16390519029578      121.41195424258738      107.73835728189141
C          110.29740818885317      120.74257953131247      106.67354391885742
C          109.17451463508854      121.67560429180682      106.22359029664503
C          108.14728265282922      121.01478312650374      105.30524953813863
C          108.72205917073954      120.58220301128753      103.95836213027971
C          107.62983616209618      120.15597036481729      102.98038308848240
C          108.20773129170446      119.69923418814413      101.64184388161115
C          107.14182826067028      119.49364578632775      100.56512867154969
C          106.17766124913771      118.33841636810330      100.83595044711359
C          106.79893361455062      116.96212202268180      100.60797496331739
C          105.79597028672988      115.84762296437182      100.89922544447799
C          106.27344246378210      114.45887908816233      100.47516160748714
C          106.39300234837083      114.31313859495400       98.95852324734476
C          106.54993034134922      112.85584361844639       98.53245925627988
C          106.84052279833313      112.67937695515273       97.03942728575014
C          105.82591462790521      113.34562944416967       96.10921099980629
C          104.41664867080374      112.77730919642696       96.25058693855117
C          103.35278533758257      113.60885113737173       95.53444075969826
C          103.19777844938898      115.01246015926876       96.12242801281224
C          101.86000788672929      115.64737822661999       95.74716611958084
C          101.79186530851072      117.14880320869166       96.03307357155157
C          102.10412487038182      117.51697802616448       97.48252848587111
C          101.77582852342272      118.97934941188507       97.77937003331883
C          102.19496874970413      119.37919655633145       99.19297398820864
C          101.69097593292024      120.76019048309293       99.61870278274694
C          100.18220724721007      120.82169498926709       99.86863620760275
C           99.76451078683088      120.08737281649113      101.14217439468467
C           98.25540651949932      119.87614248452422      101.27140231925549
C           97.62302436702501      119.06279994740694      100.13857428241344
C           98.29190897142749      117.71272023216630       99.88739978832157
C           97.59563540547930      116.94923384951393       98.76383354380658
C           98.28231110107110      115.62680828343268       98.43003027602180
C           97.61716484820380      114.94250762726452       97.23840407567498
C           98.27600774872462      113.61819826597494       96.85991204983493
C           97.61412515677971      113.00894747865298       95.62582053215530
C           98.29118832197422      111.73496371971102       95.12073863231643
C           99.66512975328016      111.98186905563153       94.50239081168779
C          100.20199062832722      110.74352275325155       93.78752341941785
C          101.60915270078078      110.96843866030082       93.23711602375704
C          102.15313045235709      109.74147672724069       92.50844502075002
C          103.46085194014070      110.00981218138982       91.76216097160901
C          104.63550322371206      110.38970448538954       92.66377526721358
C          105.91037786153007      110.57736443171569       91.84173865627034
C          107.08657597108439      111.15280174076847       92.63138072800133
C          107.67331743394982      110.18939490497296       93.66073214708534
C          108.95057551150319      110.74875444801168       94.28523735657581
C          109.60103460019586      109.77518329309045       95.26464965803488
C          110.89198964892013      110.33175689033560       95.86266983828580
C          111.60267532239016      109.29994165203554       96.73618453732743
C          112.92925987519251      109.81753228796788       97.28937384286004
C          113.74964745181217      108.73600733545140       97.99613105016392
C          113.12757307511897      108.27776871852154       99.31293484403666
C          113.86140676967096      107.08853071901457       99.93005504604960
C          113.18485175830769      106.63825634781618      101.22266125330138
C          113.73886266406026      105.32818516196021      101.77721578656393
C          113.00978095434245      104.92091551305511      103.05646371670842
C          113.35949320687932      103.51132947146560      103.52539738821072
C          112.59842637653615      103.14003353281504      104.79723970555247
C          112.73201739260848      101.66102828525048      105.15011093974205
C          111.93195926531291      101.29839101584177      106.39910543830793
C          111.94540318932587       99.79796113267990      106.68128581400046
C          111.11668277805811       99.43749468540877      107.91257515429959
C          111.04744604011984       97.92886397645604      108.13358930673459
C          110.26496958877424       97.52699269282589      109.38502345426399
C          108.77565490637626       97.87495703516008      109.36782152252933
C          108.00399086172585       97.22645034459575      108.22195794879502
C          106.49505605139305       97.42156614036597      108.36104330591189
C          105.74720432430327       96.87807823732436      107.14481031646903
C          104.22546312631319       96.99753105789536      107.24972857909044
C          103.68401060610073       98.42654084618179      107.17164173070550
C          103.78694212613841       99.03825373248996      105.77644686287098
C          103.22894044430909      100.46007030427043      105.73403294765446
C          103.39360146916852      101.08511081295377      104.35034762001547
C          102.71944919070243      102.44804270635734      104.18979782992500
C          103.33688230056569      103.58962969825264      104.99740220708277
C          104.72662331877189      104.01379058416131      104.52081898799179
C          105.17513336967522      105.29442633865081      105.22820349718641
C          106.68537492210747      105.53415526981905      105.19503035761464
C          107.21632827817687      106.12026038034406      103.88842053536324
C          108.73289440194134      106.30246670541965      103.96251699303608
C          109.33920467477147      107.01589442860148      102.75344429386391
C          109.15118126700162      108.53238193048462      102.76244019261995
C          109.80553196347495      109.18495486907491      101.54448796847907
C          109.71321474020773      110.70875464397004      101.57060058453067
C          110.14148688034473      111.34073419544872      100.24505668537701
C          110.14652422863345      112.86435356707884      100.34173041423956
C          110.34249759704701      113.58185456969697       99.00728641811536
C          110.33969273481833      115.09801421941343       99.20605325093425
C          110.24696283304991      115.89481085473447       97.90795199655872
C          110.33362253866200      117.39768406770904       98.17324356717118
C          110.12503462189460      118.22641278048333       96.90946848388070
C          110.19321003231224      119.72889727546819       97.17167883459059
C          109.92053551608880      120.53608196113228       95.90449032148109
C          109.95264610431656      122.04141838689915       96.15188552943698
C          109.61614546176844      122.82928294914089       94.89222505174631
H          109.23243554536906      122.29318184148667       96.93348448293641
H          110.94374655010891      122.33265003816808       96.50758438078904
H          110.66223897177960      120.27833024322177       95.14668274114979
H          108.93925635453392      120.26512719104974       95.51063754075740
H          109.45943327020825      119.99683425504985       97.93674626544626
H          111.18095091505957      119.98303688768324       97.56370764919208
H          110.88516109216877      117.95951848479488       96.17090457522163
H          109.14952983691387      117.98132372781453       96.48175912605275
H          109.58008413062909      117.67687258195122       98.91400463408443
H          111.31136813100770      117.63383099350136       98.59971316182860
H          111.05416624717417      115.59732855894683       97.23757130732588
H          109.30295902589089      115.66860375505790       97.40511669457014
H          109.49716415858627      115.37092096797910       99.84603730132412
H          111.25316375614592      115.39055697621953       99.72885415667284
H          111.28395921270874      113.26886166667430       98.54941187634823
H          109.53683580743726      113.30180668611744       98.32629760687551
H          109.18912219718470      113.18217825971551      100.76264544716844
H          110.92969535223902      113.17626907976437      101.03692468198632
H          111.13550607844314      110.98013786159052       99.97087410380776
H          109.45366298885369      111.02630921442564       99.45542886692907
H          108.68310931246569      111.00412430004720      101.78811045580277
H          110.33917421566542      111.09905814600531      102.37638531002341
H          110.85580127919570      108.88736460934918      101.49573542552140
H          109.32294473829853      108.81904231659135      100.63681126772840
H          108.08755121075633      108.77814237213953      102.77213024872215
H          109.59324370532217      108.94285113671626      103.67309597906332
H          110.41248175407911      106.80946697627120      102.73139508390774
H          108.90528282954294      106.59971343362309      101.84304770746080
H          108.98415834345538      106.86132799487812      104.86657631538905
H          109.19070378316908      105.31314245865292      104.05157490091042
H          106.97027809045547      105.45964229260123      103.05379765835816
H          106.73530612533010      107.08302509474032      103.70360634350449
H          106.94183944422389      106.22163030957918      106.00365891161775
H          107.19792937338286      104.59064042731707      105.39449246631456
H          104.65470164398431      106.15347617226983      104.79847593142290
H          104.87102561349541      105.22608608129360      106.27569924964638
H          105.44420598238393      103.21972042878970      104.73424976839664
H          104.71287014655923      104.16553680617885      103.44029616055170
H          102.66879510729598      104.45262323535941      104.92775224862244
H          103.38557112989980      103.31026659447717      106.05185135671972
H          102.75033393268545      102.72438433989953      103.13229144377752
H          101.66723770962848      102.34912363167020      104.47052826198203
H          104.45443885114760      101.16990814163437      104.10966640053186
H          102.95381771567943      100.40359665974690      103.61801137194432
H          102.16821367404323      100.43544291484319      105.99716020755078
H          103.74311498653503      101.06525549535742      106.48350055339152
H          104.82911020530703       99.05757451417531      105.45572054312468
H          103.23657612918605       98.41289755160214      105.06938171677240
H          102.63188002088738       98.41257178357290      107.46743746908707
H          104.21143434001242       99.05986609540827      107.88674547917996
H          103.77278589967071       96.41052023271988      106.44669813568343
H          103.91025237624315       96.55188937268156      108.19616509140120
H          106.09759612273277       97.39203319772827      106.24733464326542
H          105.99860588060642       95.81939417157966      107.03193849890783
H          106.14174496319482       96.91078247818096      109.26005398785701
H          106.28352451061822       98.48545777470927      108.48562369918778
H          108.32727796864773       97.65514224722924      107.27149582223795
H          108.22747220934426       96.15861125262127      108.19928615475877
H          108.34401139096211       97.53965207071167      110.31501591493202
H          108.65006894299280       98.95741384564859      109.31977354343657
H          110.36611446072962       96.44649022245052      109.52149809898559
H          110.71939607317887       98.01080497166404      110.25234559741575
H          110.60327646560955       97.45533610045447      107.25554714811349
H          112.06617375555138       97.54179901270422      108.22711692504514
H          111.55129652441001       99.91473995029494      108.79307066284302
H          110.10788255607295       99.83405896469858      107.78723639275020
H          111.54826189740730       99.26630778302159      105.81159746343951
H          112.97560535360780       99.46295706861690      106.82338986531643
H          112.33659298664669      101.83502243845638      107.25965689731842
H          110.89828825593578      101.62628217508301      106.26725561194202
H          112.37419932768765      101.06109075373713      104.30912880676026
H          113.78498354775267      101.41478359302947      105.30359790237704
H          112.95634868883963      103.75064692727851      105.62864198966099
H          111.53937726558111      103.37543962170757      104.66021626975844
H          113.10772281139307      102.80065505299970      102.73362920877771
H          114.43394918019686      103.43532863911391      103.70268669919020
H          113.23796366707798      105.63698229484419      103.84927489092411
H          111.93186415372813      104.96782412223531      102.87781935666796
H          113.61923886677070      104.54255404956693      101.02682356403794
H          114.80663848907658      105.43273572226029      101.97818779313477
H          113.28778097102959      107.42234998670484      101.97687751425866
H          112.11739367140854      106.50662923665462      101.02634661148433
H          113.86309408196057      106.26057614077672       99.21672662920523
H          114.90076057193585      107.35642604187849      100.13006011782363
H          113.13027577280194      109.11110779555148      100.02027839676714
H          112.08890702892485      107.98975501538166       99.14188273865473
H          113.85261402987589      107.87717725631693       97.32827712909393
H          114.75287208072959      109.12183769768127       98.19414333409757
H          113.52028933406059      110.21954019876756       96.46244901404010
H          112.73329093512987      110.63864963607986       97.98328448913358
H          110.94339635361381      109.02319983705112       97.56090401673090
H          111.79036210791389      108.40069478138705       96.14436418725742
H          111.55847308492756      110.63813756059595       95.05251666015877
H          110.66569974395406      111.22085577520170       96.45629451058493
H          108.89872484312799      109.54206647869094       96.06839612851751
H          109.82690241748962      108.84099546132735       94.74415673674707
H          109.66389500647583      110.98084654053162       93.49035854303163
H          108.72065547550564      111.68268665597869       94.80131144656399
H          106.94098953995820      109.99681472715253       94.44697747088929
H          107.89734046672196      109.23816931585628       93.17197625731228
H          107.87483777220669      111.42332203537437       91.92371671229733
H          106.77138070500554      112.07064409293740       93.13308865326040
H          106.20473444870549      109.61986006078487       91.40483312573861
H          105.68836070794485      111.25774189709566       91.01501949223916
H          104.41141380952944      111.32094618186194       93.18637523368231
H          104.78514008244154      109.60964892931437       93.41191812884976
H          103.72936105401537      109.11167306254342       91.19919011515169
H          103.29633029859608      110.81145735673199       91.03739304212041
H          102.30379057332456      108.93125753126142       93.22496600299577
H          101.40787777545431      109.40149037692369       91.78440390983904
H          101.59032276142321      111.81624584029355       92.54778939550017
H          102.27565890344867      111.22515783444878       94.06137755813864
H          100.20961679320678      109.90173960162689       94.48348258608826
H           99.52939926851408      110.48136703635336       92.96704951107337
H           99.59952796266359      112.80735448035639       93.78949532309171
H          100.36880105030384      112.27584724278105       95.28291740917881
H           98.38738509345767      111.01986402745017       95.94053800633091
H           97.64764740218857      111.28086440308796       94.36396664847088
H           96.57162342368298      112.78400046486367       95.86438646648381
H           97.61262236272445      113.74922952182473       94.82170373146538
H           99.33478618318154      113.79058361284258       96.66114765129933
H           98.20649857037016      112.91802100333919       97.69640069699369
H           96.56258010510658      114.76898472297069       97.46381644268973
H           97.66069634805260      115.61540362161581       96.37800941661486
H           99.33330797478645      115.81337689502752       98.19721411991587
H           98.25061514310019      114.96684285516370       99.30071958961204
H           96.55770000754120      116.75590252274205       99.04254970976989
H           97.58237719440299      117.57497783525434       97.86726588305594
H           99.33486687623144      117.86304965305196       99.60766075249046
H           98.27253483809285      117.12018802183292      100.80506277547620
H           96.57189463461989      118.89445934186375      100.38703877078399
H           97.63986025231353      119.64476723628152       99.21455428039002
H           98.06603772447775      119.36601875381385      102.21881855546708
H           97.75754514199581      120.84819185084615      101.31659769403248
H          100.25099773530837      119.11385802576163      101.18446134395100
H          100.11001670382581      120.65734740793958      102.00898706269456
H           99.87716938867516      121.86791867246824       99.94684384488546
H           99.66418965262604      120.39757158926540       99.01001781455255
H          102.20753410473883      121.05777381818017      100.53465584135478
H          101.95579601546770      121.48190511116886       98.84249474650932
H          101.83601735712124      118.62676785113715       99.89754841899632
H          103.28685223288207      119.37139626987062       99.24923155360176
H          102.28428209499144      119.62160341578367       97.05686902592321
H          100.70204614999159      119.12730129560863       97.65265715060626
H          101.52289969356922      116.87813057092865       98.15326061843449
H          103.16131358463376      117.33734875420012       97.68890997722235
H          102.48909109341544      117.67358514450370       95.37666269119065
H          100.78523372682712      117.49873907390742       95.78948544721071
H          101.67752233637353      115.49038882027598       94.68108431457338
H          101.05978618488901      115.14143030269392       96.29304644993887
H          103.27420864699252      114.95260991267412       97.21037690450248
H          104.00445044700862      115.65028286410694       95.75981332644635
H          103.58677546942918      113.68264010490128       94.46990860036541
H          102.39710402328903      113.08720505738027       95.62412578552424
H          104.40200379026906      111.75624120636496       95.85984688524951
H          104.14655887005141      112.72838640188313       97.30546772808110
H          105.81048007256888      114.41531059354270       96.31452478035249
H          106.16106021174249      113.21856071593977       95.07687384699125
H          107.82688843426833      113.09994767323950       96.82226395579112
H          106.88542149266820      111.61019566315883       96.81702748797636
H          107.36918439486345      112.40535393453015       99.09648176900967
H          105.64384650053761      112.30916221078292       98.79733968918806
H          105.49340123348816      114.72999347195287       98.50214536554248
H          107.24999005748505      114.88315949451487       98.59763786143856
H          107.23535214273929      114.24508656064503      100.94642150761693
H          105.55801683608620      113.71873634900761      100.84478786564756
H          105.58706130576192      115.83678101078416      101.97274532490549
H          104.85790901082018      116.06941527353816      100.38289832705772
H          107.12992707265082      116.89809504552758       99.57005252333255
[...]
  3011   6 C     3012   6 C                                       1.5264338
  3012   6 C     3013   6 C                                       1.5272305
  3013   6 C     3014   6 C                                       1.5256660
  3014   6 C     3015   6 C                                       1.5264564
  3015   6 C     3016   6 C                                       1.5240000
  3015   6 C     3017   1 H                                       1.0919555
  3015   6 C     3018   1 H                                       1.0924307
  3014   6 C     3019   1 H                                       1.0930105
  3014   6 C     3020   1 H                                       1.0930606
  3013   6 C     3021   1 H                                       1.0928138
  3013   6 C     3022   1 H                                       1.0928365
  3012   6 C     3023   1 H                                       1.0931131
  3012   6 C     3024   1 H                                       1.0921432
  3011   6 C     3025   1 H                                       1.0918411
  3011   6 C     3026   1 H                                       1.0933968
  3010   6 C     3027   1 H                                       1.0929326
  3010   6 C     3028   1 H                                       1.0929843
  3009   6 C     3029   1 H                                       1.0915034
  3009   6 C     3030   1 H                                       1.0931169
  3008   6 C     3031   1 H                                       1.0916655
  3008   6 C     3032   1 H                                       1.0912687
  3007   6 C     3033   1 H                                       1.0933352
  3007   6 C     3034   1 H                                       1.0929453
  3006   6 C     3035   1 H                                       1.0920358
  3006   6 C     3036   1 H                                       1.0938004
  3005   6 C     3037   1 H                                       1.0932187
  3005   6 C     3038   1 H                                       1.0916122
  3004   6 C     3039   1 H                                       1.0920443
  3004   6 C     3040   1 H                                       1.0919088
  3003   6 C     3041   1 H                                       1.0927760
  3003   6 C     3042   1 H                                       1.0921545
  3002   6 C     3043   1 H                                       1.0924651
  3002   6 C     3044   1 H                                       1.0918903
  3001   6 C     3045   1 H                                       1.0919310
  3001   6 C     3046   1 H                                       1.0932266
  3000   6 C     3047   1 H                                       1.0928080
  3000   6 C     3048   1 H                                       1.0933361
  2999   6 C     3049   1 H                                       1.0937505
  2999   6 C     3050   1 H                                       1.0905008
  2998   6 C     3051   1 H                                       1.0916070
  2998   6 C     3052   1 H                                       1.0929043
  2997   6 C     3053   1 H                                       1.0921332
  2997   6 C     3054   1 H                                       1.0922282
  2996   6 C     3055   1 H                                       1.0917052
  2996   6 C     3056   1 H                                       1.0927030
  2995   6 C     3057   1 H                                       1.0924769
  2995   6 C     3058   1 H                                       1.0915124
  2994   6 C     3059   1 H                                       1.0914445
  2994   6 C     3060   1 H                                       1.0938595
  2993   6 C     3061   1 H                                       1.0930553
  2993   6 C     3062   1 H                                       1.0924666
  2992   6 C     3063   1 H                                       1.0925294
  2992   6 C     3064   1 H                                       1.0919274
  2991   6 C     3065   1 H                                       1.0916851
  2991   6 C     3066   1 H                                       1.0919267
  2990   6 C     3067   1 H                                       1.0923051
  2990   6 C     3068   1 H                                       1.0933436
  2989   6 C     3069   1 H                                       1.0930649
  2989   6 C     3070   1 H                                       1.0914613
  2988   6 C     3071   1 H                                       1.0928129
  2988   6 C     3072   1 H                                       1.0926928
  2987   6 C     3073   1 H                                       1.0933099
  2987   6 C     3074   1 H                                       1.0913993
  2986   6 C     3075   1 H                                       1.0931172
  2986   6 C     3076   1 H                                       1.0924725
  2985   6 C     3077   1 H                                       1.0934512
  2985   6 C     3078   1 H                                       1.0914664
  2984   6 C     3079   1 H                                       1.0927733
  2984   6 C     3080   1 H                                       1.0919982
  2983   6 C     3081   1 H                                       1.0933898
  2983   6 C     3082   1 H                                       1.0916285
  2982   6 C     3083   1 H                                       1.0926733
  2982   6 C     3084   1 H                                       1.0925838
  2981   6 C     3085   1 H                                       1.0935969
  2981   6 C     3086   1 H                                       1.0919496
  2980   6 C     3087   1 H                                       1.0926152
  2980   6 C     3088   1 H                                       1.0924861
  2979   6 C     3089   1 H                                       1.0934124
  2979   6 C     3090   1 H                                       1.0922014
  2978   6 C     3091   1 H                                       1.0916335
  2978   6 C     3092   1 H                                       1.0925040
  2977   6 C     3093   1 H                                       1.0940120
  2977   6 C     3094   1 H                                       1.0926384
  2976   6 C     3095   1 H                                       1.0907947
  2976   6 C     3096   1 H                                       1.0935931
  2975   6 C     3097   1 H                                       1.0930364
  2975   6 C     3098   1 H                                       1.0914643
  2974   6 C     3099   1 H                                       1.0913353
  2974   6 C     3100   1 H                                       1.0931499
  2973   6 C     3101   1 H                                       1.0925890
  2973   6 C     3102   1 H                                       1.0893337
  2972   6 C     3103   1 H                                       1.0927970
  2972   6 C     3104   1 H                                       1.0930693
  2971   6 C     3105   1 H                                       1.0930350
  2971   6 C     3106   1 H                                       1.0927639
  2970   6 C     3107   1 H                                       1.0897420
  2970   6 C     3108   1 H                                       1.0928013
  2969   6 C     3109   1 H                                       1.0927071
  2969   6 C     3110   1 H                                       1.0926340
  2968   6 C     3111   1 H                                       1.0923030
  2968   6 C     3112   1 H                                       1.0928106
  2967   6 C     3113   1 H                                       1.0929838
  2967   6 C     3114   1 H                                       1.0917731
  2966   6 C     3115   1 H                                       1.0907432
  2966   6 C     3116   1 H                                       1.0927354
  2965   6 C     3117   1 H                                       1.0931805
  2965   6 C     3118   1 H                                       1.0934036
  2964   6 C     3119   1 H                                       1.0923499
  2964   6 C     3120   1 H                                       1.0939436
  2963   6 C     3121   1 H                                       1.0927069
  2963   6 C     3122   1 H                                       1.0913072
  2962   6 C     3123   1 H                                       1.0928803
  2962   6 C     3124   1 H                                       1.0935507
  2961   6 C     3125   1 H                                       1.0933054
  2961   6 C     3126   1 H                                       1.0912302
  2960   6 C     3127   1 H                                       1.0927275
  2960   6 C     3128   1 H                                       1.0925078
  2959   6 C     3129   1 H                                       1.0917757
  2959   6 C     3130   1 H                                       1.0927540
  2958   6 C     3131   1 H                                       1.0918245
  2958   6 C     3132   1 H                                       1.0926542
  2957   6 C     3133   1 H                                       1.0935242
  2957   6 C     3134   1 H                                       1.0923935
  2956   6 C     3135   1 H                                       1.0931038
  2956   6 C     3136   1 H                                       1.0921542
  2955   6 C     3137   1 H                                       1.0933075
  2955   6 C     3138   1 H                                       1.0923805
  2954   6 C     3139   1 H                                       1.0937107
  2954   6 C     3140   1 H                                       1.0914637
  2953   6 C     3141   1 H                                       1.0921727
  2953   6 C     3142   1 H                                       1.0921996
  2952   6 C     3143   1 H                                       1.0931008
  2952   6 C     3144   1 H                                       1.0918034
  2951   6 C     3145   1 H                                       1.0927651
  2951   6 C     3146   1 H                                       1.0925253
  2950   6 C     3147   1 H                                       1.0914055
  2950   6 C     3148   1 H                                       1.0929863
  2949   6 C     3149   1 H                                       1.0939048
  2949   6 C     3150   1 H                                       1.0907889
  2948   6 C     3151   1 H                                       1.0929454
  2948   6 C     3152   1 H                                       1.0936064
  2947   6 C     3153   1 H                                       1.0916434
  2947   6 C     3154   1 H                                       1.0932193
  2946   6 C     3155   1 H                                       1.0932504
  2946   6 C     3156   1 H                                       1.0917617
  2945   6 C     3157   1 H                                       1.0930007
  2945   6 C     3158   1 H                                       1.0928492
  2944   6 C     3159   1 H                                       1.0912837
  2944   6 C     3160   1 H                                       1.0928631
  2943   6 C     3161   1 H                                       1.0931241
  2943   6 C     3162   1 H                                       1.0926369
  2942   6 C     3163   1 H                                       1.0927762
  2942   6 C     3164   1 H                                       1.0930554
  2941   6 C     3165   1 H                                       1.0927820
  2941   6 C     3166   1 H                                       1.0910185
  2940   6 C     3167   1 H                                       1.0920283
  2940   6 C     3168   1 H                                       1.0923444
  2939   6 C     3169   1 H                                       1.0930091
  2939   6 C     3170   1 H                                       1.0928037
  2938   6 C     3171   1 H                                       1.0910807
  2938   6 C     3172   1 H                                       1.0927363
  2937   6 C     3173   1 H                                       1.0934268
  2937   6 C     3174   1 H                                       1.0925365
  2936   6 C     3175   1 H                                       1.0923907
  2936   6 C     3176   1 H                                       1.0935159
  2935   6 C     3177   1 H                                       1.0926198
  2935   6 C     3178   1 H                                       1.0898714
  2934   6 C     3179   1 H                                       1.0924206
  2934   6 C     3180   1 H                                       1.0932626
  2933   6 C     3181   1 H                                       1.0924745
  2933   6 C     3182   1 H                                       1.0926736
  2932   6 C     3183   1 H                                       1.0906044
  2932   6 C     3184   1 H                                       1.0927320
  2931   6 C     3185   1 H                                       1.0923797
  2931   6 C     3186   1 H                                       1.0913478
  2930   6 C     3187   1 H                                       1.0929263
  2930   6 C     3188   1 H                                       1.0929620
  2929   6 C     3189   1 H                                       1.0930749
  2929   6 C     3190   1 H                                       1.0924151
  2928   6 C     3191   1 H                                       1.0917637
  2928   6 C     3192   1 H                                       1.0915263
  2927   6 C     3193   1 H                                       1.0932329
  2927   6 C     3194   1 H                                       1.0922293
  2926   6 C     3195   1 H                                       1.0931682
  2926   6 C     3196   1 H                                       1.0908712
  2925   6 C     3197   1 H                                       1.0907946
  2925   6 C     3198   1 H                                       1.0934107
  2924   6 C     3199   1 H                                       1.0923494
  2924   6 C     3200   1 H                                       1.0927266
  2923   6 C     3201   1 H                                       1.0923614
  2923   6 C     3202   1 H                                       1.0914479
  2922   6 C     3203   1 H                                       1.0931741
  2922   6 C     3204   1 H                                       1.0919022
  2921   6 C     3205   1 H                                       1.0930845
  2921   6 C     3206   1 H                                       1.0923295
  2920   6 C     3207   1 H                                       1.0928722
  2920   6 C     3208   1 H                                       1.0920285
  2919   6 C     3209   1 H                                       1.0933333
  2919   6 C     3210   1 H                                       1.0926065
  2918   6 C     3211   1 H                                       1.0921306
  2918   6 C     3212   1 H                                       1.0919081
  2917   6 C     3213   1 H                                       1.0934089
  2917   6 C     3214   1 H                                       1.0926951
  2916   6 C     3215   1 H                                       1.0925445
  2916   6 C     3216   1 H                                       1.0916952
  2915   6 C     3217   1 H                                       1.0934471
  2915   6 C     3218   1 H                                       1.0928499
  2914   6 C     3219   1 H                                       1.0921937
  2914   6 C     3220   1 H                                       1.0915833
  2913   6 C     3221   1 H                                       1.0935215
  2913   6 C     3222   1 H                                       1.0924073
  2912   6 C     3223   1 H                                       1.0912015
  2912   6 C     3224   1 H                                       1.0920996
  2911   6 C     3225   1 H                                       1.0936434
  2911   6 C     3226   1 H                                       1.0907481
  2910   6 C     3227   1 H                                       1.0931609
  2910   6 C     3228   1 H                                       1.0934943
  2909   6 C     3229   1 H                                       1.0917721
  2909   6 C     3230   1 H                                       1.0938463
  2908   6 C     3231   1 H                                       1.0921843
  2908   6 C     3232   1 H                                       1.0910463
  2907   6 C     3233   1 H                                       1.0925502
  2907   6 C     3234   1 H                                       1.0931101
  2906   6 C     3235   1 H                                       1.0924310
  2906   6 C     3236   1 H                                       1.0929142
  2905   6 C     3237   1 H                                       1.0933772
  2905   6 C     3238   1 H                                       1.0928127
  2904   6 C     3239   1 H                                       1.0922214
  2904   6 C     3240   1 H                                       1.0929172
  2903   6 C     3241   1 H                                       1.0929391
  2903   6 C     3242   1 H                                       1.0925902
  2902   6 C     3243   1 H                                       1.0926358
  2902   6 C     3244   1 H                                       1.0914078
  2901   6 C     3245   1 H                                       1.0926132
  2901   6 C     3246   1 H                                       1.0931165
  2900   6 C     3247   1 H                                       1.0937841
  2900   6 C     3248   1 H                                       1.0928718
  2899   6 C     3249   1 H                                       1.0914487
  2899   6 C     3250   1 H                                       1.0918960
  2898   6 C     3251   1 H                                       1.0928298
  2898   6 C     3252   1 H                                       1.0924475
  2897   6 C     3253   1 H                                       1.0874514
  2897   6 C     3254   1 H                                       1.0881550
  2897   6 C     3255   1 H                                       1.0879572
  3016   6 C     3256   1 H                                       1.0876947
  3016   6 C     3257   1 H                                       1.0877679
  3016   6 C     3258   1 H                                       1.0880893

 * 2 distinct bonds (by element types)

   Z      Z             #   av. dist./Å        max./Å        min./Å
   1 H    6 C        2178     1.0922975     1.0943328     1.0867309
   6 C    6 C        1071     1.5274462     1.5348936     1.5228729


optimized geometry written to: xtbopt.xyz


           -------------------------------------------------
          | TOTAL ENERGY            -3427.579145335937 Eh   |
          | GRADIENT NORM               0.000915463181 Eh/α |
          | HOMO-LUMO GAP              11.437663181626 eV   |
           -------------------------------------------------

------------------------------------------------------------------------
 * finished run on 2024/10/04 at 08:42:34.322     
------------------------------------------------------------------------
 total:
 * wall-time:     0 d,  5 h, 57 min, 40.152 sec
 *  cpu-time:     1 d,  6 h, 25 min, 12.172 sec
 * ratio c/w:     5.103 speedup
 SCF:
 * wall-time:     0 d,  0 h, 14 min, 15.495 sec
 *  cpu-time:     0 d,  1 h, 29 min,  5.616 sec
 * ratio c/w:     6.249 speedup
 ANC optimizer:
 * wall-time:     0 d,  5 h, 42 min, 42.546 sec
 *  cpu-time:     1 d,  4 h, 55 min,  8.748 sec
 * ratio c/w:     5.063 speedup

