3258
 energy: -3427.568666245249 gnorm: 0.000718452146 xtb: 6.6.1 (8d0f1dd)
C          110.28376538198330      102.11779801162378      102.15496058062597
C          109.60412297426394      102.43907774201077      100.83020281681077
C          108.40271491717903      101.53895673110631      100.53833344851090
C          107.20920274152122      101.80025344514402      101.45496173233551
C          105.98614176349491      100.98539469066579      101.03823128506600
C          104.73710114836560      101.38143467892809      101.82037869984887
C          103.52004264584941      100.53531570760137      101.44690721251054
C          102.20861198211300      101.17013809397690      101.91896034219272
C          101.69921259875112      102.23388232106002      100.94770293424813
C          100.53861331082616      103.03488158359595      101.53231196747528
C           99.85487731129584      103.95231713471163      100.51700184593240
C          100.81032049528578      104.90652379883976       99.80105836979780
C          100.04814602409108      105.94514900087016       98.97803239685364
C          100.92103948338234      106.67321794118757       97.95615666589688
C          101.95436974919387      107.61793012909952       98.56640926249936
C          102.86216956838543      108.20348883782992       97.48689469183394
C          103.87331101028212      109.21201022583186       98.02706385126015
C          104.86668403918810      109.62473408804253       96.94383424920969
C          105.77956671934275      110.77654276291653       97.35676378965593
C          106.76186161836613      111.14135029776025       96.24438096638234
C          107.55057896372803      112.42192993811858       96.51777872410636
C          108.60777336736754      112.27994477830981       97.60894346085828
C          109.41069923603587      113.57143691834193       97.77873735981397
C          110.14637924640174      113.67369480199804       99.11517629058865
C          111.21818330693416      112.60586880952141       99.31518291764040
C          111.86525919887767      112.70379047807999      100.69504544274882
C          113.00437432422049      111.70304216076656      100.87277054842568
C          113.54800037674528      111.68979962978332      102.29888364870028
C          114.77915685095702      110.79844669453573      102.44516885330553
C          115.21912641979867      110.66309150423291      103.90026287122554
C          116.57212582019828      109.97260864499120      104.04949643666819
C          116.98558513569563      109.84929325617823      105.51426194948212
C          118.42546094722664      109.37019566453274      105.68284756889348
C          118.89795344713542      109.37153850329982      107.13883005195798
C          119.12858723257931      110.78311235459687      107.67439483400362
C          119.53746291355010      110.82156875218273      109.14512064347382
C          119.68075061267510      112.25916190741002      109.64315052624612
C          119.87149069829297      112.34514361802358      111.15444822761401
C          120.11896624479756      113.77034212730931      111.65325113806985
C          119.00657647778625      114.74780520264264      111.27349253866944
C          119.06138138089365      116.03795692604848      112.08993732550213
C          117.89764315869941      116.98707771970834      111.79490765934339
C          117.94297032018461      117.55775388784301      110.38063576899779
C          116.91218262635138      118.65631824760955      110.13671985115528
C          116.96289720064198      119.14924703897130      108.69258413027683
C          115.96212782430428      120.26473865373592      108.41058558060992
C          115.98221654385776      120.69095222464829      106.94401854814126
C          114.99128842161765      121.81479552262491      106.65451948514023
C          114.87973889249336      122.13555604969258      105.16632797850436
C          113.83100243244502      123.21149286062246      104.89690566138069
C          113.61401766824949      123.45965219389022      103.40650340724088
C          112.50735547302396      124.47952328247244      103.15165151263496
C          112.22681669009684      124.67669350890719      101.66451124007102
C          111.10627734284186      125.68489908680282      101.42530999529050
C          110.81489769648775      125.89104231810929       99.94119227415912
C          109.76213169155250      126.97292719327129       99.71229942530579
C          109.53417445965208      127.25182493584269       98.22756841632733
C          108.66415680299350      128.48557380626929       97.97732264772326
C          107.17341486838563      128.23049518161869       98.20478946726568
C          106.34895648961056      129.52342994507791       98.27922406984112
C          105.98681062081484      129.93817714903520       99.70751611870467
C          107.19800440132386      130.15672624377535      100.61027302007957
C          106.79649104444793      130.61313930688698      102.01177928087796
C          107.97848102900457      130.64089974378700      102.98440884132134
C          108.37874875337958      129.24839362516602      103.46786739244504
C          109.56310102758931      129.28310368996736      104.43132342078353
C          109.84455977024876      127.90566319076108      105.02580621153091
C          111.03384725969178      127.90410944636143      105.98252429918345
C          111.20359126144785      126.54919113101950      106.66492398619712
C          112.39275484637854      126.51623603102665      107.62021172870742
C          112.51108416072759      125.17199887919675      108.33403244763474
C          113.72172541656771      125.11613790572338      109.26152369267123
C          113.85547789797585      123.75557425284406      109.94053862089527
C          115.04265598233253      123.66435738092933      110.89814734599243
C          116.39682343815858      123.88175401295001      110.22347416566529
C          117.55013221045616      123.47590197809934      111.13745519912214
C          118.91278539037178      123.69012422215549      110.48232812506996
C          120.08225985981846      123.24037777920834      111.36046554012150
C          120.19996658577966      124.05432901715332      112.64624017865744
C          121.45367790012122      123.72058950001333      113.45289675684717
C          121.43114126214783      124.39854065606630      114.82623648990374
C          120.55248938744519      123.64789711300941      115.83138749322491
C          119.99349724053208      124.53773796997861      116.94296252871996
C          118.88120676630288      125.48892087834497      116.49144669505709
C          117.63385437832618      124.76537681969455      115.98715772137669
C          116.44944351304856      125.70874317602907      115.78803115627601
C          115.24607672316350      124.97467087478549      115.19717650681396
C          113.95699850935827      125.78975672454123      115.27248396847449
C          112.75457208903602      125.01669774666880      114.73399719072376
C          111.44342432443734      125.77385365850273      114.93616821298673
C          110.24861699113174      125.02144419857491      114.35515489466459
C          108.93137091023293      125.77083371429875      114.55240645186694
C          107.77425702025795      125.06678428087474      113.84863821691802
C          106.44934786091918      125.82124123394249      113.95198280546448
C          105.38463899618841      125.17077273407813      113.07055568188845
C          103.99604807381834      125.78191825736958      113.24157376941012
C          102.96286563863016      125.19073135235317      112.27727446027325
C          102.72147109027139      123.70102773610196      112.51018149734220
C          101.55873147906033      123.13650610414598      111.69459449848182
C          101.41433710009359      121.63384338935151      111.92803765419670
C          100.21318511295513      121.01111162768667      111.22141038053320
C          100.14273299072936      119.50990835111271      111.49388079490478
C           98.90899712055428      118.84278002101875      110.89164697934692
C           98.85673457672273      117.35587304726594      111.23415360061558
C           97.59806187816957      116.66799989680936      110.71226855047625
C           97.58002843251838      115.18698959264270      111.07849902027635
C           96.35754952179354      114.43975685178157      110.54697639873925
C           96.44735772595507      112.95362970244709      110.88332451649647
C           95.26268110165368      112.12547567253013      110.39323886401058
C           95.42830184706455      110.65756493194206      110.78676374966848
C           94.27367005802994      109.77776609194424      110.31439005312285
C           94.33319681876863      108.35320742487407      110.87143053203280
C           95.47589364568864      107.51631165130668      110.29924872362366
C           95.48432441239149      106.09451904103098      110.86000967019153
C           96.59364645489468      105.24594612902641      110.24267717351161
C           96.62359250492423      103.81687024022487      110.78174733548390
C           97.70090620484359      102.98158535727609      110.09292018222050
C           97.78305402643097      101.55222031977618      110.62223476344863
C           98.87209889363766      100.74937861462007      109.91275984653393
C           98.97858480665991       99.32553346743282      110.44431535962943
H           98.65759442068396      100.71989108657377      108.84170881590518
H           99.83254853831369      101.25568033381275      110.04106957267295
H           97.99020532964090      101.57156856663123      111.69554170095770
H           96.81905644126697      101.05587479797420      110.48359008586112
H           97.49730516725329      102.95103076417246      109.01926814317007
H           98.67009457525471      103.46778009336059      110.23036818485117
H           96.81093223726057      103.83677132922263      111.85864691711305
H           95.64770233127452      103.34860254231424      110.62782320690566
H           96.45332391749935      105.21194595803151      109.15906666615831
H           97.55784747821723      105.72223493626643      110.43510374478983
H           95.61696931855475      106.13316198309748      111.94453568946803
H           94.51730042588221      105.62173584444325      110.66651081845311
H           95.37354590275531      107.47004833463185      109.21203115256928
H           96.43178789765908      107.99096183018889      110.52601574046274
H           94.42805328290646      108.39808673287608      111.95975888412433
H           93.38772347601152      107.85044268919982      110.64835439213370
H           93.33171232605642      110.23485173610584      110.62998172720852
H           94.26770423968495      109.73607260403908      109.22296996665987
H           96.36543132510326      110.28477367001675      110.37029331378938
H           95.50044024623384      110.59175642359246      111.87521677402098
H           94.33708865095163      112.51696025739373      110.82428027024373
H           95.18244986756767      112.20883293896799      109.30681221995448
H           97.36150317262687      112.54884788891717      110.44168750024068
H           96.53062473664554      112.84264335568868      111.96543684996372
H           95.44857550568794      114.86305150898656      110.98246344615409
H           96.28636710665663      114.56502221623583      109.46321068377424
H           98.48287512780338      114.71722638134086      110.68379396686387
H           97.61110328646218      115.08732374540946      112.16576757874908
H           96.71371329004860      117.15950825603477      111.12628176299287
H           97.55656186083776      116.77404547482126      109.62625655389165
H           99.73555506915248      116.86105108326475      110.81348660127674
H           98.90415714078378      117.23827226694516      112.31976824186927
H           98.00932742014032      119.33494452064031      111.27061778823342
H           98.91739117917361      118.96758147890208      109.80542110262137
H          101.04157099978165      119.03132380366105      111.09723955580124
H          100.13930154880282      119.34762723367668      112.57523723888475
H           99.29562253038539      121.49102042810594      111.57152911729278
H          100.28613035603236      121.18713003007947      110.14523725985740
H          102.32374879164294      121.13203277194276      111.58803818467401
H          101.32018684346269      121.45164404776295      113.00264692298548
H          100.63178630376161      123.64244052812802      111.97712037522581
H          101.72515822978588      123.32922515065255      110.63183577352572
H          103.62669433432967      123.14579790671496      112.25823629781303
H          102.51796621933055      123.54108497958181      113.57189274598144
H          102.01904245118800      125.72853615192652      112.40239504106941
H          103.29555655516974      125.35031363095544      111.24833046894331
H          103.65412090383738      125.63103348097266      114.26914822396670
H          104.05862016625555      126.86072061110809      113.07325784633586
H          105.68613480091129      125.27276687965201      112.02762988540530
H          105.34484573099161      124.10611800164190      113.30525588964784
H          106.11437366188062      125.83160847945513      114.99227085777706
H          106.59372142636100      126.86028674503935      113.64450219655411
H          108.02895801209104      124.94936044387714      112.79260018917992
H          107.64956892281322      124.06697107253035      114.27059723162168
H          108.71562243208027      125.85650771793676      115.61992055784782
H          109.03132442094289      126.78407527109110      114.15367309270286
H          110.41351475222713      124.86518486440600      113.28594965634879
H          110.17772255380098      124.03690062066053      114.82315100276010
H          111.28289025410997      125.93880123256221      116.00450972652594
H          111.51654558180532      126.75564220329026      114.46067488947580
H          112.89862991920563      124.81802389820358      113.66897719831611
H          112.69120890001827      124.05108737536774      115.24104929629962
H          113.76554218219361      126.06254595938948      116.31368121390271
H          114.07673652478246      126.71908287055416      114.70944185707130
H          115.45382191395002      124.71625145191467      114.15597036159049
H          115.10556156752183      124.03777387721567      115.74041109773221
H          116.17454527677346      126.14384708665580      116.75246061063683
H          116.73914254316327      126.53182978211562      115.12992476172344
H          117.84849035821159      124.27369167840308      115.03755482178005
H          117.35205041888081      123.99083199916598      116.70447508241054
H          118.60321885933925      126.11493180557686      117.34368553514848
H          119.25253453897130      126.15445266031359      115.70949646675466
H          119.59612319728819      123.89745374018861      117.73468092073384
H          120.80891503882133      125.12472011335521      117.37361027181971
H          119.71961867686176      123.17485547041223      115.31324606794588
H          121.14190350404758      122.84667422086611      116.28411061248309
H          122.44736476454992      124.46658013588316      115.22131755646492
H          121.06560210816619      125.41918307824348      114.70094050896755
H          121.53219534955353      122.63852374860204      113.58318089820422
H          122.33436720277116      124.04844663423307      112.89525788539395
H          120.21151635081927      125.11904364266323      112.39819572650966
H          119.32228603069321      123.87040268920718      113.26545824283595
H          119.96116134193876      122.18416140274296      111.61230300719566
H          121.00959451116300      123.34025375338696      110.78973067937578
H          118.94302020560649      123.13209497068311      109.54267188899684
H          119.03440701891876      124.74888573448982      110.23810187226026
H          117.48716778771669      124.06280128483722      112.05565075890742
H          117.44619655413082      122.42202493521688      111.40578106992123
H          116.44281595697235      123.29554603565722      109.30270462958934
H          116.51311237724208      124.93273852884835      109.95041555105676
H          114.92004768478374      124.39734565298204      111.70038368976931
H          115.03654038877130      122.67162390306747      111.35428610027169
H          112.93906610666154      123.54676375717412      110.49936899907722
H          113.95557757702574      122.98330212522031      109.17528968637924
H          114.62005203651377      125.32348127449188      108.67655500359440
H          113.63522524115061      125.89655293955470      110.02229813979743
H          111.60109846923690      124.99013130971321      108.91172046346634
H          112.59645169232664      124.37818436771472      107.58827063742295
H          113.31164010166138      126.71204652814231      107.06107994156714
H          112.28547236933703      127.31246755879134      108.36174750674307
H          110.29313204738702      126.31732571108087      107.22382096206087
H          111.33174258049468      125.77566012570986      105.90449506639015
H          111.94537269775537      128.15497780211518      105.43389297337529
H          110.88760611505938      128.67568773456148      106.74337439239923
H          108.95685100030347      127.56874998347857      105.56606857878255
H          110.02933750253329      127.19220404830415      104.21951258791124
H          110.45072787757603      129.64608018204115      103.90674305651730
H          109.35105013534887      129.98712229205907      105.24058524975894
H          107.52376064409228      128.79129291728051      103.97126060320035
H          108.63580063354230      128.61656096778546      102.61565829499845
H          108.83308759885286      131.12256348232810      102.50247812394326
H          107.71020142466402      131.24597390000920      103.85443690080255
H          106.35813326951259      131.61225355015344      101.94662945633509
H          106.02765769705763      129.94390254568802      102.40517665475224
H          107.75915334696744      129.22615882905376      100.68608154342138
H          107.85319627705675      130.90912726667247      100.16358083542994
H          105.39907404054276      130.85959517744175       99.66773982596990
H          105.35029988211805      129.16697494118532      100.14934142951508
H          106.89991730411141      130.33392299489620       97.79633678981961
H          105.41679849320811      129.39289772548818       97.72431631720741
H          106.80551814998981      127.61202977005389       97.38433140645139
H          107.03181954251721      127.66150601521387       99.12345899995657
H          109.00684858014884      129.29404589054883       98.62542728728110
H          108.80398150563988      128.81968950482141       96.94523766471835
H          110.50776122492088      127.40899853062989       97.75506213243375
H          109.07624920296207      126.38029552802924       97.75585580440649
H          108.82588492877436      126.66590610262955      100.18310836107179
H          110.09419845896464      127.89460711900368      100.19925239614648
H          111.73900177692975      126.17696853797889       99.43134306140755
H          110.47510542741767      124.95074757303691       99.50218541895853
H          110.19748805140870      125.34109572948262      101.92662323314288
H          111.38560216751091      126.64329827934604      101.87270224517215
H          113.13625114883152      125.02355595097163      101.16658004472966
H          111.95273400474052      123.71827333526878      101.21858412543180
H          111.59027859612429      124.14365323066318      103.64331717384574
H          112.78611498827654      125.43750660043290      103.59940849982539
H          114.54490557633437      123.81412719918742      102.95595529547178
H          113.35207436032931      122.51747563253323      102.91917298397610
H          112.88424992815447      122.90079381826415      105.34658641633716
H          114.13213843868741      124.14403903007560      105.38168387502293
H          115.85033635012967      122.46707481075346      104.78848117017500
H          114.60980247125883      121.22796367934752      104.62023339578444
H          114.00670424522446      121.52309797287251      107.02906442618038
H          115.29451802660630      122.71669441684156      107.19245052497894
H          116.99040054558773      121.01278443775108      106.67011671448098
H          115.73652275245158      119.82884897893338      106.31766031272839
H          114.95789654378984      119.92422009201609      108.67240450023178
H          116.19281896446898      121.12298157476388      109.04487126037057
H          117.97165642470485      119.50592398387683      108.46876956912745
H          116.75730246581539      118.31006436957152      108.02198805838326
H          115.91220120484593      118.27820654606936      110.35841332815173
H          117.10660759485205      119.49473757464287      110.81124587298541
H          118.93817374538240      117.96863488554013      110.19849766463649
H          117.77377375146681      116.75417203355811      109.66053836830113
H          116.95430783361303      116.45824193412786      111.94425777711797
H          117.92783442450845      117.81269577843101      112.50961382078718
H          119.04245038473643      115.78660143823679      113.15439148682620
H          120.00822256203850      116.55103425140932      111.89653609689412
H          119.08219567589020      114.98569603011669      110.21209158013905
H          118.03798314105252      114.27079938575932      111.43944754563975
H          120.20876192939875      113.73866944921332      112.74208121189935
H          121.07057294929488      114.13459289162243      111.25699225520489
H          118.98308748440166      111.94396849787903      111.64893148946605
H          120.71799853993328      111.71731644217104      111.44769126498012
H          120.52551479128158      112.73830203871154      109.14178804488577
H          118.77871967098129      112.80979511649878      109.37167303287673
H          118.77580402469484      110.31514915421847      109.74142178573854
H          120.47947213166236      110.28513415421743      109.28442710946662
H          119.90167070328128      111.26939792389909      107.07179181042750
H          118.20941395092954      111.36087884697594      107.56297007658736
H          118.16188599562260      108.85371378534695      107.75757179394563
H          119.83191383871905      108.80814787906934      107.21210769086601
H          118.51411167163761      108.35904926672831      105.27712817946525
H          119.08386421301373      110.01999082893406      105.10040988321495
H          116.88069496980179      110.83044949989110      105.98009563464157
H          116.30936745975978      109.16242307541860      106.02850797282805
H          116.53391318953693      108.98147096064227      103.59035233810619
H          117.32433583695428      110.55679526346265      103.51413660201418
H          115.28786865270607      111.66136657512011      104.33940079524749
H          114.46164736519991      110.10996480021281      104.45974864288375
H          114.56188282393154      109.80715893801809      102.03762162591487
H          115.59787739666251      111.22234160929585      101.85875628835360
H          113.81124335641525      112.70968701682696      102.58967890966980
H          112.76660265293887      111.34398139139813      102.97884550374864
H          112.64731822903865      110.70115695326383      100.61569375554781
H          113.81191309457010      111.94993054146879      100.17930646754621
H          112.24927213587883      113.71557135161969      100.84259381250978
H          111.10630147606686      112.52734198910120      101.46073441483016
H          110.77313317153674      111.61469315842855       99.20087294367249
H          111.98451975545299      112.71226328839619       98.54350363353780
H          110.61388514766372      114.65927315469293       99.18263843111428
H          109.41955198883663      113.60755821465256       99.92837657875246
H          110.12779806617374      113.66004373064845       96.95912142990345
H          108.72522979180918      114.41996115029379       97.70362901402206
H          108.11500694398833      112.03344270080116       98.54937791089696
H          109.27840712078176      111.45685080489801       97.35464726742313
H          108.04391602098040      112.73333628229271       95.59395124342853
H          106.85113080370378      113.21133275271316       96.80394882204875
H          107.45707406199178      110.31299089385936       96.08647731647289
H          106.19688046482769      111.27710330334172       95.31716880413514
H          105.16579728000721      111.65055601239644       97.58969611668265
H          106.33012765732997      110.50114427940402       98.25789963699458
H          105.47613934020825      108.75727713840109       96.67868282788346
H          104.30782040213411      109.92006465875227       96.05170518888862
H          103.34226150563599      110.09296177014893       98.39605702218290
H          104.41322115376266      108.77197808415792       98.86848486072100
H          103.40064214725648      107.38832872432977       96.99568256078142
H          102.24641625271113      108.68995955123341       96.72503047602756
H          101.44127500923265      108.42521153591065       99.09500643578636
H          102.56537704201537      107.07919243073532       99.29343929138152
H          101.43588779298905      105.93128434073900       97.33934045072783
H          100.27173230544309      107.24872015790181       97.29149662275466
H           99.24467953336517      105.43664674189768       98.43759566566708
H           99.58172693273659      106.67365567404431       99.64590872023217
H          101.44249780682712      105.40675967366583      100.53676181235075
H          101.45919709262213      104.33566049528075       99.13485883060534
H           99.34131942062162      103.34206692479171       99.76888376815856
H           99.09338391005417      104.53783317751869      101.03965354931853
H           99.79045879128853      102.34198567252348      101.92858463468428
H          100.90868598179701      103.63176536509232      102.36743027340539
H          102.51518091797676      102.91517457355833      100.70359146278898
H          101.37948596369652      101.74897176863973      100.02131958037678
H          101.44268263655167      100.39772891819216      102.02785237806184
H          102.36567270397875      101.62332213470475      102.90057174281800
H          103.48265419386117      100.40579138209580      100.36214679219876
H          103.63022989439121       99.54186008421699      101.88804841641392
H          104.92851051150942      101.28120772423155      102.89075825426166
H          104.52087451068145      102.43357035957855      101.62442070951681
H          105.79814499980573      101.13914656239673       99.97227852507284
H          106.18904921495343       99.92153821116898      101.18570334289974
H          107.46771744614257      101.55220649303563      102.48581928539799
H          106.96128804929863      102.86354701143584      101.41917363584015
H          108.08752507588126      101.70360174671788       99.50396880738982
H          108.70516223455209      100.49202300424378      100.62274303310234
H          109.27768258510169      103.48174218957192      100.83341248077454
H          110.33178567337660      102.32334109313689      100.02250876880593
H          111.16702062142275      102.73791493688903      102.28922952870386
H          109.61179625335727      102.30255967768726      102.98792255362376
H          110.59059713719971      101.07406828731800      102.18244868178148
H           98.04193587644713       98.79145657143447      110.29808926929053
H           99.76732845579156       98.78277909719149      109.92753448595505
H           99.20504248997712       99.32903325156194      111.50868870945330
C          117.49143190541905      112.53044335609037      125.74363916601534
C          118.94694000487226      112.94086125827592      125.92473468535084
C          119.88835109968875      111.73854194582627      125.93230710553510
C          121.33834860441792      112.15947050055483      126.16311707479763
C          122.31934434003570      110.98620447265128      126.21810103127078
C          122.58309378708742      110.35550242294208      124.85288212650808
C          123.61291757123065      109.22941773548797      124.92460045056932
C          123.88799873048511      108.61985803940942      123.55144995345071
C          124.92844423452588      107.50314886928584      123.60630691589364
C          125.04339864303384      106.72169453415368      122.29608400359272
C          125.47289726817476      107.58341923837433      121.11228979323694
C          125.71825918422817      106.76385953196932      119.84671098811485
C          126.09267144606287      107.67218691240228      118.68010525047940
C          126.30580746202280      106.93469274917102      117.36092317168153
C          126.64470230805831      107.92101796660586      116.24642231952207
C          126.78437299091553      107.27495837186970      114.87124090825901
C          127.08738226392549      108.32853040341502      113.80907598803340
C          127.16888127453568      107.76012483564975      112.39532525825436
C          127.39101463305256      108.87025664552347      111.37139621839032
C          127.47882982589874      108.35796245976003      109.93627147718352
C          127.51980670736741      109.51804682395037      108.94496473413467