      -----------------------------------------------------------      
     |                   =====================                   |     
     |                           x T B                           |     
     |                   =====================                   |     
     |                         S. Grimme                         |     
     |          Mulliken Center for Theoretical Chemistry        |     
     |                    University of Bonn                     |     
      -----------------------------------------------------------      

   * xtb version 6.6.1 (8d0f1dd) compiled by 'stahn@M-Bot' on 2023-08-01

   xtb is free software: you can redistribute it and/or modify it under
   the terms of the GNU Lesser General Public License as published by
   the Free Software Foundation, either version 3 of the License, or
   (at your option) any later version.
   
   xtb is distributed in the hope that it will be useful,
   but WITHOUT ANY WARRANTY; without even the implied warranty of
   MERCHANTABILITY or FITNESS FOR A PARTICULAR PURPOSE.  See the
   GNU Lesser General Public License for more details.
   
   Cite this work as:
   * C. Bannwarth, E. Caldeweyher, S. Ehlert, A. Hansen, P. Pracht,
     J. Seibert, S. Spicher, S. Grimme, WIREs Comput. Mol. Sci., 2020, 11,
     e01493. DOI: 10.1002/wcms.1493
   
   for GFN2-xTB:
   * C. Bannwarth, S. Ehlert and S. Grimme., J. Chem. Theory Comput., 2019,
     15, 1652-1671. DOI: 10.1021/acs.jctc.8b01176
   for GFN1-xTB:
   * S. Grimme, C. Bannwarth, P. Shushkov, J. Chem. Theory Comput., 2017,
     13, 1989-2009. DOI: 10.1021/acs.jctc.7b00118
   for GFN0-xTB:
   * P. Pracht, E. Caldeweyher, S. Ehlert, S. Grimme, ChemRxiv, 2019, preprint.
     DOI: 10.26434/chemrxiv.8326202.v1
   for GFN-FF:
   * S. Spicher and S. Grimme, Angew. Chem. Int. Ed., 2020, 59, 15665-15673.
     DOI: 10.1002/anie.202004239
   
   for ALPB and GBSA implicit solvation:
   * S. Ehlert, M. Stahn, S. Spicher, S. Grimme, J. Chem. Theory Comput.,
     2021, 17, 4250-4261. DOI: 10.1021/acs.jctc.1c00471
   
   for DFT-D4:
   * E. Caldeweyher, C. Bannwarth and S. Grimme, J. Chem. Phys., 2017,
     147, 034112. DOI: 10.1063/1.4993215
   * E. Caldeweyher, S. Ehlert, A. Hansen, H. Neugebauer, S. Spicher,
     C. Bannwarth and S. Grimme, J. Chem. Phys., 2019, 150, 154122.
     DOI: 10.1063/1.5090222
   * E. Caldeweyher, J.-M. Mewes, S. Ehlert and S. Grimme, Phys. Chem. Chem. Phys.
     2020, 22, 8499-8512. DOI: 10.1039/D0CP00502A
   
   for sTDA-xTB:
   * S. Grimme and C. Bannwarth, J. Chem. Phys., 2016, 145, 054103.
     DOI: 10.1063/1.4959605
   
   in the mass-spec context:
   * V. Asgeirsson, C. Bauer and S. Grimme, Chem. Sci., 2017, 8, 4879.
     DOI: 10.1039/c7sc00601b
   * J. Koopman and S. Grimme, ACS Omega 2019, 4, 12, 15120-15133.
     DOI: 10.1021/acsomega.9b02011
   
   for metadynamics refer to:
   * S. Grimme, J. Chem. Theory Comput., 2019, 155, 2847-2862
     DOI: 10.1021/acs.jctc.9b00143
   
   for SPH calculations refer to:
   * S. Spicher and S. Grimme, J. Chem. Theory Comput., 2021, 17, 1701-1714
     DOI: 10.1021/acs.jctc.0c01306
   
   with help from (in alphabetical order)
   P. Atkinson, C. Bannwarth, F. Bohle, G. Brandenburg, E. Caldeweyher
   M. Checinski, S. Dohm, S. Ehlert, S. Ehrlich, I. Gerasimov, C. Hölzer
   A. Katbashev, J. Koopman, C. Lavigne, S. Lehtola, F. März, M. Müller,
   F. Musil, H. Neugebauer, J. Pisarek, C. Plett, P. Pracht, F. Pultar,
   J. Seibert, P. Shushkov, S. Spicher, M. Stahn, M. Steiner, T. Strunk,
   J. Stückrath, T. Rose, and J. Unsleber
   
 * started run on 2024/06/17 at 15:18:47.447     

           -------------------------------------------------
          |                Calculation Setup                |
           -------------------------------------------------

          program call               : /home/abt-grimme/AK-bin/xtb input.xyz --input input.inp --opt --gbsa water
          hostname                   : boar006.thch.uni-bonn.de
          coordinate file            : input.xyz
          omp threads                :                     8

   ID    Z sym.   atoms
    1    6 C      1-120, 363-482, 725-844, 1087-1206, 1449-1568, 1811-1930,
                  2173-2292, 2535-2654, 2897-3016
    2    1 H      121-362, 483-724, 845-1086, 1207-1448, 1569-1810,
                  1931-2172, 2293-2534, 2655-2896, 3017-3258

molecular fragmentation (1/2 indicates fragments):
111111111111111111111111111111111111111111111111111111111111111111111111
111111111111111111111111111111111111111111111111111111111111111111111111
111111111111111111111111111111111111111111111111111111111111111111111111
111111111111111111111111111111111111111111111111111111111111111111111111
111111111111111111111111111111111111111111111111111111111111111111111111
112222222222222222222222222222222222222222222222222222222222222222222222
222222222222222222222222222222222222222222222222222222222222222222222222
222222222222222222222222222222222222222222222222222222222222222222222222
222222222222222222222222222222222222222222222222222222222222222222222222
222222222222222222222222222222222222222222222222222222222222222222222222
222222222222222222222222222222222222222222222222222222222222222222222222
222222222222222222222222222222222222222222222222222222222222222222222222
222222222222222222222222222222222222222222222222222222222222222222222222
222222222222222222222222222222222222222222222222222222222222222222222222
222222222222222222222222222222222222222222222222222222222222222222222222
222222222222222222222222222222222222222222222222222222222222222222222222
222222222222222222222222222222222222222222222222222222222222222222222222
222222222222222222222222222222222222222222222222222222222222222222222222
222222222222222222222222222222222222222222222222222222222222222222222222
222222222222222222222222222222222222222222222222222222222222222222222222
222222222222222222222222222222222222222222222222222222222222222222222222
222222222222222222222222222222222222222222222222222222222222222222222222
222222222222222222222222222222222222222222222222222222222222222222222222
222222222222222222222222222222222222222222222222222222222222222222222222
222222222222222222222222222222222222222222222222222222222222222222222222
222222222222222222222222222222222222222222222222222222222222222222222222
222222222222222222222222222222222222222222222222222222222222222222222222
222222222222222222222222222222222222222222222222222222222222222222222222
222222222222222222222222222222222222222222222222222222222222222222222222
222222222222222222222222222222222222222222222222222222222222222222222222
222222222222222222222222222222222222222222222222222222222222222222222222
222222222222222222222222222222222222222222222222222222222222222222222222
222222222222222222222222222222222222222222222222222222222222222222222222
222222222222222222222222222222222222222222222222222222222222222222222222
222222222222222222222222222222222222222222222222222222222222222222222222
222222222222222222222222222222222222222222222222222222222222222222222222
222222222222222222222222222222222222222222222222222222222222222222222222
222222222222222222222222222222222222222222222222222222222222222222222222
222222222222222222222222222222222222222222222222222222222222222222222222
222222222222222222222222222222222222222222222222222222222222222222222222
222222222222222222222222222222222222222222222222222222222222222222222222
222222222222222222222222222222222222222222222222222222222222222222222222
222222222222222222222222222222222222222222222222222222222222222222222222
222222222222222222222222222222222222222222222222222222222222222222222222
222222222222222222222222222222222222222222222222222222222222222222222222
222222222222222222
# atoms in fragment 1/2:   362  2896
 fragment masses (1/2) :     1685.21    13481.68
CMA distance (Bohr)    :  13.409
constraining FC (au)   :  0.0500

           -------------------------------------------------
          |                 G F N 2 - x T B                 |
           -------------------------------------------------

        Reference                      10.1021/acs.jctc.8b01176
      * Hamiltonian:
        H0-scaling (s, p, d)           1.850000    2.230000    2.230000
        zeta-weighting                 0.500000
      * Dispersion:
        s8                             2.700000
        a1                             0.520000
        a2                             5.000000
        s9                             5.000000
      * Repulsion:
        kExp                           1.500000    1.000000
        rExp                           1.000000
      * Coulomb:
        alpha                          2.000000
        third order                    shell-resolved
        anisotropic                    true
        a3                             3.000000
        a5                             4.000000
        cn-shift                       1.200000
        cn-exp                         4.000000
        max-rad                        5.000000

      * Solvation model:               GBSA
        Solvent                        water
        Parameter file                 internal GFN2-xTB/GBSA
        Dielectric constant                8.0200E+01
        Reference state                gsolv [1 M gas/solution]
        Free energy shift                  1.8574E-03 Eh       1.1656E+00 kcal/mol
        Temperature                        2.9815E+02 K
        Density                            1.0000E+00 kg/L
        Solvent mass                       1.8000E+01 g/mol
        Interaction kernel             Still
        Born radius scaling (c1)           1.5524E+00
        Born radii integrator          GBOBC
        Born offset                        2.4628E-02 a0       4.6540E-02 AA
        H-bond correction              true
        Ion screening                  false
        Surface tension                    1.0000E-05 Eh       1.5569E+01 dyn/cm
        Grid points                               230 per atom
q/qsh data taken from xtbrestart
CAMM data taken from xtbrestart

          ...................................................
          :                      SETUP                      :
          :.................................................:
          :  # basis functions                6498          :
          :  # atomic orbitals                6498          :
          :  # shells                         4338          :
          :  # electrons                      6498          :
          :  max. iterations                   250          :
          :  Hamiltonian                  GFN2-xTB          :
          :  restarted?                       true          :
          :  GBSA solvation                   true          :
          :  PC potential                    false          :
          :  electronic temp.          300.0000000     K    :
          :  accuracy                    1.0000000          :
          :  -> integral cutoff          0.2500000E+02      :
          :  -> integral neglect         0.1000000E-07      :
          :  -> SCF convergence          0.1000000E-05 Eh   :
          :  -> wf. convergence          0.1000000E-03 e    :
          :  Broyden damping             0.4000000          :
          ...................................................

 iter      E             dE          RMSdq      gap      omega  full diag
   1  -3472.3720329 -0.347237E+04  0.875E-05   10.56       0.0  T
   2  -3472.3720329 -0.601858E-08  0.701E-05   10.56      25.0  T
   3  -3472.3720329 -0.992895E-08  0.365E-05   10.56      48.0  T

   *** convergence criteria satisfied after 3 iterations ***

         #    Occupation            Energy/Eh            Energy/eV
      -------------------------------------------------------------
         1        2.0000           -0.6169235             -16.7873
       ...           ...                  ...                  ...
      3243        2.0000           -0.3822225             -10.4008
      3244        2.0000           -0.3816373             -10.3849
      3245        2.0000           -0.3812941             -10.3755
      3246        2.0000           -0.3799503             -10.3390
      3247        2.0000           -0.3790682             -10.3150
      3248        2.0000           -0.3782329             -10.2922
      3249        2.0000           -0.3756331             -10.2215 (HOMO)
      3250                          0.0125618               0.3418 (LUMO)
      3251                          0.0133435               0.3631
      3252                          0.0185440               0.5046
      3253                          0.0191743               0.5218
      3254                          0.0197695               0.5380
       ...                                ...                  ...
      6498                          0.3940119              10.7216
      -------------------------------------------------------------
                  HL-Gap            0.3881949 Eh           10.5633 eV
             Fermi-level           -0.1815356 Eh           -4.9398 eV

 SCC (total)                   0 d,  0 h,  7 min, 14.459 sec
 SCC setup                      ...        0 min,  1.750 sec (  0.403%)
 Dispersion                     ...        0 min,  3.589 sec (  0.826%)
 classical contributions        ...        0 min,  0.130 sec (  0.030%)
 integral evaluation            ...        0 min,  5.880 sec (  1.353%)
 iterations                     ...        3 min, 10.453 sec ( 43.837%)
 molecular gradient             ...        3 min, 44.088 sec ( 51.579%)
 printout                       ...        0 min,  8.570 sec (  1.973%)

         :::::::::::::::::::::::::::::::::::::::::::::::::::::
         ::                     SUMMARY                     ::
         :::::::::::::::::::::::::::::::::::::::::::::::::::::
         :: total energy           -3426.838093262498 Eh    ::
         :: total w/o Gsasa/hb     -3426.746251302198 Eh    ::
         :: gradient norm              0.631660022340 Eh/a0 ::
         :: HOMO-LUMO gap             10.563321369646 eV    ::
         ::.................................................::
         :: SCC energy             -3472.372032945468 Eh    ::
         :: -> isotropic ES            0.278825073427 Eh    ::
         :: -> anisotropic ES          1.283906211734 Eh    ::
         :: -> anisotropic XC          2.129852584576 Eh    ::
         :: -> dispersion             -4.302214677234 Eh    ::
         :: -> Gsolv                  -0.028219622417 Eh    ::
         ::    -> Gelec                0.063622337883 Eh    ::
         ::    -> Gsasa               -0.089639218786 Eh    ::
         ::    -> Ghb                 -0.004060184641 Eh    ::
         ::    -> Gshift               0.001857443127 Eh    ::
         :: repulsion energy          44.803648298843 Eh    ::
         :: add. restraining           0.000000000000 Eh    ::
         :: total charge              -0.000000000014 e     ::
         :::::::::::::::::::::::::::::::::::::::::::::::::::::

      ----------------------------------------------------------- 
     |              Fast Inertial Relaxation Engine              |
      ----------------------------------------------------------- 

          ...................................................
          :                      SETUP                      :
          :.................................................:
          :   energy convergence        0.5000000E-05 Eh    :
          :   grad. convergence         0.1000000E-02 Eh/a0 :
          :   optimization log               true           :
          :   writing optlog all                1     steps :
          :   Hessian reset                    20     steps :
          :   time step scaling                 5     steps :
          :   maximium step len.        1.0000000     a0    :
          :   initial time step         0.2500000     fs    :
          :   maximum time step         1.2500000     fs    :
          :   power reset thr           0.0000000     au    :
          :   alpha parameter           0.1000000           :
          :   BFGS update                   false           :
          :   preconditioning               false           :
          ...................................................

........................................................................
.............................. CYCLE    1 ..............................
........................................................................

 iter      E             dE          RMSdq      gap      omega  full diag
   1  -3472.6055688 -0.347261E+04  0.741E-03   10.60       0.0  T
   2  -3472.6056132 -0.444051E-04  0.389E-03   10.60       1.0  T
   3  -3472.6056136 -0.438426E-06  0.182E-03   10.60       1.0  T
   4  -3472.6056138 -0.162659E-06  0.227E-04   10.60       7.7  T
   5  -3472.6056138 -0.401819E-07  0.146E-04   10.60      12.0  T
     SCC iter.                  ...        4 min, 57.592 sec
     gradient                   ...        3 min, 45.085 sec
 * total energy  : -3426.8834852 Eh     change    :  -0.4539190E-01 Eh
   gradient norm :     0.5978348 Eh/a0  converged?    E=F G=F D=F
   time step     :     0.2500000 fs     power     :   0.2342146E-05
   step length   :     0.0740292 a0     speed     :   0.7162724E-02

........................................................................
.............................. CYCLE    2 ..............................
........................................................................

 iter      E             dE          RMSdq      gap      omega  full diag
   1  -3472.9496249 -0.347295E+04  0.108E-02   10.66       0.0  T
   2  -3472.9497198 -0.949362E-04  0.570E-03   10.66       1.0  T
   3  -3472.9497208 -0.101876E-05  0.266E-03   10.66       1.0  T
   4  -3472.9497213 -0.407866E-06  0.355E-04   10.66       4.9  T
   5  -3472.9497213 -0.978839E-07  0.238E-04   10.66       7.4  T
     SCC iter.                  ...        5 min,  1.202 sec
     gradient                   ...        3 min, 44.589 sec
 * total energy  : -3426.9458686 Eh     change    :  -0.6238344E-01 Eh
   gradient norm :     0.5490333 Eh/a0  converged?    E=F G=F D=F
   time step     :     0.2500000 fs     power     :   0.3165673E-05
   step length   :     0.1089851 a0     speed     :   0.1054489E-01

........................................................................
.............................. CYCLE    3 ..............................
........................................................................

 iter      E             dE          RMSdq      gap      omega  full diag
   1  -3473.3950905 -0.347340E+04  0.139E-02   10.73       0.0  T
   2  -3473.3952448 -0.154261E-03  0.730E-03   10.73       1.0  T
   3  -3473.3952465 -0.175259E-05  0.339E-03   10.73       1.0  T
   4  -3473.3952472 -0.700459E-06  0.466E-04   10.73       3.8  T
   5  -3473.3952474 -0.164844E-06  0.314E-04   10.73       5.6  T
     SCC iter.                  ...        4 min, 55.458 sec
     gradient                   ...        3 min, 43.721 sec
 * total energy  : -3427.0187273 Eh     change    :  -0.7285871E-01 Eh
   gradient norm :     0.4881770 Eh/a0  converged?    E=F G=F D=F
   time step     :     0.2500000 fs     power     :   0.3625731E-05
   step length   :     0.1410605 a0     speed     :   0.1364836E-01

........................................................................
.............................. CYCLE    4 ..............................
........................................................................

 iter      E             dE          RMSdq      gap      omega  full diag
   1  -3473.9304161 -0.347393E+04  0.165E-02   10.79       0.0  T
   2  -3473.9306284 -0.212315E-03  0.864E-03   10.78       1.0  T
   3  -3473.9306310 -0.258297E-05  0.397E-03   10.78       1.0  T
   4  -3473.9306320 -0.100243E-05  0.563E-04   10.78       3.1  T
   5  -3473.9306322 -0.229857E-06  0.379E-04   10.78       4.6  T
   6  -3473.9306324 -0.151833E-06  0.183E-04   10.78       9.6  T
     SCC iter.                  ...        5 min, 54.130 sec
     gradient                   ...        3 min, 45.623 sec
 * total energy  : -3427.0947488 Eh     change    :  -0.7602149E-01 Eh
   gradient norm :     0.4199086 Eh/a0  converged?    E=F G=F D=F
   time step     :     0.2500000 fs     power     :   0.3694729E-05
   step length   :     0.1694102 a0     speed     :   0.1639135E-01

........................................................................
.............................. CYCLE    5 ..............................
........................................................................

 iter      E             dE          RMSdq      gap      omega  full diag
   1  -3474.5417502 -0.347454E+04  0.184E-02   10.79       0.0  T
   2  -3474.5420082 -0.258083E-03  0.965E-03   10.79       1.0  T
   3  -3474.5420116 -0.337424E-05  0.437E-03   10.79       1.0  T
   4  -3474.5420128 -0.120457E-05  0.631E-04   10.79       2.8  T
   5  -3474.5420131 -0.268339E-06  0.416E-04   10.79       4.2  T
   6  -3474.5420133 -0.161996E-06  0.191E-04   10.79       9.2  T
     SCC iter.                  ...        5 min, 56.574 sec
     gradient                   ...        3 min, 43.999 sec
 * total energy  : -3427.1668733 Eh     change    :  -0.7212453E-01 Eh
   gradient norm :     0.3506105 Eh/a0  converged?    E=F G=F D=F
   time step     :     0.2500000 fs     power     :   0.3399477E-05
   step length   :     0.1933141 a0     speed     :   0.1870418E-01

........................................................................
.............................. CYCLE    6 ..............................
........................................................................

 iter      E             dE          RMSdq      gap      omega  full diag
   1  -3475.2860662 -0.347529E+04  0.218E-02   10.79       0.0  T
   2  -3475.2864112 -0.344995E-03  0.114E-02   10.79       1.0  T
   3  -3475.2864163 -0.515482E-05  0.505E-03   10.79       1.0  T
   4  -3475.2864180 -0.168623E-05  0.764E-04   10.79       2.3  T
   5  -3475.2864184 -0.349461E-06  0.495E-04   10.79       3.5  T
   6  -3475.2864186 -0.204384E-06  0.214E-04   10.79       8.2  T
     SCC iter.                  ...        5 min, 58.513 sec
     gradient                   ...        3 min, 44.509 sec
 * total energy  : -3427.2352575 Eh     change    :  -0.6838417E-01 Eh
   gradient norm :     0.2843802 Eh/a0  converged?    E=F G=F D=F
   time step     :     0.2750000 fs     power     :   0.2752154E-05
   step length   :     0.2354505 a0     speed     :   0.2071009E-01

........................................................................
.............................. CYCLE    7 ..............................
........................................................................

 iter      E             dE          RMSdq      gap      omega  full diag
   1  -3476.1576597 -0.347616E+04  0.249E-02   10.80       0.0  T
   2  -3476.1580636 -0.403893E-03  0.131E-02   10.80       1.0  T
   3  -3476.1580711 -0.750502E-05  0.547E-03   10.79       1.0  T
   4  -3476.1580732 -0.217646E-05  0.896E-04   10.79       2.0  T
   5  -3476.1580736 -0.400144E-06  0.569E-04   10.79       3.1  T
   6  -3476.1580739 -0.232532E-06  0.225E-04   10.79       7.8  T
     SCC iter.                  ...        5 min, 55.635 sec
     gradient                   ...        3 min, 44.411 sec
 * total energy  : -3427.2918456 Eh     change    :  -0.5658807E-01 Eh
   gradient norm :     0.2413973 Eh/a0  converged?    E=F G=F D=F
   time step     :     0.3025000 fs     power     :   0.1851828E-05
   step length   :     0.2772214 a0     speed     :   0.2216749E-01

........................................................................
.............................. CYCLE    8 ..............................
........................................................................

 iter      E             dE          RMSdq      gap      omega  full diag
   1  -3477.1197591 -0.347712E+04  0.272E-02   10.80       0.0  T
   2  -3477.1201439 -0.384848E-03  0.144E-02   10.80       1.0  T
   3  -3477.1201540 -0.101303E-04  0.538E-03   10.80       1.0  T
   4  -3477.1201565 -0.241847E-05  0.100E-03   10.79       1.8  T
   5  -3477.1201568 -0.365780E-06  0.614E-04   10.79       2.9  T
   6  -3477.1201570 -0.215696E-06  0.210E-04   10.79       8.4  T
     SCC iter.                  ...        6 min,  5.500 sec
     gradient                   ...        3 min, 45.147 sec
 * total energy  : -3427.3313386 Eh     change    :  -0.3949303E-01 Eh
   gradient norm :     0.2366504 Eh/a0  converged?    E=F G=F D=F
   time step     :     0.3327500 fs     power     :   0.9419892E-06
   step length   :     0.3126391 a0     speed     :   0.2272691E-01

........................................................................
.............................. CYCLE    9 ..............................
........................................................................

 iter      E             dE          RMSdq      gap      omega  full diag
   1  -3478.0960021 -0.347810E+04  0.290E-02   10.80       0.0  T
   2  -3478.0962744 -0.272374E-03  0.158E-02   10.80       1.0  T
   3  -3478.0962868 -0.123301E-04  0.452E-03   10.79       1.0  T
   4  -3478.0962889 -0.213923E-05  0.105E-03   10.79       1.7  T
   5  -3478.0962892 -0.237057E-06  0.604E-04   10.79       2.9  T
   6  -3478.0962893 -0.151745E-06  0.164E-04   10.79      10.7  T
     SCC iter.                  ...        6 min,  0.993 sec
     gradient                   ...        3 min, 44.540 sec
 * total energy  : -3427.3544795 Eh     change    :  -0.2314087E-01 Eh
   gradient norm :     0.2506493 Eh/a0  converged?    E=F G=F D=F
   time step     :     0.3660250 fs     power     :   0.2798602E-06
   step length   :     0.3360409 a0     speed     :   0.2220734E-01

........................................................................
.............................. CYCLE   10 ..............................
........................................................................

 iter      E             dE          RMSdq      gap      omega  full diag
   1  -3478.9928651 -0.347899E+04  0.312E-02   10.79       0.0  T
   2  -3478.9929931 -0.128049E-03  0.176E-02   10.79       1.0  T
   3  -3478.9930065 -0.133998E-04  0.291E-03   10.79       1.0  T
   4  -3478.9930080 -0.152114E-05  0.105E-03   10.79       1.7  T
   5  -3478.9930081 -0.844389E-07  0.523E-04   10.79       3.3  T
   6  -3478.9930082 -0.818527E-07  0.967E-05   10.79      18.1  T
     SCC iter.                  ...        5 min, 53.376 sec
     gradient                   ...        3 min, 44.782 sec
 * total energy  : -3427.3659421 Eh     change    :  -0.1146266E-01 Eh
   gradient norm :     0.2497533 Eh/a0  converged?    E=F G=F D=F
   time step     :     0.4026275 fs     power     :  -0.1087178E-06
   step length   :     0.3486736 a0     speed     :   0.2094743E-01

........................................................................
.............................. CYCLE   11 ..............................
........................................................................
 * reset velocities

 iter      E             dE          RMSdq      gap      omega  full diag
   1  -3478.9758743 -0.347898E+04  0.116E-03   10.79       0.0  T
   2  -3478.9758751 -0.784856E-06  0.669E-04   10.79       2.6  T
   3  -3478.9758751 -0.540604E-08  0.266E-04   10.79       6.6  T
     SCC iter.                  ...        2 min, 55.069 sec
     gradient                   ...        3 min, 45.934 sec
 * total energy  : -3427.3682785 Eh     change    :  -0.2336404E-02 Eh
   gradient norm :     0.2426619 Eh/a0  converged?    E=F G=F D=F
   time step     :     0.2013138 fs     power     :   0.1517904E-06
   step length   :     0.0094900 a0     speed     :   0.1140275E-02

........................................................................
.............................. CYCLE   12 ..............................
........................................................................

 iter      E             dE          RMSdq      gap      omega  full diag
   1  -3478.9420437 -0.347894E+04  0.229E-03   10.79       0.0  T
   2  -3478.9420468 -0.302841E-05  0.132E-03   10.79       1.3  T
   3  -3478.9420468 -0.176610E-07  0.521E-04   10.79       3.4  T
   4  -3478.9420468 -0.861564E-08  0.443E-05   10.79      39.5  T
     SCC iter.                  ...        3 min, 59.581 sec
     gradient                   ...        3 min, 45.645 sec
 * total energy  : -3427.3726887 Eh     change    :  -0.4410167E-02 Eh
   gradient norm :     0.2287626 Eh/a0  converged?    E=F G=F D=F
   time step     :     0.2013138 fs     power     :   0.2821037E-06
   step length   :     0.0187105 a0     speed     :   0.2248164E-02

........................................................................
.............................. CYCLE   13 ..............................
........................................................................

 iter      E             dE          RMSdq      gap      omega  full diag
   1  -3478.8923854 -0.347889E+04  0.334E-03   10.79       0.0  T
   2  -3478.8923919 -0.655799E-05  0.192E-03   10.79       1.0  T
   3  -3478.8923920 -0.455061E-07  0.769E-04   10.79       2.3  T
   4  -3478.8923920 -0.247287E-07  0.760E-05   10.79      23.0  T
     SCC iter.                  ...        4 min,  7.529 sec
     gradient                   ...        3 min, 44.056 sec
 * total energy  : -3427.3786789 Eh     change    :  -0.5990147E-02 Eh
   gradient norm :     0.2085130 Eh/a0  converged?    E=F G=F D=F
   time step     :     0.2013138 fs     power     :   0.3764643E-06
   step length   :     0.0274023 a0     speed     :   0.3292524E-02

........................................................................
.............................. CYCLE   14 ..............................
........................................................................

 iter      E             dE          RMSdq      gap      omega  full diag
   1  -3478.8281978 -0.347883E+04  0.430E-03   10.79       0.0  T
   2  -3478.8282087 -0.109098E-04  0.248E-03   10.79       1.0  T
   3  -3478.8282088 -0.807195E-07  0.993E-04   10.79       1.8  T
   4  -3478.8282088 -0.449072E-07  0.103E-04   10.79      17.0  T
     SCC iter.                  ...        3 min, 53.961 sec
     gradient                   ...        3 min, 42.732 sec
 * total energy  : -3427.3855827 Eh     change    :  -0.6903811E-02 Eh
   gradient norm :     0.1826363 Eh/a0  converged?    E=F G=F D=F
   time step     :     0.2013138 fs     power     :   0.4246551E-06
   step length   :     0.0353223 a0     speed     :   0.4244145E-02

........................................................................
.............................. CYCLE   15 ..............................
........................................................................

 iter      E             dE          RMSdq      gap      omega  full diag
   1  -3478.7512062 -0.347875E+04  0.513E-03   10.79       0.0  T
   2  -3478.7512218 -0.156091E-04  0.295E-03   10.79       1.0  T
   3  -3478.7512219 -0.118390E-06  0.119E-03   10.79       1.5  T
   4  -3478.7512220 -0.665304E-07  0.125E-04   10.79      14.0  T
   5  -3478.7512220 -0.182536E-07  0.878E-05   10.79      20.0  T
     SCC iter.                  ...        4 min, 58.383 sec
     gradient                   ...        3 min, 44.798 sec
 * total energy  : -3427.3926399 Eh     change    :  -0.7057244E-02 Eh
   gradient norm :     0.1521144 Eh/a0  converged?    E=F G=F D=F
   time step     :     0.2013138 fs     power     :   0.4219168E-06
   step length   :     0.0422515 a0     speed     :   0.5076725E-02

........................................................................
.............................. CYCLE   16 ..............................
........................................................................

 iter      E             dE          RMSdq      gap      omega  full diag
   1  -3478.6635790 -0.347866E+04  0.579E-03   10.79       0.0  T
   2  -3478.6635991 -0.200853E-04  0.333E-03   10.79       1.0  T
   3  -3478.6635992 -0.139666E-06  0.135E-03   10.79       1.3  T
   4  -3478.6635993 -0.758096E-07  0.133E-04   10.79      13.1  T
   5  -3478.6635993 -0.212449E-07  0.910E-05   10.79      19.3  T
     SCC iter.                  ...        4 min, 58.198 sec
     gradient                   ...        3 min, 46.055 sec
 * total energy  : -3427.3990883 Eh     change    :  -0.6448414E-02 Eh
   gradient norm :     0.1183788 Eh/a0  converged?    E=F G=F D=F
   time step     :     0.2013138 fs     power     :   0.3697777E-06
   step length   :     0.0479993 a0     speed     :   0.5767353E-02

........................................................................
.............................. CYCLE   17 ..............................
........................................................................

 iter      E             dE          RMSdq      gap      omega  full diag
   1  -3478.5575024 -0.347856E+04  0.694E-03   10.79       0.0  T
   2  -3478.5575316 -0.292280E-04  0.400E-03   10.79       1.0  T
   3  -3478.5575318 -0.196549E-06  0.162E-03   10.79       1.1  T
   4  -3478.5575319 -0.105570E-06  0.158E-04   10.79      11.1  T
   5  -3478.5575320 -0.300784E-07  0.105E-04   10.79      16.6  T
     SCC iter.                  ...        4 min, 58.786 sec
     gradient                   ...        3 min, 44.239 sec
 * total energy  : -3427.4047063 Eh     change    :  -0.5617989E-02 Eh
   gradient norm :     0.0801272 Eh/a0  converged?    E=F G=F D=F
   time step     :     0.2214451 fs     power     :   0.2641272E-06
   step length   :     0.0581308 a0     speed     :   0.6349726E-02

........................................................................
.............................. CYCLE   18 ..............................
........................................................................

 iter      E             dE          RMSdq      gap      omega  full diag
   1  -3478.4345214 -0.347843E+04  0.796E-03   10.78       0.0  T
   2  -3478.4345604 -0.390432E-04  0.459E-03   10.79       1.0  T
   3  -3478.4345607 -0.258810E-06  0.188E-03   10.79       1.0  T
   4  -3478.4345608 -0.136725E-06  0.180E-04   10.79       9.7  T
   5  -3478.4345609 -0.395871E-07  0.118E-04   10.79      14.8  T
     SCC iter.                  ...        4 min, 54.954 sec
     gradient                   ...        3 min, 45.000 sec
 * total energy  : -3427.4083435 Eh     change    :  -0.3637193E-02 Eh
   gradient norm :     0.0468690 Eh/a0  converged?    E=F G=F D=F
   time step     :     0.2435896 fs     power     :   0.1108653E-06
   step length   :     0.0679120 a0     speed     :   0.6743769E-02

........................................................................
.............................. CYCLE   19 ..............................
........................................................................

 iter      E             dE          RMSdq      gap      omega  full diag
   1  -3478.3042447 -0.347830E+04  0.834E-03   10.78       0.0  T
   2  -3478.3042885 -0.437618E-04  0.483E-03   10.78       1.0  T
   3  -3478.3042888 -0.289021E-06  0.200E-03   10.78       1.0  T
   4  -3478.3042889 -0.147446E-06  0.188E-04   10.79       9.3  T
   5  -3478.3042890 -0.438058E-07  0.119E-04   10.79      14.8  T
     SCC iter.                  ...        5 min,  0.291 sec
     gradient                   ...        3 min, 44.821 sec
 * total energy  : -3427.4090760 Eh     change    :  -0.7324666E-03 Eh
   gradient norm :     0.0535601 Eh/a0  converged?    E=F G=F D=F
   time step     :     0.2679486 fs     power     :  -0.5208890E-07
   step length   :     0.0745169 a0     speed     :   0.6726951E-02

........................................................................
.............................. CYCLE   20 ..............................
........................................................................
 * reset velocities

 iter      E             dE          RMSdq      gap      omega  full diag
   1  -3478.3054389 -0.347831E+04  0.122E-04   10.79       0.0  T
   2  -3478.3054389 -0.622367E-08  0.798E-05   10.79      21.9  T
   3  -3478.3054390 -0.419095E-08  0.367E-05   10.79      47.7  T
     SCC iter.                  ...        3 min,  4.535 sec
     gradient                   ...        3 min, 43.528 sec
 * total energy  : -3427.4091241 Eh     change    :  -0.4811859E-04 Eh
   gradient norm :     0.0531842 Eh/a0  converged?    E=F G=F D=T
   time step     :     0.1339743 fs     power     :   0.4747882E-08
   step length   :     0.0009014 a0     speed     :   0.1627375E-03
 * RMSD in coord.:     0.0346109 a0     energy gain  -0.5710308E+00 Eh

........................................................................
.............................. CYCLE   21 ..............................
........................................................................

 iter      E             dE          RMSdq      gap      omega  full diag
   1  -3478.3115212 -0.347831E+04  0.542E-04   10.79       0.0  T
   2  -3478.3115213 -0.877203E-07  0.309E-04   10.79       5.7  T
   3  -3478.3115213 -0.741693E-09  0.860E-05   10.79      20.4  T
     SCC iter.                  ...        3 min,  2.983 sec
     gradient                   ...        3 min, 44.095 sec
 * total energy  : -3427.4093748 Eh     change    :  -0.2507247E-03 Eh
   gradient norm :     0.0513600 Eh/a0  converged?    E=F G=F D=F
   time step     :     0.2500000 fs     power     :   0.1307242E-07
   step length   :     0.0047985 a0     speed     :   0.4642768E-03

........................................................................
.............................. CYCLE   22 ..............................
........................................................................

 iter      E             dE          RMSdq      gap      omega  full diag
   1  -3478.3212392 -0.347832E+04  0.883E-04   10.79       0.0  T
   2  -3478.3212394 -0.224547E-06  0.505E-04   10.79       3.5  T
   3  -3478.3212394 -0.405271E-08  0.138E-04   10.79      12.7  T
     SCC iter.                  ...        3 min,  0.821 sec
     gradient                   ...        3 min, 44.775 sec
 * total energy  : -3427.4097644 Eh     change    :  -0.3895661E-03 Eh
   gradient norm :     0.0485880 Eh/a0  converged?    E=F G=F D=F
   time step     :     0.2500000 fs     power     :   0.2007003E-07
   step length   :     0.0078068 a0     speed     :   0.7553530E-03

........................................................................
.............................. CYCLE   23 ..............................
........................................................................

 iter      E             dE          RMSdq      gap      omega  full diag
   1  -3478.3340969 -0.347833E+04  0.119E-03   10.79       0.0  T
   2  -3478.3340973 -0.392774E-06  0.679E-04   10.79       2.6  T
   3  -3478.3340973 -0.982527E-08  0.184E-04   10.79       9.5  T
     SCC iter.                  ...        2 min, 58.497 sec
     gradient                   ...        3 min, 45.789 sec
 * total energy  : -3427.4102611 Eh     change    :  -0.4967283E-03 Eh
   gradient norm :     0.0452075 Eh/a0  converged?    E=F G=F D=F
   time step     :     0.2500000 fs     power     :   0.2529255E-07
   step length   :     0.0106465 a0     speed     :   0.1030106E-02

........................................................................
.............................. CYCLE   24 ..............................
........................................................................

 iter      E             dE          RMSdq      gap      omega  full diag
   1  -3478.3493988 -0.347835E+04  0.144E-03   10.79       0.0  T
   2  -3478.3493994 -0.552627E-06  0.826E-04   10.79       2.1  T
   3  -3478.3493994 -0.167215E-07  0.218E-04   10.79       8.0  T
     SCC iter.                  ...        3 min,  3.142 sec
     gradient                   ...        3 min, 44.247 sec
 * total energy  : -3427.4108295 Eh     change    :  -0.5684060E-03 Eh
   gradient norm :     0.0417001 Eh/a0  converged?    E=F G=F D=F
   time step     :     0.2500000 fs     power     :   0.2863459E-07
   step length   :     0.0132690 a0     speed     :   0.1283844E-02

........................................................................
.............................. CYCLE   25 ..............................
........................................................................

 iter      E             dE          RMSdq      gap      omega  full diag
   1  -3478.3662510 -0.347837E+04  0.164E-03   10.79       0.0  T
   2  -3478.3662517 -0.661940E-06  0.941E-04   10.79       1.9  T
   3  -3478.3662517 -0.235900E-07  0.238E-04   10.79       7.4  T
     SCC iter.                  ...        2 min, 59.081 sec
     gradient                   ...        3 min, 46.189 sec
 * total energy  : -3427.4114374 Eh     change    :  -0.6079086E-03 Eh
   gradient norm :     0.0386362 Eh/a0  converged?    E=F G=F D=F
   time step     :     0.2500000 fs     power     :   0.3037670E-07
   step length   :     0.0156407 a0     speed     :   0.1513324E-02

........................................................................
.............................. CYCLE   26 ..............................
........................................................................

 iter      E             dE          RMSdq      gap      omega  full diag
   1  -3478.3854512 -0.347839E+04  0.197E-03   10.79       0.0  T
   2  -3478.3854521 -0.839895E-06  0.113E-03   10.79       1.6  T
   3  -3478.3854521 -0.348446E-07  0.265E-04   10.79       6.6  T
   4  -3478.3854521 -0.144410E-07  0.692E-05   10.79      25.3  T
     SCC iter.                  ...        3 min, 56.708 sec
     gradient                   ...        3 min, 46.220 sec
 * total energy  : -3427.4121299 Eh     change    :  -0.6924953E-03 Eh
   gradient norm :     0.0363730 Eh/a0  converged?    E=F G=F D=F
   time step     :     0.2750000 fs     power     :   0.3114267E-07
   step length   :     0.0197601 a0     speed     :   0.1738087E-02

........................................................................
.............................. CYCLE   27 ..............................
........................................................................

 iter      E             dE          RMSdq      gap      omega  full diag
   1  -3478.4056776 -0.347841E+04  0.225E-03   10.79       0.0  T
   2  -3478.4056785 -0.907394E-06  0.129E-03   10.79       1.4  T
   3  -3478.4056786 -0.427567E-07  0.271E-04   10.79       6.5  T
   4  -3478.4056786 -0.178393E-07  0.762E-05   10.79      23.0  T
     SCC iter.                  ...        3 min, 55.859 sec
     gradient                   ...        3 min, 44.749 sec
 * total energy  : -3427.4129072 Eh     change    :  -0.7772605E-03 Eh
   gradient norm :     0.0355305 Eh/a0  converged?    E=F G=F D=F
   time step     :     0.3025000 fs     power     :   0.3168838E-07
   step length   :     0.0244292 a0     speed     :   0.1953437E-02

........................................................................
.............................. CYCLE   28 ..............................
........................................................................

 iter      E             dE          RMSdq      gap      omega  full diag
   1  -3478.4247539 -0.347842E+04  0.246E-03   10.79       0.0  T
   2  -3478.4247547 -0.758755E-06  0.141E-03   10.79       1.2  T
   3  -3478.4247547 -0.524151E-07  0.242E-04   10.79       7.3  T
   4  -3478.4247547 -0.200944E-07  0.827E-05   10.79      21.2  T
     SCC iter.                  ...        3 min, 53.854 sec
     gradient                   ...        3 min, 43.024 sec
 * total energy  : -3427.4137944 Eh     change    :  -0.8872610E-03 Eh
   gradient norm :     0.0360189 Eh/a0  converged?    E=F G=F D=F
   time step     :     0.3327500 fs     power     :   0.3320576E-07
   step length   :     0.0297076 a0     speed     :   0.2159559E-02

........................................................................
.............................. CYCLE   29 ..............................
........................................................................

 iter      E             dE          RMSdq      gap      omega  full diag
   1  -3478.4399173 -0.347844E+04  0.259E-03   10.79       0.0  T
   2  -3478.4399178 -0.450289E-06  0.150E-03   10.79       1.2  T
   3  -3478.4399178 -0.587206E-07  0.185E-04   10.79       9.5  T
   4  -3478.4399179 -0.215841E-07  0.857E-05   10.79      20.4  T
     SCC iter.                  ...        3 min, 56.021 sec
     gradient                   ...        3 min, 49.531 sec
 * total energy  : -3427.4148512 Eh     change    :  -0.1056770E-02 Eh
   gradient norm :     0.0367149 Eh/a0  converged?    E=F G=F D=F
   time step     :     0.3660250 fs     power     :   0.3656778E-07
   step length   :     0.0358233 a0     speed     :   0.2367392E-02

........................................................................
.............................. CYCLE   30 ..............................
........................................................................

 iter      E             dE          RMSdq      gap      omega  full diag
   1  -3478.4484168 -0.347845E+04  0.273E-03   10.79       0.0  T
   2  -3478.4484170 -0.238491E-06  0.160E-03   10.79       1.1  T
   3  -3478.4484171 -0.586215E-07  0.147E-04   10.79      11.9  T
   4  -3478.4484171 -0.239538E-07  0.844E-05   10.79      20.8  T
     SCC iter.                  ...        3 min, 54.716 sec
     gradient                   ...        3 min, 45.269 sec
 * total energy  : -3427.4161524 Eh     change    :  -0.1301208E-02 Eh
   gradient norm :     0.0360463 Eh/a0  converged?    E=F G=F D=F
   time step     :     0.4026275 fs     power     :   0.4136722E-07
   step length   :     0.0432229 a0     speed     :   0.2596723E-02

........................................................................
.............................. CYCLE   31 ..............................
........................................................................

 iter      E             dE          RMSdq      gap      omega  full diag
   1  -3478.4483878 -0.347845E+04  0.299E-03   10.79       0.0  T
   2  -3478.4483883 -0.513302E-06  0.177E-03   10.79       1.0  T
   3  -3478.4483884 -0.530472E-07  0.166E-04   10.79      10.6  T
   4  -3478.4483884 -0.276314E-07  0.765E-05   10.79      22.9  T
     SCC iter.                  ...        3 min, 53.003 sec
     gradient                   ...        3 min, 51.533 sec
 * total energy  : -3427.4177377 Eh     change    :  -0.1585255E-02 Eh
   gradient norm :     0.0329729 Eh/a0  converged?    E=F G=F D=F
   time step     :     0.4428903 fs     power     :   0.4550444E-07
   step length   :     0.0524248 a0     speed     :   0.2863228E-02

........................................................................
.............................. CYCLE   32 ..............................
........................................................................

 iter      E             dE          RMSdq      gap      omega  full diag
   1  -3478.4403727 -0.347844E+04  0.345E-03   10.79       0.0  T
   2  -3478.4403741 -0.145937E-05  0.207E-03   10.79       1.0  T
   3  -3478.4403742 -0.577470E-07  0.269E-04   10.79       6.5  T
   4  -3478.4403742 -0.311265E-07  0.766E-05   10.79      22.9  T
     SCC iter.                  ...        3 min, 55.145 sec
     gradient                   ...        3 min, 43.925 sec
 * total energy  : -3427.4195526 Eh     change    :  -0.1814890E-02 Eh
   gradient norm :     0.0282674 Eh/a0  converged?    E=F G=F D=F
   time step     :     0.4871793 fs     power     :   0.4617843E-07
   step length   :     0.0637473 a0     speed     :   0.3165104E-02

........................................................................
.............................. CYCLE   33 ..............................
........................................................................

 iter      E             dE          RMSdq      gap      omega  full diag
   1  -3478.4296706 -0.347843E+04  0.399E-03   10.79       0.0  T
   2  -3478.4296730 -0.238594E-05  0.240E-03   10.79       1.0  T
   3  -3478.4296730 -0.679238E-07  0.350E-04   10.79       5.0  T
   4  -3478.4296731 -0.344025E-07  0.794E-05   10.79      22.1  T
     SCC iter.                  ...        4 min,  5.406 sec
     gradient                   ...        3 min, 45.012 sec
 * total energy  : -3427.4214625 Eh     change    :  -0.1909980E-02 Eh
   gradient norm :     0.0254883 Eh/a0  converged?    E=F G=F D=F
   time step     :     0.5358972 fs     power     :   0.4280703E-07
   step length   :     0.0770459 a0     speed     :   0.3477628E-02

........................................................................
.............................. CYCLE   34 ..............................
........................................................................

 iter      E             dE          RMSdq      gap      omega  full diag
   1  -3478.4284304 -0.347843E+04  0.444E-03   10.79       0.0  T
   2  -3478.4284322 -0.182178E-05  0.267E-03   10.79       1.0  T
   3  -3478.4284323 -0.845976E-07  0.259E-04   10.79       6.8  T
   4  -3478.4284323 -0.347641E-07  0.841E-05   10.79      20.8  T
     SCC iter.                  ...        3 min, 56.577 sec
     gradient                   ...        3 min, 47.183 sec
 * total energy  : -3427.4234093 Eh     change    :  -0.1946799E-02 Eh
   gradient norm :     0.0266140 Eh/a0  converged?    E=F G=F D=F
   time step     :     0.5894869 fs     power     :   0.3952829E-07
   step length   :     0.0914457 a0     speed     :   0.3752357E-02

........................................................................
.............................. CYCLE   35 ..............................
........................................................................

 iter      E             dE          RMSdq      gap      omega  full diag
   1  -3478.4505340 -0.347845E+04  0.499E-03   10.79       0.0  T
   2  -3478.4505344 -0.435522E-06  0.296E-03   10.79       1.0  T
   3  -3478.4505345 -0.124134E-06  0.162E-04   10.79      10.8  T
   4  -3478.4505345 -0.249802E-07  0.966E-05   10.79      18.1  T
     SCC iter.                  ...        3 min, 58.486 sec
     gradient                   ...        3 min, 44.785 sec
 * total energy  : -3427.4255219 Eh     change    :  -0.2112607E-02 Eh
   gradient norm :     0.0264507 Eh/a0  converged?    E=F G=F D=F
   time step     :     0.6484356 fs     power     :   0.3981616E-07
   step length   :     0.1064771 a0     speed     :   0.3971957E-02

........................................................................
.............................. CYCLE   36 ..............................
........................................................................

 iter      E             dE          RMSdq      gap      omega  full diag
   1  -3478.5022044 -0.347850E+04  0.599E-03   10.80       0.0  T
   2  -3478.5022057 -0.129761E-05  0.347E-03   10.79       1.0  T
   3  -3478.5022059 -0.175411E-06  0.251E-04   10.79       7.0  T
   4  -3478.5022059 -0.263713E-07  0.115E-04   10.79      15.2  T
     SCC iter.                  ...        3 min, 53.921 sec
     gradient                   ...        3 min, 43.535 sec
 * total energy  : -3427.4278565 Eh     change    :  -0.2334569E-02 Eh
   gradient norm :     0.0221915 Eh/a0  converged?    E=F G=F D=F
   time step     :     0.7132792 fs     power     :   0.3919630E-07
   step length   :     0.1237100 a0     speed     :   0.4195275E-02

........................................................................
.............................. CYCLE   37 ..............................
........................................................................

 iter      E             dE          RMSdq      gap      omega  full diag
   1  -3478.5722204 -0.347857E+04  0.684E-03   10.80       0.0  T
   2  -3478.5722237 -0.331733E-05  0.392E-03   10.80       1.0  T
   3  -3478.5722239 -0.193147E-06  0.426E-04   10.80       4.1  T
   4  -3478.5722240 -0.396954E-07  0.123E-04   10.80      14.3  T
     SCC iter.                  ...        3 min, 58.227 sec
     gradient                   ...        3 min, 50.108 sec
 * total energy  : -3427.4301961 Eh     change    :  -0.2339632E-02 Eh
   gradient norm :     0.0217458 Eh/a0  converged?    E=F G=F D=F
   time step     :     0.7846071 fs     power     :   0.3402647E-07
   step length   :     0.1439723 a0     speed     :   0.4438557E-02

........................................................................
.............................. CYCLE   38 ..............................
........................................................................

 iter      E             dE          RMSdq      gap      omega  full diag
   1  -3478.6250531 -0.347863E+04  0.647E-03   10.80       0.0  T
   2  -3478.6250541 -0.100572E-05  0.375E-03   10.80       1.0  T
   3  -3478.6250542 -0.154398E-06  0.213E-04   10.80       8.2  T
   4  -3478.6250543 -0.203227E-07  0.942E-05   10.80      18.6  T
     SCC iter.                  ...        3 min, 57.225 sec
     gradient                   ...        3 min, 44.790 sec
 * total energy  : -3427.4326023 Eh     change    :  -0.2406170E-02 Eh
   gradient norm :     0.0242257 Eh/a0  converged?    E=F G=F D=F
   time step     :     0.8630678 fs     power     :   0.3318826E-07
   step length   :     0.1646423 a0     speed     :   0.4614360E-02

........................................................................
.............................. CYCLE   39 ..............................
........................................................................

 iter      E             dE          RMSdq      gap      omega  full diag
   1  -3478.6355109 -0.347864E+04  0.599E-03   10.81       0.0  T
   2  -3478.6355129 -0.198370E-05  0.358E-03   10.81       1.0  T
   3  -3478.6355131 -0.173589E-06  0.231E-04   10.81       7.6  T
   4  -3478.6355131 -0.236200E-07  0.107E-04   10.81      16.3  T
     SCC iter.                  ...        3 min, 56.186 sec
     gradient                   ...        3 min, 43.728 sec
 * total energy  : -3427.4353668 Eh     change    :  -0.2764477E-02 Eh
   gradient norm :     0.0207289 Eh/a0  converged?    E=F G=F D=F
   time step     :     0.9493746 fs     power     :   0.3468525E-07
   step length   :     0.1874060 a0     speed     :   0.4774864E-02

........................................................................
.............................. CYCLE   40 ..............................
........................................................................

 iter      E             dE          RMSdq      gap      omega  full diag
   1  -3478.6206081 -0.347862E+04  0.608E-03   10.81       0.0  T
   2  -3478.6206133 -0.518359E-05  0.366E-03   10.81       1.0  T
   3  -3478.6206136 -0.267744E-06  0.484E-04   10.81       3.6  T
   4  -3478.6206136 -0.575510E-07  0.159E-04   10.81      11.0  T
     SCC iter.                  ...        4 min,  0.586 sec
     gradient                   ...        3 min, 43.153 sec
 * total energy  : -3427.4382928 Eh     change    :  -0.2925995E-02 Eh
   gradient norm :     0.0229439 Eh/a0  converged?    E=F G=F D=F
   time step     :     1.0443120 fs     power     :   0.3237664E-07
   step length   :     0.2153300 a0     speed     :   0.4987574E-02

........................................................................
.............................. CYCLE   41 ..............................
........................................................................

 iter      E             dE          RMSdq      gap      omega  full diag
   1  -3478.6378928 -0.347864E+04  0.675E-03   10.82       0.0  T
   2  -3478.6378937 -0.871043E-06  0.396E-03   10.82       1.0  T
   3  -3478.6378940 -0.260604E-06  0.241E-04   10.82       7.3  T
   4  -3478.6378940 -0.363143E-07  0.145E-04   10.82      12.1  T
     SCC iter.                  ...        4 min,  1.703 sec
     gradient                   ...        3 min, 50.948 sec
 * total energy  : -3427.4417036 Eh     change    :  -0.3410777E-02 Eh
   gradient norm :     0.0209856 Eh/a0  converged?    E=F G=F D=F
   time step     :     1.1487432 fs     power     :   0.3628562E-07
   step length   :     0.2452228 a0     speed     :   0.5163604E-02

........................................................................
.............................. CYCLE   42 ..............................
........................................................................

 iter      E             dE          RMSdq      gap      omega  full diag
   1  -3478.6860928 -0.347869E+04  0.838E-03   10.83       0.0  T
   2  -3478.6860970 -0.415998E-05  0.486E-03   10.83       1.0  T
   3  -3478.6860972 -0.243340E-06  0.424E-04   10.83       4.1  T
   4  -3478.6860973 -0.440514E-07  0.126E-04   10.83      14.0  T
     SCC iter.                  ...        3 min, 57.798 sec
     gradient                   ...        3 min, 44.450 sec
 * total energy  : -3427.4454349 Eh     change    :  -0.3731321E-02 Eh
   gradient norm :     0.0212908 Eh/a0  converged?    E=F G=F D=F
   time step     :     1.2500000 fs     power     :   0.3412417E-07
   step length   :     0.2799737 a0     speed     :   0.5417792E-02
 * RMSD in coord.:     0.0318030 a0     energy gain  -0.3631080E-01 Eh

........................................................................
.............................. CYCLE   43 ..............................
........................................................................

 iter      E             dE          RMSdq      gap      omega  full diag
   1  -3478.6887296 -0.347869E+04  0.135E-03   10.83       0.0  T
   2  -3478.6887296 -0.346085E-07  0.789E-04   10.83       2.2  T
   3  -3478.6887296 -0.105656E-07  0.510E-05   10.83      34.3  T
     SCC iter.                  ...        3 min,  0.235 sec
     gradient                   ...        3 min, 44.188 sec
 * total energy  : -3427.4461479 Eh     change    :  -0.7129911E-03 Eh
   gradient norm :     0.0212639 Eh/a0  converged?    E=F G=F D=F
   time step     :     0.2500000 fs     power     :   0.3723821E-07
   step length   :     0.0543942 a0     speed     :   0.5262932E-02

........................................................................
.............................. CYCLE   44 ..............................
........................................................................

 iter      E             dE          RMSdq      gap      omega  full diag
   1  -3478.6850840 -0.347869E+04  0.129E-03   10.83       0.0  T
   2  -3478.6850841 -0.162620E-06  0.759E-04   10.83       2.3  T
   3  -3478.6850841 -0.113400E-07  0.870E-05   10.83      20.1  T
     SCC iter.                  ...        3 min,  0.275 sec
     gradient                   ...        3 min, 43.606 sec
 * total energy  : -3427.4469065 Eh     change    :  -0.7586580E-03 Eh
   gradient norm :     0.0196439 Eh/a0  converged?    E=F G=F D=F
   time step     :     0.2500000 fs     power     :   0.3946365E-07
   step length   :     0.0532758 a0     speed     :   0.5154717E-02

........................................................................
.............................. CYCLE   45 ..............................
........................................................................

 iter      E             dE          RMSdq      gap      omega  full diag
   1  -3478.6769440 -0.347868E+04  0.143E-03   10.83       0.0  T
   2  -3478.6769444 -0.404442E-06  0.836E-04   10.83       2.1  T
   3  -3478.6769444 -0.140194E-07  0.162E-04   10.83      10.8  T
     SCC iter.                  ...        2 min, 56.153 sec
     gradient                   ...        3 min, 43.432 sec
 * total energy  : -3427.4476780 Eh     change    :  -0.7714618E-03 Eh
   gradient norm :     0.0174959 Eh/a0  converged?    E=F G=F D=F
   time step     :     0.2500000 fs     power     :   0.3961839E-07
   step length   :     0.0527483 a0     speed     :   0.5103681E-02

........................................................................
.............................. CYCLE   46 ..............................
........................................................................

 iter      E             dE          RMSdq      gap      omega  full diag
   1  -3478.6672312 -0.347867E+04  0.156E-03   10.83       0.0  T
   2  -3478.6672317 -0.526914E-06  0.910E-04   10.83       1.9  T
   3  -3478.6672317 -0.157274E-07  0.190E-04   10.83       9.2  T
     SCC iter.                  ...        3 min,  0.566 sec
     gradient                   ...        3 min, 45.079 sec
 * total energy  : -3427.4484291 Eh     change    :  -0.7510760E-03 Eh
   gradient norm :     0.0163691 Eh/a0  converged?    E=F G=F D=F
   time step     :     0.2500000 fs     power     :   0.3820968E-07
   step length   :     0.0526993 a0     speed     :   0.5098943E-02

........................................................................
.............................. CYCLE   47 ..............................
........................................................................

 iter      E             dE          RMSdq      gap      omega  full diag
   1  -3478.6595915 -0.347866E+04  0.157E-03   10.83       0.0  T
   2  -3478.6595919 -0.392699E-06  0.918E-04   10.83       1.9  T
   3  -3478.6595919 -0.141986E-07  0.152E-04   10.83      11.5  T
     SCC iter.                  ...        3 min,  0.311 sec
     gradient                   ...        3 min, 43.446 sec
 * total energy  : -3427.4491520 Eh     change    :  -0.7229420E-03 Eh
   gradient norm :     0.0166553 Eh/a0  converged?    E=F G=F D=F
   time step     :     0.2500000 fs     power     :   0.3693270E-07
   step length   :     0.0527394 a0     speed     :   0.5102825E-02

........................................................................
.............................. CYCLE   48 ..............................
........................................................................

 iter      E             dE          RMSdq      gap      omega  full diag
   1  -3478.6566146 -0.347866E+04  0.167E-03   10.83       0.0  T
   2  -3478.6566148 -0.183144E-06  0.974E-04   10.83       1.8  T
   3  -3478.6566148 -0.132709E-07  0.844E-05   10.83      20.8  T
     SCC iter.                  ...        3 min,  1.077 sec
     gradient                   ...        3 min, 43.749 sec
 * total energy  : -3427.4499347 Eh     change    :  -0.7827129E-03 Eh
   gradient norm :     0.0171196 Eh/a0  converged?    E=F G=F D=F
   time step     :     0.2750000 fs     power     :   0.3667862E-07
   step length   :     0.0579001 a0     speed     :   0.5092860E-02

........................................................................
.............................. CYCLE   49 ..............................
........................................................................

 iter      E             dE          RMSdq      gap      omega  full diag
   1  -3478.6607615 -0.347866E+04  0.182E-03   10.83       0.0  T
   2  -3478.6607615 -0.580912E-07  0.106E-03   10.83       1.6  T
   3  -3478.6607615 -0.149466E-07  0.552E-05   10.83      31.8  T
   4  -3478.6607615 -0.349019E-08  0.276E-05   10.83      63.4  T
     SCC iter.                  ...        4 min,  3.078 sec
     gradient                   ...        3 min, 43.415 sec
 * total energy  : -3427.4507989 Eh     change    :  -0.8641459E-03 Eh
   gradient norm :     0.0164004 Eh/a0  converged?    E=F G=F D=F
   time step     :     0.3025000 fs     power     :   0.3692362E-07
   step length   :     0.0635427 a0     speed     :   0.5081069E-02

........................................................................
.............................. CYCLE   50 ..............................
........................................................................

 iter      E             dE          RMSdq      gap      omega  full diag
   1  -3478.6726924 -0.347867E+04  0.210E-03   10.83       0.0  T
   2  -3478.6726926 -0.222742E-06  0.122E-03   10.83       1.4  T
   3  -3478.6726926 -0.212990E-07  0.970E-05   10.83      18.1  T
   4  -3478.6726926 -0.493765E-08  0.380E-05   10.83      46.2  T
     SCC iter.                  ...        3 min, 57.706 sec
     gradient                   ...        3 min, 43.916 sec
 * total energy  : -3427.4517397 Eh     change    :  -0.9408402E-03 Eh
   gradient norm :     0.0144671 Eh/a0  converged?    E=F G=F D=F
   time step     :     0.3327500 fs     power     :   0.3614217E-07
   step length   :     0.0701363 a0     speed     :   0.5098470E-02

........................................................................
.............................. CYCLE   51 ..............................
........................................................................

 iter      E             dE          RMSdq      gap      omega  full diag
   1  -3478.6899580 -0.347869E+04  0.237E-03   10.83       0.0  T
   2  -3478.6899585 -0.514976E-06  0.137E-03   10.83       1.3  T
   3  -3478.6899586 -0.294026E-07  0.162E-04   10.83      10.8  T
   4  -3478.6899586 -0.727096E-08  0.488E-05   10.83      35.9  T
     SCC iter.                  ...        3 min, 59.303 sec
     gradient                   ...        3 min, 45.448 sec
 * total energy  : -3427.4527228 Eh     change    :  -0.9831005E-03 Eh
   gradient norm :     0.0133553 Eh/a0  converged?    E=F G=F D=F
   time step     :     0.3660250 fs     power     :   0.3375703E-07
   step length   :     0.0780858 a0     speed     :   0.5160316E-02

........................................................................
.............................. CYCLE   52 ..............................
........................................................................

 iter      E             dE          RMSdq      gap      omega  full diag
   1  -3478.7053960 -0.347871E+04  0.239E-03   10.84       0.0  T
   2  -3478.7053964 -0.397129E-06  0.139E-03   10.84       1.3  T
   3  -3478.7053964 -0.308537E-07  0.134E-04   10.84      13.0  T
   4  -3478.7053965 -0.665341E-08  0.477E-05   10.84      36.8  T
     SCC iter.                  ...        4 min,  6.506 sec
     gradient                   ...        3 min, 45.963 sec
 * total energy  : -3427.4537354 Eh     change    :  -0.1012602E-02 Eh
   gradient norm :     0.0142361 Eh/a0  converged?    E=F G=F D=F
   time step     :     0.4026275 fs     power     :   0.3169378E-07
   step length   :     0.0869463 a0     speed     :   0.5223514E-02

........................................................................
.............................. CYCLE   53 ..............................
........................................................................

 iter      E             dE          RMSdq      gap      omega  full diag
   1  -3478.7112611 -0.347871E+04  0.226E-03   10.84       0.0  T
   2  -3478.7112612 -0.962968E-07  0.132E-03   10.84       1.3  T
   3  -3478.7112612 -0.272462E-07  0.728E-05   10.84      24.1  T
   4  -3478.7112612 -0.495129E-08  0.393E-05   10.84      44.6  T
     SCC iter.                  ...        3 min, 57.160 sec
     gradient                   ...        3 min, 45.570 sec
 * total energy  : -3427.4548191 Eh     change    :  -0.1083654E-02 Eh
   gradient norm :     0.0143074 Eh/a0  converged?    E=F G=F D=F
   time step     :     0.4428903 fs     power     :   0.3125468E-07
   step length   :     0.0959300 a0     speed     :   0.5239301E-02

........................................................................
.............................. CYCLE   54 ..............................
........................................................................

 iter      E             dE          RMSdq      gap      omega  full diag
   1  -3478.7046778 -0.347870E+04  0.232E-03   10.84       0.0  T
   2  -3478.7046783 -0.427445E-06  0.137E-03   10.84       1.3  T
   3  -3478.7046783 -0.324703E-07  0.127E-04   10.84      13.8  T
   4  -3478.7046783 -0.646332E-08  0.458E-05   10.84      38.3  T
     SCC iter.                  ...        3 min, 55.911 sec
     gradient                   ...        3 min, 52.753 sec
 * total energy  : -3427.4559925 Eh     change    :  -0.1173412E-02 Eh
   gradient norm :     0.0126826 Eh/a0  converged?    E=F G=F D=F
   time step     :     0.4871793 fs     power     :   0.3049962E-07
   step length   :     0.1059027 a0     speed     :   0.5258153E-02

........................................................................
.............................. CYCLE   55 ..............................
........................................................................

 iter      E             dE          RMSdq      gap      omega  full diag
   1  -3478.6913114 -0.347869E+04  0.242E-03   10.84       0.0  T
   2  -3478.6913123 -0.919304E-06  0.143E-03   10.84       1.2  T
   3  -3478.6913123 -0.452528E-07  0.225E-04   10.84       7.8  T
   4  -3478.6913124 -0.998580E-08  0.621E-05   10.84      28.2  T
     SCC iter.                  ...        3 min, 58.345 sec
     gradient                   ...        3 min, 45.129 sec
 * total energy  : -3427.4572195 Eh     change    :  -0.1227045E-02 Eh
   gradient norm :     0.0128713 Eh/a0  converged?    E=F G=F D=F
   time step     :     0.5358972 fs     power     :   0.2861651E-07
   step length   :     0.1177983 a0     speed     :   0.5317075E-02

........................................................................
.............................. CYCLE   56 ..............................
........................................................................

 iter      E             dE          RMSdq      gap      omega  full diag
   1  -3478.6862642 -0.347869E+04  0.232E-03   10.84       0.0  T
   2  -3478.6862646 -0.354667E-06  0.137E-03   10.84       1.3  T
   3  -3478.6862646 -0.453679E-07  0.126E-04   10.84      13.9  T
   4  -3478.6862646 -0.811178E-08  0.611E-05   10.84      28.7  T
     SCC iter.                  ...        4 min,  4.297 sec
     gradient                   ...        3 min, 45.384 sec
 * total energy  : -3427.4585297 Eh     change    :  -0.1310135E-02 Eh
   gradient norm :     0.0136929 Eh/a0  converged?    E=F G=F D=F
   time step     :     0.5894869 fs     power     :   0.2832631E-07
   step length   :     0.1303514 a0     speed     :   0.5348803E-02

........................................................................
.............................. CYCLE   57 ..............................
........................................................................

 iter      E             dE          RMSdq      gap      omega  full diag
   1  -3478.6988727 -0.347870E+04  0.270E-03   10.84       0.0  T
   2  -3478.6988731 -0.312026E-06  0.157E-03   10.85       1.1  T
   3  -3478.6988731 -0.367959E-07  0.136E-04   10.85      12.9  T
   4  -3478.6988731 -0.995533E-08  0.542E-05   10.85      32.3  T
     SCC iter.                  ...        3 min, 58.213 sec
     gradient                   ...        3 min, 45.304 sec
 * total energy  : -3427.4599782 Eh     change    :  -0.1448493E-02 Eh
   gradient norm :     0.0121076 Eh/a0  converged?    E=F G=F D=F
   time step     :     0.6484356 fs     power     :   0.2836072E-07
   step length   :     0.1439274 a0     speed     :   0.5368979E-02

........................................................................
.............................. CYCLE   58 ..............................
........................................................................

 iter      E             dE          RMSdq      gap      omega  full diag
   1  -3478.7229358 -0.347872E+04  0.319E-03   10.85       0.0  T
   2  -3478.7229365 -0.733422E-06  0.184E-03   10.85       1.0  T
   3  -3478.7229366 -0.373821E-07  0.207E-04   10.85       8.5  T
   4  -3478.7229366 -0.117393E-07  0.551E-05   10.85      31.8  T
     SCC iter.                  ...        3 min, 58.981 sec
     gradient                   ...        3 min, 44.457 sec
 * total energy  : -3427.4615212 Eh     change    :  -0.1543026E-02 Eh
   gradient norm :     0.0126365 Eh/a0  converged?    E=F G=F D=F
   time step     :     0.7132792 fs     power     :   0.2709287E-07
   step length   :     0.1604454 a0     speed     :   0.5441051E-02

........................................................................
.............................. CYCLE   59 ..............................
........................................................................

 iter      E             dE          RMSdq      gap      omega  full diag
   1  -3478.7368182 -0.347874E+04  0.302E-03   10.85       0.0  T
   2  -3478.7368184 -0.202913E-06  0.179E-03   10.85       1.0  T
   3  -3478.7368184 -0.511782E-07  0.117E-04   10.85      15.0  T
   4  -3478.7368184 -0.949058E-08  0.683E-05   10.85      25.6  T
     SCC iter.                  ...        3 min, 54.320 sec
     gradient                   ...        3 min, 45.305 sec
 * total energy  : -3427.4632074 Eh     change    :  -0.1686205E-02 Eh
   gradient norm :     0.0122182 Eh/a0  converged?    E=F G=F D=F
   time step     :     0.7846071 fs     power     :   0.2743741E-07
   step length   :     0.1780043 a0     speed     :   0.5487736E-02

........................................................................
.............................. CYCLE   60 ..............................
........................................................................

 iter      E             dE          RMSdq      gap      omega  full diag
   1  -3478.7368931 -0.347874E+04  0.324E-03   10.86       0.0  T
   2  -3478.7368944 -0.137258E-05  0.197E-03   10.86       1.0  T
   3  -3478.7368945 -0.738592E-07  0.249E-04   10.86       7.0  T
   4  -3478.7368945 -0.188738E-07  0.877E-05   10.86      20.0  T
     SCC iter.                  ...        3 min, 55.519 sec
     gradient                   ...        3 min, 45.408 sec
 * total energy  : -3427.4650339 Eh     change    :  -0.1826540E-02 Eh
   gradient norm :     0.0112758 Eh/a0  converged?    E=F G=F D=F
   time step     :     0.8630678 fs     power     :   0.2629291E-07
   step length   :     0.1985106 a0     speed     :   0.5563575E-02

........................................................................
.............................. CYCLE   61 ..............................
........................................................................

 iter      E             dE          RMSdq      gap      omega  full diag
   1  -3478.7543698 -0.347875E+04  0.371E-03   10.86       0.0  T
   2  -3478.7543701 -0.324503E-06  0.221E-03   10.86       1.0  T
   3  -3478.7543702 -0.582136E-07  0.122E-04   10.86      14.4  T
   4  -3478.7543702 -0.965019E-08  0.656E-05   10.86      26.7  T
     SCC iter.                  ...        3 min, 57.267 sec
     gradient                   ...        3 min, 43.629 sec
 * total energy  : -3427.4669762 Eh     change    :  -0.1942309E-02 Eh
   gradient norm :     0.0110499 Eh/a0  converged?    E=F G=F D=F
   time step     :     0.9493746 fs     power     :   0.2579692E-07
   step length   :     0.2218931 a0     speed     :   0.5653552E-02

........................................................................
.............................. CYCLE   62 ..............................
........................................................................

 iter      E             dE          RMSdq      gap      omega  full diag
   1  -3478.7983271 -0.347880E+04  0.519E-03   10.87       0.0  T
   2  -3478.7983284 -0.131187E-05  0.300E-03   10.87       1.0  T
   3  -3478.7983285 -0.726081E-07  0.254E-04   10.87       6.9  T
   4  -3478.7983285 -0.144837E-07  0.691E-05   10.87      25.4  T
     SCC iter.                  ...        3 min, 58.552 sec
     gradient                   ...        3 min, 44.607 sec
 * total energy  : -3427.4690161 Eh     change    :  -0.2039883E-02 Eh
   gradient norm :     0.0105651 Eh/a0  converged?    E=F G=F D=F
   time step     :     1.0443120 fs     power     :   0.2372495E-07
   step length   :     0.2482684 a0     speed     :   0.5750508E-02

........................................................................
.............................. CYCLE   63 ..............................
........................................................................

 iter      E             dE          RMSdq      gap      omega  full diag
   1  -3478.8114505 -0.347881E+04  0.482E-03   10.87       0.0  T
   2  -3478.8114513 -0.830813E-06  0.286E-03   10.87       1.0  T
   3  -3478.8114514 -0.611631E-07  0.169E-04   10.87      10.4  T
   4  -3478.8114514 -0.246928E-07  0.675E-05   10.87      26.0  T
     SCC iter.                  ...        3 min, 55.374 sec
     gradient                   ...        3 min, 45.192 sec
 * total energy  : -3427.4711238 Eh     change    :  -0.2107676E-02 Eh
   gradient norm :     0.0090871 Eh/a0  converged?    E=F G=F D=F
   time step     :     1.1487432 fs     power     :   0.2254422E-07
   step length   :     0.2768255 a0     speed     :   0.5829056E-02

........................................................................
.............................. CYCLE   64 ..............................
........................................................................

 iter      E             dE          RMSdq      gap      omega  full diag
   1  -3478.8085621 -0.347881E+04  0.487E-03   10.88       0.0  T
   2  -3478.8085637 -0.161936E-05  0.291E-03   10.88       1.0  T
   3  -3478.8085638 -0.657105E-07  0.224E-04   10.88       7.8  T
   4  -3478.8085638 -0.268742E-07  0.733E-05   10.88      23.9  T
     SCC iter.                  ...        3 min, 57.916 sec
     gradient                   ...        3 min, 42.696 sec
 * total energy  : -3427.4732279 Eh     change    :  -0.2104080E-02 Eh
   gradient norm :     0.0106416 Eh/a0  converged?    E=F G=F D=F
   time step     :     1.2500000 fs     power     :   0.2028984E-07
   step length   :     0.3067917 a0     speed     :   0.5936750E-02

........................................................................
.............................. CYCLE   65 ..............................
........................................................................

 iter      E             dE          RMSdq      gap      omega  full diag
   1  -3478.8493857 -0.347885E+04  0.588E-03   10.89       0.0  T
   2  -3478.8493878 -0.201085E-05  0.340E-03   10.89       1.0  T
   3  -3478.8493878 -0.739287E-07  0.319E-04   10.89       5.5  T
   4  -3478.8493879 -0.296141E-07  0.785E-05   10.89      22.3  T
     SCC iter.                  ...        3 min, 53.553 sec
     gradient                   ...        3 min, 43.970 sec
 * total energy  : -3427.4751952 Eh     change    :  -0.1967353E-02 Eh
   gradient norm :     0.0105312 Eh/a0  converged?    E=F G=F D=F
   time step     :     1.2500000 fs     power     :   0.1850762E-07
   step length   :     0.3070422 a0     speed     :   0.5941597E-02

........................................................................
.............................. CYCLE   66 ..............................
........................................................................

 iter      E             dE          RMSdq      gap      omega  full diag
   1  -3478.8487961 -0.347885E+04  0.432E-03   10.90       0.0  T
   2  -3478.8487976 -0.150534E-05  0.259E-03   10.90       1.0  T
   3  -3478.8487977 -0.717969E-07  0.230E-04   10.90       7.6  T
   4  -3478.8487977 -0.219566E-07  0.829E-05   10.90      21.1  T
     SCC iter.                  ...        3 min, 56.506 sec
     gradient                   ...        3 min, 42.531 sec
 * total energy  : -3427.4770674 Eh     change    :  -0.1872165E-02 Eh
   gradient norm :     0.0087890 Eh/a0  converged?    E=F G=F D=F
   time step     :     1.2500000 fs     power     :   0.1819797E-07
[...]
  3011   6 C     3012   6 C                                       1.5291205
  3012   6 C     3013   6 C                                       1.5276249
  3013   6 C     3014   6 C                                       1.5269973
  3014   6 C     3015   6 C                                       1.5295572
  3015   6 C     3016   6 C                                       1.5240293
  3015   6 C     3017   1 H                                       1.0921880
  3015   6 C     3018   1 H                                       1.0931506
  3014   6 C     3019   1 H                                       1.0937885
  3014   6 C     3020   1 H                                       1.0931437
  3013   6 C     3021   1 H                                       1.0913442
  3013   6 C     3022   1 H                                       1.0910163
  3012   6 C     3023   1 H                                       1.0935568
  3012   6 C     3024   1 H                                       1.0937016
  3011   6 C     3025   1 H                                       1.0933192
  3011   6 C     3026   1 H                                       1.0926625
  3010   6 C     3027   1 H                                       1.0918526
  3010   6 C     3028   1 H                                       1.0921658
  3009   6 C     3029   1 H                                       1.0916220
  3009   6 C     3030   1 H                                       1.0921392
  3008   6 C     3031   1 H                                       1.0934619
  3008   6 C     3032   1 H                                       1.0927220
  3007   6 C     3033   1 H                                       1.0933312
  3007   6 C     3034   1 H                                       1.0923580
  3006   6 C     3035   1 H                                       1.0935395
  3006   6 C     3036   1 H                                       1.0925826
  3005   6 C     3037   1 H                                       1.0939387
  3005   6 C     3038   1 H                                       1.0925589
  3004   6 C     3039   1 H                                       1.0934934
  3004   6 C     3040   1 H                                       1.0925976
  3003   6 C     3041   1 H                                       1.0940308
  3003   6 C     3042   1 H                                       1.0924472
  3002   6 C     3043   1 H                                       1.0933329
  3002   6 C     3044   1 H                                       1.0929164
  3001   6 C     3045   1 H                                       1.0936574
  3001   6 C     3046   1 H                                       1.0922327
  3000   6 C     3047   1 H                                       1.0929927
  3000   6 C     3048   1 H                                       1.0934804
  2999   6 C     3049   1 H                                       1.0936473
  2999   6 C     3050   1 H                                       1.0924753
  2998   6 C     3051   1 H                                       1.0927677
  2998   6 C     3052   1 H                                       1.0940934
  2997   6 C     3053   1 H                                       1.0895732
  2997   6 C     3054   1 H                                       1.0927805
  2996   6 C     3055   1 H                                       1.0934202
  2996   6 C     3056   1 H                                       1.0936972
  2995   6 C     3057   1 H                                       1.0906081
  2995   6 C     3058   1 H                                       1.0946179
  2994   6 C     3059   1 H                                       1.0919371
  2994   6 C     3060   1 H                                       1.0935972
  2993   6 C     3061   1 H                                       1.0937895
  2993   6 C     3062   1 H                                       1.0887281
  2992   6 C     3063   1 H                                       1.0893806
  2992   6 C     3064   1 H                                       1.0928142
  2991   6 C     3065   1 H                                       1.0931231
  2991   6 C     3066   1 H                                       1.0946051
  2990   6 C     3067   1 H                                       1.0928463
  2990   6 C     3068   1 H                                       1.0924637
  2989   6 C     3069   1 H                                       1.0908838
  2989   6 C     3070   1 H                                       1.0929274
  2988   6 C     3071   1 H                                       1.0932053
  2988   6 C     3072   1 H                                       1.0941582
  2987   6 C     3073   1 H                                       1.0924525
  2987   6 C     3074   1 H                                       1.0925665
  2986   6 C     3075   1 H                                       1.0935568
  2986   6 C     3076   1 H                                       1.0931736
  2985   6 C     3077   1 H                                       1.0930421
  2985   6 C     3078   1 H                                       1.0926759
  2984   6 C     3079   1 H                                       1.0940078
  2984   6 C     3080   1 H                                       1.0926574
  2983   6 C     3081   1 H                                       1.0931105
  2983   6 C     3082   1 H                                       1.0927820
  2982   6 C     3083   1 H                                       1.0929173
  2982   6 C     3084   1 H                                       1.0926315
  2981   6 C     3085   1 H                                       1.0931290
  2981   6 C     3086   1 H                                       1.0910506
  2980   6 C     3087   1 H                                       1.0916580
  2980   6 C     3088   1 H                                       1.0930886
  2979   6 C     3089   1 H                                       1.0939790
  2979   6 C     3090   1 H                                       1.0925702
  2978   6 C     3091   1 H                                       1.0904757
  2978   6 C     3092   1 H                                       1.0936660
  2977   6 C     3093   1 H                                       1.0922083
  2977   6 C     3094   1 H                                       1.0911088
  2976   6 C     3095   1 H                                       1.0938314
  2976   6 C     3096   1 H                                       1.0937331
  2975   6 C     3097   1 H                                       1.0915801
  2975   6 C     3098   1 H                                       1.0937158
  2974   6 C     3099   1 H                                       1.0933170
  2974   6 C     3100   1 H                                       1.0910241
  2973   6 C     3101   1 H                                       1.0912295
  2973   6 C     3102   1 H                                       1.0928949
  2972   6 C     3103   1 H                                       1.0933300
  2972   6 C     3104   1 H                                       1.0928824
  2971   6 C     3105   1 H                                       1.0928584
  2971   6 C     3106   1 H                                       1.0933442
  2970   6 C     3107   1 H                                       1.0911630
  2970   6 C     3108   1 H                                       1.0917182
  2969   6 C     3109   1 H                                       1.0935549
  2969   6 C     3110   1 H                                       1.0928757
  2968   6 C     3111   1 H                                       1.0934688
  2968   6 C     3112   1 H                                       1.0939444
  2967   6 C     3113   1 H                                       1.0928339
  2967   6 C     3114   1 H                                       1.0909399
  2966   6 C     3115   1 H                                       1.0939530
  2966   6 C     3116   1 H                                       1.0930537
  2965   6 C     3117   1 H                                       1.0920045
  2965   6 C     3118   1 H                                       1.0927703
  2964   6 C     3119   1 H                                       1.0941272
  2964   6 C     3120   1 H                                       1.0926450
  2963   6 C     3121   1 H                                       1.0922433
  2963   6 C     3122   1 H                                       1.0926313
  2962   6 C     3123   1 H                                       1.0938688
  2962   6 C     3124   1 H                                       1.0925942
  2961   6 C     3125   1 H                                       1.0923097
  2961   6 C     3126   1 H                                       1.0927551
  2960   6 C     3127   1 H                                       1.0933555
  2960   6 C     3128   1 H                                       1.0925789
  2959   6 C     3129   1 H                                       1.0927445
  2959   6 C     3130   1 H                                       1.0934618
  2958   6 C     3131   1 H                                       1.0929949
  2958   6 C     3132   1 H                                       1.0926366
  2957   6 C     3133   1 H                                       1.0928131
  2957   6 C     3134   1 H                                       1.0937073
  2956   6 C     3135   1 H                                       1.0929242
  2956   6 C     3136   1 H                                       1.0936048
  2955   6 C     3137   1 H                                       1.0921551
  2955   6 C     3138   1 H                                       1.0934608
  2954   6 C     3139   1 H                                       1.0936158
  2954   6 C     3140   1 H                                       1.0936000
  2953   6 C     3141   1 H                                       1.0907778
  2953   6 C     3142   1 H                                       1.0932811
  2952   6 C     3143   1 H                                       1.0939101
  2952   6 C     3144   1 H                                       1.0932754
  2951   6 C     3145   1 H                                       1.0924892
  2951   6 C     3146   1 H                                       1.0918097
  2950   6 C     3147   1 H                                       1.0932286
  2950   6 C     3148   1 H                                       1.0909298
  2949   6 C     3149   1 H                                       1.0917114
  2949   6 C     3150   1 H                                       1.0924505
  2948   6 C     3151   1 H                                       1.0929455
  2948   6 C     3152   1 H                                       1.0929842
  2947   6 C     3153   1 H                                       1.0935370
  2947   6 C     3154   1 H                                       1.0924520
  2946   6 C     3155   1 H                                       1.0933443
  2946   6 C     3156   1 H                                       1.0923860
  2945   6 C     3157   1 H                                       1.0923912
  2945   6 C     3158   1 H                                       1.0925144
  2944   6 C     3159   1 H                                       1.0933433
  2944   6 C     3160   1 H                                       1.0917676
  2943   6 C     3161   1 H                                       1.0924707
  2943   6 C     3162   1 H                                       1.0929949
  2942   6 C     3163   1 H                                       1.0929832
  2942   6 C     3164   1 H                                       1.0925920
  2941   6 C     3165   1 H                                       1.0930163
  2941   6 C     3166   1 H                                       1.0932585
  2940   6 C     3167   1 H                                       1.0928504
  2940   6 C     3168   1 H                                       1.0931455
  2939   6 C     3169   1 H                                       1.0919996
  2939   6 C     3170   1 H                                       1.0925570
  2938   6 C     3171   1 H                                       1.0936127
  2938   6 C     3172   1 H                                       1.0932155
  2937   6 C     3173   1 H                                       1.0900345
  2937   6 C     3174   1 H                                       1.0922176
  2936   6 C     3175   1 H                                       1.0936709
  2936   6 C     3176   1 H                                       1.0930560
  2935   6 C     3177   1 H                                       1.0927077
  2935   6 C     3178   1 H                                       1.0938051
  2934   6 C     3179   1 H                                       1.0931079
  2934   6 C     3180   1 H                                       1.0913054
  2933   6 C     3181   1 H                                       1.0927181
  2933   6 C     3182   1 H                                       1.0933134
  2932   6 C     3183   1 H                                       1.0923507
  2932   6 C     3184   1 H                                       1.0921863
  2931   6 C     3185   1 H                                       1.0927603
  2931   6 C     3186   1 H                                       1.0927170
  2930   6 C     3187   1 H                                       1.0927372
  2930   6 C     3188   1 H                                       1.0925613
  2929   6 C     3189   1 H                                       1.0929010
  2929   6 C     3190   1 H                                       1.0929747
  2928   6 C     3191   1 H                                       1.0915607
  2928   6 C     3192   1 H                                       1.0927850
  2927   6 C     3193   1 H                                       1.0934881
  2927   6 C     3194   1 H                                       1.0929287
  2926   6 C     3195   1 H                                       1.0933296
  2926   6 C     3196   1 H                                       1.0937343
  2925   6 C     3197   1 H                                       1.0921960
  2925   6 C     3198   1 H                                       1.0909679
  2924   6 C     3199   1 H                                       1.0933518
  2924   6 C     3200   1 H                                       1.0929605
  2923   6 C     3201   1 H                                       1.0911370
  2923   6 C     3202   1 H                                       1.0919814
  2922   6 C     3203   1 H                                       1.0933458
  2922   6 C     3204   1 H                                       1.0925698
  2921   6 C     3205   1 H                                       1.0922409
  2921   6 C     3206   1 H                                       1.0920983
  2920   6 C     3207   1 H                                       1.0914141
  2920   6 C     3208   1 H                                       1.0918926
  2919   6 C     3209   1 H                                       1.0934058
  2919   6 C     3210   1 H                                       1.0922926
  2918   6 C     3211   1 H                                       1.0911651
  2918   6 C     3212   1 H                                       1.0937041
  2917   6 C     3213   1 H                                       1.0929864
  2917   6 C     3214   1 H                                       1.0922599
  2916   6 C     3215   1 H                                       1.0936924
  2916   6 C     3216   1 H                                       1.0919233
  2915   6 C     3217   1 H                                       1.0915421
  2915   6 C     3218   1 H                                       1.0927999
  2914   6 C     3219   1 H                                       1.0929037
  2914   6 C     3220   1 H                                       1.0921718
  2913   6 C     3221   1 H                                       1.0931073
  2913   6 C     3222   1 H                                       1.0934943
  2912   6 C     3223   1 H                                       1.0930719
  2912   6 C     3224   1 H                                       1.0929604
  2911   6 C     3225   1 H                                       1.0916780
  2911   6 C     3226   1 H                                       1.0929247
  2910   6 C     3227   1 H                                       1.0932048
  2910   6 C     3228   1 H                                       1.0908428
  2909   6 C     3229   1 H                                       1.0920737
  2909   6 C     3230   1 H                                       1.0935178
  2908   6 C     3231   1 H                                       1.0927771
  2908   6 C     3232   1 H                                       1.0906076
  2907   6 C     3233   1 H                                       1.0928584
  2907   6 C     3234   1 H                                       1.0935652
  2906   6 C     3235   1 H                                       1.0932525
  2906   6 C     3236   1 H                                       1.0930826
  2905   6 C     3237   1 H                                       1.0908718
  2905   6 C     3238   1 H                                       1.0935533
  2904   6 C     3239   1 H                                       1.0941610
  2904   6 C     3240   1 H                                       1.0925738
  2903   6 C     3241   1 H                                       1.0925865
  2903   6 C     3242   1 H                                       1.0940766
  2902   6 C     3243   1 H                                       1.0931276
  2902   6 C     3244   1 H                                       1.0915128
  2901   6 C     3245   1 H                                       1.0912272
  2901   6 C     3246   1 H                                       1.0930731
  2900   6 C     3247   1 H                                       1.0931828
  2900   6 C     3248   1 H                                       1.0933250
  2899   6 C     3249   1 H                                       1.0932681
  2899   6 C     3250   1 H                                       1.0928687
  2898   6 C     3251   1 H                                       1.0926898
  2898   6 C     3252   1 H                                       1.0928094
  2897   6 C     3253   1 H                                       1.0880037
  2897   6 C     3254   1 H                                       1.0875394
  2897   6 C     3255   1 H                                       1.0879466
  3016   6 C     3256   1 H                                       1.0878707
  3016   6 C     3257   1 H                                       1.0880664
  3016   6 C     3258   1 H                                       1.0862211

 * 2 distinct bonds (by element types)

   Z      Z             #   av. dist./Å        max./Å        min./Å
   1 H    6 C        2178     1.0925751     1.0948210     1.0860503
   6 C    6 C        1071     1.5272406     1.5357756     1.5213274


optimized geometry written to: xtbopt.xyz


           -------------------------------------------------
          | TOTAL ENERGY            -3427.568666245249 Eh   |
          | GRADIENT NORM               0.000718452146 Eh/α |
          | HOMO-LUMO GAP              11.255800274162 eV   |
           -------------------------------------------------

------------------------------------------------------------------------
 * finished run on 2024/06/21 at 00:19:28.925     
------------------------------------------------------------------------
 total:
 * wall-time:     3 d,  9 h,  0 min, 41.345 sec
 *  cpu-time:    18 d,  0 h, 23 min, 20.952 sec
 * ratio c/w:     5.337 speedup
 SCF:
 * wall-time:     0 d,  0 h,  7 min, 14.599 sec
 *  cpu-time:     0 d,  0 h, 38 min, 38.992 sec
 * ratio c/w:     5.336 speedup
 ANC optimizer:
 * wall-time:     3 d,  8 h, 52 min, 45.057 sec
 *  cpu-time:    17 d, 23 h, 43 min, 44.592 sec
 * ratio c/w:     5.338 speedup

