      -----------------------------------------------------------      
     |                   =====================                   |     
     |                           x T B                           |     
     |                   =====================                   |     
     |                         S. Grimme                         |     
     |          Mulliken Center for Theoretical Chemistry        |     
     |                    University of Bonn                     |     
      -----------------------------------------------------------      

   * xtb version 6.6.1 (8d0f1dd) compiled by 'stahn@M-Bot' on 2023-08-01

   xtb is free software: you can redistribute it and/or modify it under
   the terms of the GNU Lesser General Public License as published by
   the Free Software Foundation, either version 3 of the License, or
   (at your option) any later version.
   
   xtb is distributed in the hope that it will be useful,
   but WITHOUT ANY WARRANTY; without even the implied warranty of
   MERCHANTABILITY or FITNESS FOR A PARTICULAR PURPOSE.  See the
   GNU Lesser General Public License for more details.
   
   Cite this work as:
   * C. Bannwarth, E. Caldeweyher, S. Ehlert, A. Hansen, P. Pracht,
     J. Seibert, S. Spicher, S. Grimme, WIREs Comput. Mol. Sci., 2020, 11,
     e01493. DOI: 10.1002/wcms.1493
   
   for GFN2-xTB:
   * C. Bannwarth, S. Ehlert and S. Grimme., J. Chem. Theory Comput., 2019,
     15, 1652-1671. DOI: 10.1021/acs.jctc.8b01176
   for GFN1-xTB:
   * S. Grimme, C. Bannwarth, P. Shushkov, J. Chem. Theory Comput., 2017,
     13, 1989-2009. DOI: 10.1021/acs.jctc.7b00118
   for GFN0-xTB:
   * P. Pracht, E. Caldeweyher, S. Ehlert, S. Grimme, ChemRxiv, 2019, preprint.
     DOI: 10.26434/chemrxiv.8326202.v1
   for GFN-FF:
   * S. Spicher and S. Grimme, Angew. Chem. Int. Ed., 2020, 59, 15665-15673.
     DOI: 10.1002/anie.202004239
   
   for ALPB and GBSA implicit solvation:
   * S. Ehlert, M. Stahn, S. Spicher, S. Grimme, J. Chem. Theory Comput.,
     2021, 17, 4250-4261. DOI: 10.1021/acs.jctc.1c00471
   
   for DFT-D4:
   * E. Caldeweyher, C. Bannwarth and S. Grimme, J. Chem. Phys., 2017,
     147, 034112. DOI: 10.1063/1.4993215
   * E. Caldeweyher, S. Ehlert, A. Hansen, H. Neugebauer, S. Spicher,
     C. Bannwarth and S. Grimme, J. Chem. Phys., 2019, 150, 154122.
     DOI: 10.1063/1.5090222
   * E. Caldeweyher, J.-M. Mewes, S. Ehlert and S. Grimme, Phys. Chem. Chem. Phys.
     2020, 22, 8499-8512. DOI: 10.1039/D0CP00502A
   
   for sTDA-xTB:
   * S. Grimme and C. Bannwarth, J. Chem. Phys., 2016, 145, 054103.
     DOI: 10.1063/1.4959605
   
   in the mass-spec context:
   * V. Asgeirsson, C. Bauer and S. Grimme, Chem. Sci., 2017, 8, 4879.
     DOI: 10.1039/c7sc00601b
   * J. Koopman and S. Grimme, ACS Omega 2019, 4, 12, 15120-15133.
     DOI: 10.1021/acsomega.9b02011
   
   for metadynamics refer to:
   * S. Grimme, J. Chem. Theory Comput., 2019, 155, 2847-2862
     DOI: 10.1021/acs.jctc.9b00143
   
   for SPH calculations refer to:
   * S. Spicher and S. Grimme, J. Chem. Theory Comput., 2021, 17, 1701-1714
     DOI: 10.1021/acs.jctc.0c01306
   
   with help from (in alphabetical order)
   P. Atkinson, C. Bannwarth, F. Bohle, G. Brandenburg, E. Caldeweyher
   M. Checinski, S. Dohm, S. Ehlert, S. Ehrlich, I. Gerasimov, C. Hölzer
   A. Katbashev, J. Koopman, C. Lavigne, S. Lehtola, F. März, M. Müller,
   F. Musil, H. Neugebauer, J. Pisarek, C. Plett, P. Pracht, F. Pultar,
   J. Seibert, P. Shushkov, S. Spicher, M. Stahn, M. Steiner, T. Strunk,
   J. Stückrath, T. Rose, and J. Unsleber
   
 * started run on 2024/06/17 at 15:17:37.094     

           -------------------------------------------------
          |                Calculation Setup                |
           -------------------------------------------------

          program call               : /home/abt-grimme/AK-bin/xtb input.xyz --input input.inp --opt --gbsa water
          hostname                   : boar058.thch.uni-bonn.de
          coordinate file            : input.xyz
          omp threads                :                     8

   ID    Z sym.   atoms
    1    6 C      1-120, 363-482, 725-844, 1087-1206, 1449-1568, 1811-1930,
                  2173-2292, 2535-2654, 2897-3016
    2    1 H      121-362, 483-724, 845-1086, 1207-1448, 1569-1810,
                  1931-2172, 2293-2534, 2655-2896, 3017-3258

molecular fragmentation (1/2 indicates fragments):
111111111111111111111111111111111111111111111111111111111111111111111111
111111111111111111111111111111111111111111111111111111111111111111111111
111111111111111111111111111111111111111111111111111111111111111111111111
111111111111111111111111111111111111111111111111111111111111111111111111
111111111111111111111111111111111111111111111111111111111111111111111111
112222222222222222222222222222222222222222222222222222222222222222222222
222222222222222222222222222222222222222222222222222222222222222222222222
222222222222222222222222222222222222222222222222222222222222222222222222
222222222222222222222222222222222222222222222222222222222222222222222222
222222222222222222222222222222222222222222222222222222222222222222222222
222222222222222222222222222222222222222222222222222222222222222222222222
222222222222222222222222222222222222222222222222222222222222222222222222
222222222222222222222222222222222222222222222222222222222222222222222222
222222222222222222222222222222222222222222222222222222222222222222222222
222222222222222222222222222222222222222222222222222222222222222222222222
222222222222222222222222222222222222222222222222222222222222222222222222
222222222222222222222222222222222222222222222222222222222222222222222222
222222222222222222222222222222222222222222222222222222222222222222222222
222222222222222222222222222222222222222222222222222222222222222222222222
222222222222222222222222222222222222222222222222222222222222222222222222
222222222222222222222222222222222222222222222222222222222222222222222222
222222222222222222222222222222222222222222222222222222222222222222222222
222222222222222222222222222222222222222222222222222222222222222222222222
222222222222222222222222222222222222222222222222222222222222222222222222
222222222222222222222222222222222222222222222222222222222222222222222222
222222222222222222222222222222222222222222222222222222222222222222222222
222222222222222222222222222222222222222222222222222222222222222222222222
222222222222222222222222222222222222222222222222222222222222222222222222
222222222222222222222222222222222222222222222222222222222222222222222222
222222222222222222222222222222222222222222222222222222222222222222222222
222222222222222222222222222222222222222222222222222222222222222222222222
222222222222222222222222222222222222222222222222222222222222222222222222
222222222222222222222222222222222222222222222222222222222222222222222222
222222222222222222222222222222222222222222222222222222222222222222222222
222222222222222222222222222222222222222222222222222222222222222222222222
222222222222222222222222222222222222222222222222222222222222222222222222
222222222222222222222222222222222222222222222222222222222222222222222222
222222222222222222222222222222222222222222222222222222222222222222222222
222222222222222222222222222222222222222222222222222222222222222222222222
222222222222222222222222222222222222222222222222222222222222222222222222
222222222222222222222222222222222222222222222222222222222222222222222222
222222222222222222222222222222222222222222222222222222222222222222222222
222222222222222222222222222222222222222222222222222222222222222222222222
222222222222222222222222222222222222222222222222222222222222222222222222
222222222222222222222222222222222222222222222222222222222222222222222222
222222222222222222
# atoms in fragment 1/2:   362  2896
 fragment masses (1/2) :     1685.21    13481.68
CMA distance (Bohr)    :  11.077
constraining FC (au)   :  0.0500

           -------------------------------------------------
          |                 G F N 2 - x T B                 |
           -------------------------------------------------

        Reference                      10.1021/acs.jctc.8b01176
      * Hamiltonian:
        H0-scaling (s, p, d)           1.850000    2.230000    2.230000
        zeta-weighting                 0.500000
      * Dispersion:
        s8                             2.700000
        a1                             0.520000
        a2                             5.000000
        s9                             5.000000
      * Repulsion:
        kExp                           1.500000    1.000000
        rExp                           1.000000
      * Coulomb:
        alpha                          2.000000
        third order                    shell-resolved
        anisotropic                    true
        a3                             3.000000
        a5                             4.000000
        cn-shift                       1.200000
        cn-exp                         4.000000
        max-rad                        5.000000

      * Solvation model:               GBSA
        Solvent                        water
        Parameter file                 internal GFN2-xTB/GBSA
        Dielectric constant                8.0200E+01
        Reference state                gsolv [1 M gas/solution]
        Free energy shift                  1.8574E-03 Eh       1.1656E+00 kcal/mol
        Temperature                        2.9815E+02 K
        Density                            1.0000E+00 kg/L
        Solvent mass                       1.8000E+01 g/mol
        Interaction kernel             Still
        Born radius scaling (c1)           1.5524E+00
        Born radii integrator          GBOBC
        Born offset                        2.4628E-02 a0       4.6540E-02 AA
        H-bond correction              true
        Ion screening                  false
        Surface tension                    1.0000E-05 Eh       1.5569E+01 dyn/cm
        Grid points                               230 per atom
q/qsh data taken from xtbrestart
CAMM data taken from xtbrestart

          ...................................................
          :                      SETUP                      :
          :.................................................:
          :  # basis functions                6498          :
          :  # atomic orbitals                6498          :
          :  # shells                         4338          :
          :  # electrons                      6498          :
          :  max. iterations                   250          :
          :  Hamiltonian                  GFN2-xTB          :
          :  restarted?                       true          :
          :  GBSA solvation                   true          :
          :  PC potential                    false          :
          :  electronic temp.          300.0000000     K    :
          :  accuracy                    1.0000000          :
          :  -> integral cutoff          0.2500000E+02      :
          :  -> integral neglect         0.1000000E-07      :
          :  -> SCF convergence          0.1000000E-05 Eh   :
          :  -> wf. convergence          0.1000000E-03 e    :
          :  Broyden damping             0.4000000          :
          ...................................................

 iter      E             dE          RMSdq      gap      omega  full diag
   1  -3472.2424980 -0.347224E+04  0.720E-05   10.81       0.0  T
   2  -3472.2424980 -0.416412E-08  0.576E-05   10.81      30.4  T
   3  -3472.2424980 -0.654200E-08  0.302E-05   10.81      58.1  T

   *** convergence criteria satisfied after 3 iterations ***

         #    Occupation            Energy/Eh            Energy/eV
      -------------------------------------------------------------
         1        2.0000           -0.6162820             -16.7699
       ...           ...                  ...                  ...
      3243        2.0000           -0.3844805             -10.4622
      3244        2.0000           -0.3842787             -10.4568
      3245        2.0000           -0.3840530             -10.4506
      3246        2.0000           -0.3828007             -10.4165
      3247        2.0000           -0.3827369             -10.4148
      3248        2.0000           -0.3819055             -10.3922
      3249        2.0000           -0.3815334             -10.3821 (HOMO)
      3250                          0.0158218               0.4305 (LUMO)
      3251                          0.0170140               0.4630
      3252                          0.0196422               0.5345
      3253                          0.0213502               0.5810
      3254                          0.0218093               0.5935
       ...                                ...                  ...
      6498                          0.3802340              10.3467
      -------------------------------------------------------------
                  HL-Gap            0.3973551 Eh           10.8126 eV
             Fermi-level           -0.1828558 Eh           -4.9758 eV

 SCC (total)                   0 d,  0 h,  6 min, 49.662 sec
 SCC setup                      ...        0 min,  1.721 sec (  0.420%)
 Dispersion                     ...        0 min,  4.140 sec (  1.011%)
 classical contributions        ...        0 min,  0.128 sec (  0.031%)
 integral evaluation            ...        0 min,  6.025 sec (  1.471%)
 iterations                     ...        2 min, 50.172 sec ( 41.540%)
 molecular gradient             ...        3 min, 39.695 sec ( 53.628%)
 printout                       ...        0 min,  7.780 sec (  1.899%)

         :::::::::::::::::::::::::::::::::::::::::::::::::::::
         ::                     SUMMARY                     ::
         :::::::::::::::::::::::::::::::::::::::::::::::::::::
         :: total energy           -3426.765907854342 Eh    ::
         :: total w/o Gsasa/hb     -3426.676037529416 Eh    ::
         :: gradient norm              0.628534495283 Eh/a0 ::
         :: HOMO-LUMO gap             10.812583130588 eV    ::
         ::.................................................::
         :: SCC energy             -3472.242498000328 Eh    ::
         :: -> isotropic ES            0.282062794754 Eh    ::
         :: -> anisotropic ES          1.272428789234 Eh    ::
         :: -> anisotropic XC          2.131996774687 Eh    ::
         :: -> dispersion             -4.270744782000 Eh    ::
         :: -> Gsolv                  -0.026039565560 Eh    ::
         ::    -> Gelec                0.063830759366 Eh    ::
         ::    -> Gsasa               -0.087898403736 Eh    ::
         ::    -> Ghb                 -0.003829364317 Eh    ::
         ::    -> Gshift               0.001857443127 Eh    ::
         :: repulsion energy          44.769976921467 Eh    ::
         :: add. restraining           0.000000000000 Eh    ::
         :: total charge              -0.000000000009 e     ::
         :::::::::::::::::::::::::::::::::::::::::::::::::::::

      ----------------------------------------------------------- 
     |              Fast Inertial Relaxation Engine              |
      ----------------------------------------------------------- 

          ...................................................
          :                      SETUP                      :
          :.................................................:
          :   energy convergence        0.5000000E-05 Eh    :
          :   grad. convergence         0.1000000E-02 Eh/a0 :
          :   optimization log               true           :
          :   writing optlog all                1     steps :
          :   Hessian reset                    20     steps :
          :   time step scaling                 5     steps :
          :   maximium step len.        1.0000000     a0    :
          :   initial time step         0.2500000     fs    :
          :   maximum time step         1.2500000     fs    :
          :   power reset thr           0.0000000     au    :
          :   alpha parameter           0.1000000           :
          :   BFGS update                   false           :
          :   preconditioning               false           :
          ...................................................

........................................................................
.............................. CYCLE    1 ..............................
........................................................................

 iter      E             dE          RMSdq      gap      omega  full diag
   1  -3472.4756915 -0.347248E+04  0.737E-03   10.85       0.0  T
   2  -3472.4757351 -0.435905E-04  0.387E-03   10.85       1.0  T
   3  -3472.4757355 -0.414289E-06  0.180E-03   10.85       1.0  T
   4  -3472.4757357 -0.144660E-06  0.219E-04   10.85       8.0  T
   5  -3472.4757357 -0.347536E-07  0.138E-04   10.85      12.6  T
     SCC iter.                  ...        4 min, 36.682 sec
     gradient                   ...        3 min, 38.705 sec
 * total energy  : -3426.8108758 Eh     change    :  -0.4496792E-01 Eh
   gradient norm :     0.5949934 Eh/a0  converged?    E=F G=F D=F
   time step     :     0.2500000 fs     power     :   0.2320814E-05
   step length   :     0.0736629 a0     speed     :   0.7127282E-02

........................................................................
.............................. CYCLE    2 ..............................
........................................................................

 iter      E             dE          RMSdq      gap      omega  full diag
   1  -3472.8192161 -0.347282E+04  0.108E-02   10.87       0.0  T
   2  -3472.8193093 -0.931540E-04  0.567E-03   10.87       1.0  T
   3  -3472.8193102 -0.950041E-06  0.263E-03   10.87       1.0  T
   4  -3472.8193106 -0.350684E-06  0.337E-04   10.87       5.2  T
   5  -3472.8193106 -0.817226E-07  0.220E-04   10.87       8.0  T
     SCC iter.                  ...        4 min, 35.281 sec
     gradient                   ...        3 min, 38.053 sec
 * total energy  : -3426.8726997 Eh     change    :  -0.6182396E-01 Eh
   gradient norm :     0.5467808 Eh/a0  converged?    E=F G=F D=F
   time step     :     0.2500000 fs     power     :   0.3138536E-05
   step length   :     0.1084674 a0     speed     :   0.1049481E-01

........................................................................
.............................. CYCLE    3 ..............................
........................................................................

 iter      E             dE          RMSdq      gap      omega  full diag
   1  -3473.2640007 -0.347326E+04  0.138E-02   10.88       0.0  T
   2  -3473.2641521 -0.151395E-03  0.727E-03   10.88       1.0  T
   3  -3473.2641537 -0.163324E-05  0.335E-03   10.88       1.0  T
   4  -3473.2641543 -0.597796E-06  0.442E-04   10.88       4.0  T
   5  -3473.2641544 -0.136265E-06  0.290E-04   10.88       6.0  T
     SCC iter.                  ...        4 min, 31.044 sec
     gradient                   ...        3 min, 38.840 sec
 * total energy  : -3426.9449696 Eh     change    :  -0.7226983E-01 Eh
   gradient norm :     0.4866210 Eh/a0  converged?    E=F G=F D=F
   time step     :     0.2500000 fs     power     :   0.3598630E-05
   step length   :     0.1404191 a0     speed     :   0.1358630E-01

........................................................................
.............................. CYCLE    4 ..............................
........................................................................

 iter      E             dE          RMSdq      gap      omega  full diag
   1  -3473.7985207 -0.347380E+04  0.164E-02   10.89       0.0  T
   2  -3473.7987292 -0.208488E-03  0.861E-03   10.88       1.0  T
   3  -3473.7987316 -0.241598E-05  0.393E-03   10.88       1.0  T
   4  -3473.7987325 -0.856064E-06  0.534E-04   10.88       3.3  T
   5  -3473.7987327 -0.189233E-06  0.349E-04   10.88       5.0  T
     SCC iter.                  ...        4 min, 34.742 sec
     gradient                   ...        3 min, 39.267 sec
 * total energy  : -3427.0204803 Eh     change    :  -0.7551074E-01 Eh
   gradient norm :     0.4189038 Eh/a0  converged?    E=F G=F D=F
   time step     :     0.2500000 fs     power     :   0.3671909E-05
   step length   :     0.1686865 a0     speed     :   0.1632132E-01

........................................................................
.............................. CYCLE    5 ..............................
........................................................................

 iter      E             dE          RMSdq      gap      omega  full diag
   1  -3474.4088952 -0.347441E+04  0.184E-02   10.89       0.0  T
   2  -3474.4091490 -0.253868E-03  0.963E-03   10.89       1.0  T
   3  -3474.4091523 -0.324490E-05  0.433E-03   10.89       1.0  T
   4  -3474.4091534 -0.109272E-05  0.612E-04   10.89       2.9  T
   5  -3474.4091536 -0.230463E-06  0.397E-04   10.89       4.4  T
   6  -3474.4091537 -0.124679E-06  0.167E-04   10.88      10.5  T
     SCC iter.                  ...        5 min, 32.927 sec
     gradient                   ...        3 min, 37.937 sec
 * total energy  : -3427.0922560 Eh     change    :  -0.7177566E-01 Eh
   gradient norm :     0.3503124 Eh/a0  converged?    E=F G=F D=F
   time step     :     0.2500000 fs     power     :   0.3387362E-05
   step length   :     0.1925492 a0     speed     :   0.1863017E-01

........................................................................
.............................. CYCLE    6 ..............................
........................................................................

 iter      E             dE          RMSdq      gap      omega  full diag
   1  -3475.1520052 -0.347515E+04  0.218E-02   10.89       0.0  T
   2  -3475.1523449 -0.339628E-03  0.114E-02   10.89       1.0  T
   3  -3475.1523498 -0.493288E-05  0.500E-03   10.89       1.0  T
   4  -3475.1523513 -0.149532E-05  0.736E-04   10.89       2.4  T
   5  -3475.1523516 -0.295520E-06  0.465E-04   10.89       3.8  T
   6  -3475.1523517 -0.142585E-06  0.179E-04   10.89       9.8  T
     SCC iter.                  ...        5 min, 27.443 sec
     gradient                   ...        3 min, 38.906 sec
 * total energy  : -3427.1605001 Eh     change    :  -0.6824419E-01 Eh
   gradient norm :     0.2843579 Eh/a0  converged?    E=F G=F D=F
   time step     :     0.2750000 fs     power     :   0.2752760E-05
   step length   :     0.2346374 a0     speed     :   0.2063857E-01

........................................................................
.............................. CYCLE    7 ..............................
........................................................................

 iter      E             dE          RMSdq      gap      omega  full diag
   1  -3476.0221615 -0.347602E+04  0.249E-02   10.89       0.0  T
   2  -3476.0225601 -0.398554E-03  0.131E-02   10.89       1.0  T
   3  -3476.0225673 -0.722976E-05  0.543E-03   10.89       1.0  T
   4  -3476.0225692 -0.195143E-05  0.867E-04   10.88       2.0  T
   5  -3476.0225696 -0.338414E-06  0.538E-04   10.88       3.3  T
   6  -3476.0225697 -0.161013E-06  0.187E-04   10.88       9.4  T
     SCC iter.                  ...        5 min, 24.523 sec
     gradient                   ...        3 min, 38.466 sec
 * total energy  : -3427.2172135 Eh     change    :  -0.5671337E-01 Eh
   gradient norm :     0.2410863 Eh/a0  converged?    E=F G=F D=F
   time step     :     0.3025000 fs     power     :   0.1864375E-05
   step length   :     0.2764727 a0     speed     :   0.2210762E-01

........................................................................
.............................. CYCLE    8 ..............................
........................................................................

 iter      E             dE          RMSdq      gap      omega  full diag
   1  -3476.9828134 -0.347698E+04  0.272E-02   10.89       0.0  T
   2  -3476.9831946 -0.381163E-03  0.144E-02   10.88       1.0  T
   3  -3476.9832044 -0.982711E-05  0.535E-03   10.88       1.0  T
   4  -3476.9832066 -0.221188E-05  0.974E-04   10.88       1.8  T
   5  -3476.9832069 -0.310355E-06  0.586E-04   10.88       3.0  T
   6  -3476.9832071 -0.150690E-06  0.173E-04   10.88      10.1  T
     SCC iter.                  ...        5 min, 40.641 sec
     gradient                   ...        3 min, 38.665 sec
 * total energy  : -3427.2570632 Eh     change    :  -0.3984970E-01 Eh
   gradient norm :     0.2359315 Eh/a0  converged?    E=F G=F D=F
   time step     :     0.3327500 fs     power     :   0.9617364E-06
   step length   :     0.3121493 a0     speed     :   0.2269130E-01

........................................................................
.............................. CYCLE    9 ..............................
........................................................................

 iter      E             dE          RMSdq      gap      omega  full diag
   1  -3477.9577944 -0.347796E+04  0.289E-02   10.89       0.0  T
   2  -3477.9580653 -0.270907E-03  0.157E-02   10.88       1.0  T
   3  -3477.9580773 -0.120129E-04  0.451E-03   10.88       1.0  T
   4  -3477.9580793 -0.201710E-05  0.103E-03   10.88       1.7  T
   5  -3477.9580795 -0.201757E-06  0.585E-04   10.88       3.0  T
   6  -3477.9580796 -0.109479E-06  0.132E-04   10.88      13.2  T
     SCC iter.                  ...        5 min, 33.527 sec
     gradient                   ...        3 min, 39.589 sec
 * total energy  : -3427.2807313 Eh     change    :  -0.2366805E-01 Eh
   gradient norm :     0.2502706 Eh/a0  converged?    E=F G=F D=F
   time step     :     0.3660250 fs     power     :   0.3036953E-06
   step length   :     0.3359699 a0     speed     :   0.2220265E-01

........................................................................
.............................. CYCLE   10 ..............................
........................................................................

 iter      E             dE          RMSdq      gap      omega  full diag
   1  -3478.8537218 -0.347885E+04  0.308E-02   10.89       0.0  T
   2  -3478.8538497 -0.127896E-03  0.174E-02   10.89       1.0  T
   3  -3478.8538627 -0.130611E-04  0.292E-03   10.89       1.0  T
   4  -3478.8538642 -0.151963E-05  0.104E-03   10.88       1.7  T
   5  -3478.8538643 -0.711530E-07  0.517E-04   10.88       3.4  T
   6  -3478.8538644 -0.649002E-07  0.744E-05   10.88      23.5  T
     SCC iter.                  ...        5 min, 19.269 sec
     gradient                   ...        3 min, 38.674 sec
 * total energy  : -3427.2929775 Eh     change    :  -0.1224623E-01 Eh
   gradient norm :     0.2504072 Eh/a0  converged?    E=F G=F D=F
   time step     :     0.4026275 fs     power     :  -0.7681906E-07
   step length   :     0.3491469 a0     speed     :   0.2097586E-01

........................................................................
.............................. CYCLE   11 ..............................
........................................................................
 * reset velocities

 iter      E             dE          RMSdq      gap      omega  full diag
   1  -3478.8367632 -0.347884E+04  0.115E-03   10.88       0.0  T
   2  -3478.8367640 -0.781243E-06  0.659E-04   10.88       2.7  T
   3  -3478.8367640 -0.421323E-08  0.264E-04   10.88       6.6  T
     SCC iter.                  ...        2 min, 47.520 sec
     gradient                   ...        3 min, 38.874 sec
 * total energy  : -3427.2953267 Eh     change    :  -0.2349154E-02 Eh
   gradient norm :     0.2433951 Eh/a0  converged?    E=F G=F D=F
   time step     :     0.2013138 fs     power     :   0.1526473E-06
   step length   :     0.0095149 a0     speed     :   0.1143260E-02

........................................................................
.............................. CYCLE   12 ..............................
........................................................................

 iter      E             dE          RMSdq      gap      omega  full diag
   1  -3478.8030022 -0.347880E+04  0.226E-03   10.88       0.0  T
   2  -3478.8030052 -0.302287E-05  0.130E-03   10.88       1.3  T
   3  -3478.8030052 -0.177533E-07  0.520E-04   10.88       3.4  T
   4  -3478.8030052 -0.811087E-08  0.438E-05   10.88      40.0  T
     SCC iter.                  ...        3 min, 33.755 sec
     gradient                   ...        3 min, 38.559 sec
 * total energy  : -3427.2997645 Eh     change    :  -0.4437846E-02 Eh
   gradient norm :     0.2296532 Eh/a0  converged?    E=F G=F D=F
   time step     :     0.2013138 fs     power     :   0.2839960E-06
   step length   :     0.0187632 a0     speed     :   0.2254496E-02

........................................................................
.............................. CYCLE   13 ..............................
........................................................................

 iter      E             dE          RMSdq      gap      omega  full diag
   1  -3478.7534594 -0.347875E+04  0.330E-03   10.88       0.0  T
   2  -3478.7534660 -0.654361E-05  0.190E-03   10.88       1.0  T
   3  -3478.7534660 -0.437672E-07  0.767E-04   10.88       2.3  T
   4  -3478.7534661 -0.219520E-07  0.726E-05   10.88      24.1  T
     SCC iter.                  ...        3 min, 39.674 sec
     gradient                   ...        3 min, 38.182 sec
 * total energy  : -3427.3058010 Eh     change    :  -0.6036528E-02 Eh
   gradient norm :     0.2096323 Eh/a0  converged?    E=F G=F D=F
   time step     :     0.2013138 fs     power     :   0.3796608E-06
   step length   :     0.0274888 a0     speed     :   0.3302912E-02

........................................................................
.............................. CYCLE   14 ..............................
........................................................................

 iter      E             dE          RMSdq      gap      omega  full diag
   1  -3478.6894519 -0.347869E+04  0.424E-03   10.88       0.0  T
   2  -3478.6894628 -0.108894E-04  0.244E-03   10.88       1.0  T
   3  -3478.6894629 -0.760911E-07  0.990E-04   10.88       1.8  T
   4  -3478.6894629 -0.388009E-07  0.970E-05   10.88      18.1  T
     SCC iter.                  ...        3 min, 37.763 sec
     gradient                   ...        3 min, 38.230 sec
 * total energy  : -3427.3127743 Eh     change    :  -0.6973281E-02 Eh
   gradient norm :     0.1840605 Eh/a0  converged?    E=F G=F D=F
   time step     :     0.2013138 fs     power     :   0.4294597E-06
   step length   :     0.0354509 a0     speed     :   0.4259598E-02

........................................................................
.............................. CYCLE   15 ..............................
........................................................................

 iter      E             dE          RMSdq      gap      omega  full diag
   1  -3478.6127355 -0.347861E+04  0.505E-03   10.88       0.0  T
   2  -3478.6127511 -0.155871E-04  0.291E-03   10.88       1.0  T
   3  -3478.6127512 -0.110572E-06  0.119E-03   10.88       1.5  T
   4  -3478.6127512 -0.570831E-07  0.118E-04   10.88      14.9  T
   5  -3478.6127513 -0.158775E-07  0.802E-05   10.88      21.9  T
     SCC iter.                  ...        4 min, 33.869 sec
     gradient                   ...        3 min, 38.819 sec
 * total energy  : -3427.3199286 Eh     change    :  -0.7154281E-02 Eh
   gradient norm :     0.1539334 Eh/a0  converged?    E=F G=F D=F
   time step     :     0.2013138 fs     power     :   0.4286132E-06
   step length   :     0.0424329 a0     speed     :   0.5098529E-02

........................................................................
.............................. CYCLE   16 ..............................
........................................................................

 iter      E             dE          RMSdq      gap      omega  full diag
   1  -3478.5255271 -0.347853E+04  0.571E-03   10.88       0.0  T
   2  -3478.5255472 -0.200682E-04  0.329E-03   10.88       1.0  T
   3  -3478.5255473 -0.131748E-06  0.134E-03   10.88       1.3  T
   4  -3478.5255474 -0.655177E-07  0.126E-04   10.89      13.9  T
   5  -3478.5255474 -0.185605E-07  0.834E-05   10.89      21.0  T
     SCC iter.                  ...        4 min, 38.048 sec
     gradient                   ...        3 min, 37.842 sec
 * total energy  : -3427.3265047 Eh     change    :  -0.6576099E-02 Eh
   gradient norm :     0.1207030 Eh/a0  converged?    E=F G=F D=F
   time step     :     0.2013138 fs     power     :   0.3785487E-06
   step length   :     0.0482462 a0     speed     :   0.5797024E-02

........................................................................
.............................. CYCLE   17 ..............................
........................................................................

 iter      E             dE          RMSdq      gap      omega  full diag
   1  -3478.4201730 -0.347842E+04  0.685E-03   10.88       0.0  T
   2  -3478.4202022 -0.292160E-04  0.395E-03   10.88       1.0  T
   3  -3478.4202024 -0.186487E-06  0.162E-03   10.88       1.1  T
   4  -3478.4202025 -0.916230E-07  0.149E-04   10.89      11.7  T
   5  -3478.4202025 -0.265081E-07  0.972E-05   10.89      18.0  T
     SCC iter.                  ...        4 min, 28.420 sec
     gradient                   ...        3 min, 39.862 sec
 * total energy  : -3427.3323017 Eh     change    :  -0.5796990E-02 Eh
   gradient norm :     0.0832142 Eh/a0  converged?    E=F G=F D=F
   time step     :     0.2214451 fs     power     :   0.2752803E-06
   step length   :     0.0584981 a0     speed     :   0.6389852E-02

........................................................................
.............................. CYCLE   18 ..............................
........................................................................

 iter      E             dE          RMSdq      gap      omega  full diag
   1  -3478.2985017 -0.347830E+04  0.785E-03   10.88       0.0  T
   2  -3478.2985407 -0.390205E-04  0.453E-03   10.88       1.0  T
   3  -3478.2985410 -0.246174E-06  0.188E-03   10.88       1.0  T
   4  -3478.2985411 -0.118970E-06  0.171E-04   10.88      10.3  T
   5  -3478.2985411 -0.349405E-07  0.109E-04   10.88      16.0  T
     SCC iter.                  ...        4 min, 28.606 sec
     gradient                   ...        3 min, 38.503 sec
 * total energy  : -3427.3361822 Eh     change    :  -0.3880547E-02 Eh
   gradient norm :     0.0507629 Eh/a0  converged?    E=F G=F D=F
   time step     :     0.2435896 fs     power     :   0.1246211E-06
   step length   :     0.0684551 a0     speed     :   0.6797699E-02

........................................................................
.............................. CYCLE   19 ..............................
........................................................................

 iter      E             dE          RMSdq      gap      omega  full diag
   1  -3478.1703419 -0.347817E+04  0.824E-03   10.88       0.0  T
   2  -3478.1703858 -0.439086E-04  0.478E-03   10.88       1.0  T
   3  -3478.1703861 -0.277879E-06  0.200E-03   10.88       1.0  T
   4  -3478.1703862 -0.129748E-06  0.180E-04   10.88       9.7  T
   5  -3478.1703862 -0.392847E-07  0.112E-04   10.88      15.7  T
     SCC iter.                  ...        4 min, 39.667 sec
     gradient                   ...        3 min, 38.159 sec
 * total energy  : -3427.3372228 Eh     change    :  -0.1040602E-02 Eh
   gradient norm :     0.0552510 Eh/a0  converged?    E=F G=F D=F
   time step     :     0.2679486 fs     power     :  -0.3674587E-07
   step length   :     0.0754675 a0     speed     :   0.6812767E-02

........................................................................
.............................. CYCLE   20 ..............................
........................................................................
 * reset velocities

 iter      E             dE          RMSdq      gap      omega  full diag
   1  -3478.1715758 -0.347817E+04  0.117E-04   10.88       0.0  T
   2  -3478.1715758 -0.509363E-08  0.751E-05   10.88      23.3  T
   3  -3478.1715758 -0.296859E-08  0.322E-05   10.88      54.4  T
     SCC iter.                  ...        2 min, 47.613 sec
     gradient                   ...        3 min, 37.479 sec
 * total energy  : -3427.3372740 Eh     change    :  -0.5121461E-04 Eh
   gradient norm :     0.0549144 Eh/a0  converged?    E=F G=F D=T
   time step     :     0.1339743 fs     power     :   0.5057117E-08
   step length   :     0.0009298 a0     speed     :   0.1678752E-03
 * RMSD in coord.:     0.0346746 a0     energy gain  -0.5713662E+00 Eh

........................................................................
.............................. CYCLE   21 ..............................
........................................................................

 iter      E             dE          RMSdq      gap      omega  full diag
   1  -3478.1778726 -0.347818E+04  0.540E-04   10.88       0.0  T
   2  -3478.1778727 -0.788286E-07  0.307E-04   10.88       5.7  T
   3  -3478.1778727 -0.858108E-09  0.810E-05   10.88      21.6  T
     SCC iter.                  ...        2 min, 42.313 sec
     gradient                   ...        3 min, 38.523 sec
 * total energy  : -3427.3375419 Eh     change    :  -0.2678938E-03 Eh
   gradient norm :     0.0532888 Eh/a0  converged?    E=F G=F D=F
   time step     :     0.2500000 fs     power     :   0.1400063E-07
   step length   :     0.0049529 a0     speed     :   0.4792243E-03

........................................................................
.............................. CYCLE   22 ..............................
........................................................................

 iter      E             dE          RMSdq      gap      omega  full diag
   1  -3478.1879558 -0.347819E+04  0.879E-04   10.88       0.0  T
   2  -3478.1879560 -0.201630E-06  0.501E-04   10.88       3.5  T
   3  -3478.1879560 -0.406180E-08  0.130E-04   10.88      13.5  T
     SCC iter.                  ...        2 min, 41.412 sec
     gradient                   ...        3 min, 38.802 sec
 * total energy  : -3427.3379617 Eh     change    :  -0.4197820E-03 Eh
   gradient norm :     0.0508250 Eh/a0  converged?    E=F G=F D=F
   time step     :     0.2500000 fs     power     :   0.2171939E-07
   step length   :     0.0080744 a0     speed     :   0.7812403E-03

........................................................................
.............................. CYCLE   23 ..............................
........................................................................

 iter      E             dE          RMSdq      gap      omega  full diag
   1  -3478.2013436 -0.347820E+04  0.118E-03   10.88       0.0  T
   2  -3478.2013439 -0.352912E-06  0.675E-04   10.88       2.6  T
   3  -3478.2013439 -0.907130E-08  0.173E-04   10.88      10.1  T
     SCC iter.                  ...        2 min, 44.904 sec
     gradient                   ...        3 min, 37.960 sec
 * total energy  : -3427.3385041 Eh     change    :  -0.5423461E-03 Eh
   gradient norm :     0.0478303 Eh/a0  converged?    E=F G=F D=F
   time step     :     0.2500000 fs     power     :   0.2779401E-07
   step length   :     0.0110455 a0     speed     :   0.1068711E-02

........................................................................
.............................. CYCLE   24 ..............................
........................................................................

 iter      E             dE          RMSdq      gap      omega  full diag
   1  -3478.2173597 -0.347822E+04  0.144E-03   10.89       0.0  T
   2  -3478.2173602 -0.496744E-06  0.825E-04   10.88       2.1  T
   3  -3478.2173603 -0.153086E-07  0.205E-04   10.88       8.6  T
     SCC iter.                  ...        2 min, 48.089 sec
     gradient                   ...        3 min, 38.935 sec
 * total energy  : -3427.3391360 Eh     change    :  -0.6319201E-03 Eh
   gradient norm :     0.0447257 Eh/a0  converged?    E=F G=F D=F
   time step     :     0.2500000 fs     power     :   0.3211502E-07
   step length   :     0.0138235 a0     speed     :   0.1337499E-02

........................................................................
.............................. CYCLE   25 ..............................
........................................................................

 iter      E             dE          RMSdq      gap      omega  full diag
   1  -3478.2351387 -0.347824E+04  0.165E-03   10.89       0.0  T
   2  -3478.2351393 -0.596102E-06  0.943E-04   10.88       1.9  T
   3  -3478.2351393 -0.216205E-07  0.223E-04   10.88       7.9  T
     SCC iter.                  ...        2 min, 45.968 sec
     gradient                   ...        3 min, 37.561 sec
 * total energy  : -3427.3398271 Eh     change    :  -0.6910859E-03 Eh
   gradient norm :     0.0419869 Eh/a0  converged?    E=F G=F D=F
   time step     :     0.2500000 fs     power     :   0.3491963E-07
   step length   :     0.0163795 a0     speed     :   0.1584808E-02

........................................................................
.............................. CYCLE   26 ..............................
........................................................................

 iter      E             dE          RMSdq      gap      omega  full diag
   1  -3478.2556632 -0.347826E+04  0.199E-03   10.89       0.0  T
   2  -3478.2556639 -0.760908E-06  0.114E-03   10.88       1.5  T
   3  -3478.2556640 -0.319087E-07  0.249E-04   10.88       7.0  T
   4  -3478.2556640 -0.120685E-07  0.647E-05   10.88      27.1  T
     SCC iter.                  ...        3 min, 47.444 sec
     gradient                   ...        3 min, 39.057 sec
 * total energy  : -3427.3406353 Eh     change    :  -0.8082259E-03 Eh
   gradient norm :     0.0398657 Eh/a0  converged?    E=F G=F D=F
   time step     :     0.2750000 fs     power     :   0.3685543E-07
   step length   :     0.0208338 a0     speed     :   0.1832531E-02

........................................................................
.............................. CYCLE   27 ..............................
........................................................................

 iter      E             dE          RMSdq      gap      omega  full diag
   1  -3478.2777842 -0.347828E+04  0.231E-03   10.89       0.0  T
   2  -3478.2777851 -0.834885E-06  0.132E-03   10.88       1.3  T
   3  -3478.2777851 -0.399382E-07  0.257E-04   10.88       6.8  T
   4  -3478.2777851 -0.155574E-07  0.720E-05   10.88      24.3  T
     SCC iter.                  ...        3 min, 44.561 sec
     gradient                   ...        3 min, 39.087 sec
 * total energy  : -3427.3415668 Eh     change    :  -0.9314864E-03 Eh
   gradient norm :     0.0388446 Eh/a0  converged?    E=F G=F D=F
   time step     :     0.3025000 fs     power     :   0.3853982E-07
   step length   :     0.0259765 a0     speed     :   0.2077162E-02

........................................................................
.............................. CYCLE   28 ..............................
........................................................................

 iter      E             dE          RMSdq      gap      omega  full diag
   1  -3478.2995327 -0.347830E+04  0.257E-03   10.88       0.0  T
   2  -3478.2995334 -0.721372E-06  0.147E-03   10.88       1.2  T
   3  -3478.2995335 -0.502268E-07  0.233E-04   10.88       7.5  T
   4  -3478.2995335 -0.185614E-07  0.793E-05   10.88      22.1  T
     SCC iter.                  ...        3 min, 38.369 sec
     gradient                   ...        3 min, 39.347 sec
 * total energy  : -3427.3426494 Eh     change    :  -0.1082593E-02 Eh
   gradient norm :     0.0388755 Eh/a0  converged?    E=F G=F D=F
   time step     :     0.3327500 fs     power     :   0.4097336E-07
   step length   :     0.0319007 a0     speed     :   0.2318979E-02

........................................................................
.............................. CYCLE   29 ..............................
........................................................................

 iter      E             dE          RMSdq      gap      omega  full diag
   1  -3478.3183006 -0.347832E+04  0.277E-03   10.88       0.0  T
   2  -3478.3183010 -0.461565E-06  0.160E-03   10.88       1.1  T
   3  -3478.3183011 -0.580808E-07  0.186E-04   10.88       9.4  T
   4  -3478.3183011 -0.210739E-07  0.837E-05   10.88      20.9  T
     SCC iter.                  ...        3 min, 37.653 sec
     gradient                   ...        3 min, 38.496 sec
 * total energy  : -3427.3439404 Eh     change    :  -0.1291036E-02 Eh
   gradient norm :     0.0390775 Eh/a0  converged?    E=F G=F D=F
   time step     :     0.3660250 fs     power     :   0.4490590E-07
   step length   :     0.0388309 a0     speed     :   0.2566147E-02

........................................................................
.............................. CYCLE   30 ..............................
........................................................................

 iter      E             dE          RMSdq      gap      omega  full diag
   1  -3478.3313743 -0.347833E+04  0.297E-03   10.88       0.0  T
   2  -3478.3313745 -0.276911E-06  0.174E-03   10.88       1.0  T
   3  -3478.3313746 -0.609166E-07  0.154E-04   10.88      11.4  T
   4  -3478.3313746 -0.248042E-07  0.844E-05   10.88      20.8  T
     SCC iter.                  ...        3 min, 34.809 sec
     gradient                   ...        3 min, 36.931 sec
 * total energy  : -3427.3455108 Eh     change    :  -0.1570399E-02 Eh
   gradient norm :     0.0381145 Eh/a0  converged?    E=F G=F D=F
   time step     :     0.4026275 fs     power     :   0.4996363E-07
   step length   :     0.0471667 a0     speed     :   0.2833658E-02

........................................................................
.............................. CYCLE   31 ..............................
........................................................................

 iter      E             dE          RMSdq      gap      omega  full diag
   1  -3478.3368198 -0.347834E+04  0.327E-03   10.88       0.0  T
   2  -3478.3368204 -0.526349E-06  0.194E-03   10.88       1.0  T
   3  -3478.3368204 -0.590480E-07  0.169E-04   10.88      10.4  T
   4  -3478.3368205 -0.295277E-07  0.790E-05   10.88      22.2  T
     SCC iter.                  ...        3 min, 40.977 sec
     gradient                   ...        3 min, 38.203 sec
 * total energy  : -3427.3473978 Eh     change    :  -0.1887035E-02 Eh
   gradient norm :     0.0350504 Eh/a0  converged?    E=F G=F D=F
   time step     :     0.4428903 fs     power     :   0.5420650E-07
   step length   :     0.0573815 a0     speed     :   0.3133940E-02

........................................................................
.............................. CYCLE   32 ..............................
........................................................................

 iter      E             dE          RMSdq      gap      omega  full diag
   1  -3478.3350039 -0.347834E+04  0.375E-03   10.88       0.0  T
   2  -3478.3350053 -0.139607E-05  0.225E-03   10.88       1.0  T
   3  -3478.3350054 -0.660511E-07  0.251E-04   10.88       7.0  T
   4  -3478.3350054 -0.341624E-07  0.798E-05   10.88      21.9  T
     SCC iter.                  ...        3 min, 43.442 sec
     gradient                   ...        3 min, 39.185 sec
 * total energy  : -3427.3495495 Eh     change    :  -0.2151697E-02 Eh
   gradient norm :     0.0305378 Eh/a0  converged?    E=F G=F D=F
   time step     :     0.4871793 fs     power     :   0.5498629E-07
   step length   :     0.0697976 a0     speed     :   0.3465508E-02

........................................................................
.............................. CYCLE   33 ..............................
........................................................................

 iter      E             dE          RMSdq      gap      omega  full diag
   1  -3478.3308474 -0.347833E+04  0.432E-03   10.88       0.0  T
   2  -3478.3308496 -0.226761E-05  0.260E-03   10.88       1.0  T
   3  -3478.3308497 -0.787199E-07  0.318E-04   10.88       5.5  T
   4  -3478.3308498 -0.378413E-07  0.830E-05   10.88      21.1  T
     SCC iter.                  ...        3 min, 46.843 sec
     gradient                   ...        3 min, 39.058 sec
 * total energy  : -3427.3518352 Eh     change    :  -0.2285696E-02 Eh
   gradient norm :     0.0275973 Eh/a0  converged?    E=F G=F D=F
   time step     :     0.5358972 fs     power     :   0.5168457E-07
   step length   :     0.0843314 a0     speed     :   0.3806475E-02

........................................................................
.............................. CYCLE   34 ..............................
........................................................................

 iter      E             dE          RMSdq      gap      omega  full diag
   1  -3478.3357122 -0.347834E+04  0.489E-03   10.88       0.0  T
   2  -3478.3357140 -0.179927E-05  0.294E-03   10.88       1.0  T
   3  -3478.3357141 -0.984751E-07  0.244E-04   10.88       7.2  T
   4  -3478.3357141 -0.374052E-07  0.871E-05   10.88      20.1  T
     SCC iter.                  ...        3 min, 35.547 sec
     gradient                   ...        3 min, 38.454 sec
 * total energy  : -3427.3541865 Eh     change    :  -0.2351219E-02 Eh
   gradient norm :     0.0279892 Eh/a0  converged?    E=F G=F D=F
   time step     :     0.5894869 fs     power     :   0.4802591E-07
   step length   :     0.1002469 a0     speed     :   0.4113504E-02

........................................................................
.............................. CYCLE   35 ..............................
........................................................................

 iter      E             dE          RMSdq      gap      omega  full diag
   1  -3478.3629721 -0.347836E+04  0.561E-03   10.88       0.0  T
   2  -3478.3629726 -0.498198E-06  0.332E-03   10.88       1.0  T
   3  -3478.3629727 -0.138059E-06  0.169E-04   10.88      10.4  T
   4  -3478.3629727 -0.258983E-07  0.963E-05   10.88      18.2  T
     SCC iter.                  ...        3 min, 46.483 sec
     gradient                   ...        3 min, 38.553 sec
 * total energy  : -3427.3567040 Eh     change    :  -0.2517519E-02 Eh
   gradient norm :     0.0274048 Eh/a0  converged?    E=F G=F D=F
   time step     :     0.6484356 fs     power     :   0.4729275E-07
   step length   :     0.1170535 a0     speed     :   0.4366491E-02

........................................................................
.............................. CYCLE   36 ..............................
........................................................................

 iter      E             dE          RMSdq      gap      omega  full diag
   1  -3478.4185961 -0.347842E+04  0.672E-03   10.88       0.0  T
   2  -3478.4185972 -0.117735E-05  0.390E-03   10.88       1.0  T
   3  -3478.4185974 -0.186127E-06  0.233E-04   10.88       7.5  T
   4  -3478.4185975 -0.222799E-07  0.109E-04   10.88      16.1  T
     SCC iter.                  ...        3 min, 42.528 sec
     gradient                   ...        3 min, 38.282 sec
 * total energy  : -3427.3594225 Eh     change    :  -0.2718537E-02 Eh
   gradient norm :     0.0234094 Eh/a0  converged?    E=F G=F D=F
   time step     :     0.7132792 fs     power     :   0.4550075E-07
   step length   :     0.1360058 a0     speed     :   0.4612251E-02

........................................................................
.............................. CYCLE   37 ..............................
........................................................................

 iter      E             dE          RMSdq      gap      omega  full diag
   1  -3478.4908551 -0.347849E+04  0.760E-03   10.89       0.0  T
   2  -3478.4908579 -0.285115E-05  0.437E-03   10.89       1.0  T
   3  -3478.4908581 -0.205089E-06  0.372E-04   10.89       4.7  T
   4  -3478.4908582 -0.311766E-07  0.113E-04   10.89      15.5  T
     SCC iter.                  ...        3 min, 33.362 sec
     gradient                   ...        3 min, 38.801 sec
 * total energy  : -3427.3621349 Eh     change    :  -0.2712408E-02 Eh
   gradient norm :     0.0229917 Eh/a0  converged?    E=F G=F D=F
   time step     :     0.7846071 fs     power     :   0.3962800E-07
   step length   :     0.1578239 a0     speed     :   0.4865592E-02

........................................................................
.............................. CYCLE   38 ..............................
........................................................................

 iter      E             dE          RMSdq      gap      omega  full diag
   1  -3478.5450988 -0.347855E+04  0.727E-03   10.89       0.0  T
   2  -3478.5450997 -0.848350E-06  0.423E-03   10.89       1.0  T
   3  -3478.5450999 -0.180705E-06  0.198E-04   10.89       8.8  T
   4  -3478.5450999 -0.184664E-07  0.951E-05   10.89      18.4  T
     SCC iter.                  ...        3 min, 36.055 sec
     gradient                   ...        3 min, 38.312 sec
 * total energy  : -3427.3649096 Eh     change    :  -0.2774710E-02 Eh
   gradient norm :     0.0249390 Eh/a0  converged?    E=F G=F D=F
   time step     :     0.8630678 fs     power     :   0.3806995E-07
   step length   :     0.1801310 a0     speed     :   0.5048456E-02

........................................................................
.............................. CYCLE   39 ..............................
........................................................................

 iter      E             dE          RMSdq      gap      omega  full diag
   1  -3478.5577818 -0.347856E+04  0.674E-03   10.89       0.0  T
   2  -3478.5577841 -0.232045E-05  0.403E-03   10.89       1.0  T
   3  -3478.5577843 -0.204128E-06  0.243E-04   10.89       7.2  T
   4  -3478.5577844 -0.287923E-07  0.114E-04   10.89      15.4  T
     SCC iter.                  ...        3 min, 39.239 sec
     gradient                   ...        3 min, 39.617 sec
 * total energy  : -3427.3680128 Eh     change    :  -0.3103181E-02 Eh
   gradient norm :     0.0219163 Eh/a0  converged?    E=F G=F D=F
   time step     :     0.9493746 fs     power     :   0.3860470E-07
   step length   :     0.2044907 a0     speed     :   0.5210159E-02

........................................................................
.............................. CYCLE   40 ..............................
........................................................................

 iter      E             dE          RMSdq      gap      omega  full diag
   1  -3478.5486988 -0.347855E+04  0.677E-03   10.89       0.0  T
   2  -3478.5487039 -0.506285E-05  0.407E-03   10.89       1.0  T
   3  -3478.5487042 -0.285714E-06  0.432E-04   10.90       4.1  T
   4  -3478.5487042 -0.546988E-07  0.156E-04   10.90      11.3  T
     SCC iter.                  ...        3 min, 41.247 sec
     gradient                   ...        3 min, 38.513 sec
 * total energy  : -3427.3712944 Eh     change    :  -0.3281621E-02 Eh
   gradient norm :     0.0240618 Eh/a0  converged?    E=F G=F D=F
   time step     :     1.0443120 fs     power     :   0.3645346E-07
   step length   :     0.2336002 a0     speed     :   0.5410757E-02

........................................................................
.............................. CYCLE   41 ..............................
........................................................................

 iter      E             dE          RMSdq      gap      omega  full diag
   1  -3478.5731489 -0.347857E+04  0.763E-03   10.90       0.0  T
   2  -3478.5731498 -0.916574E-06  0.447E-03   10.90       1.0  T
   3  -3478.5731501 -0.290812E-06  0.247E-04   10.90       7.1  T
   4  -3478.5731501 -0.323671E-07  0.144E-04   10.90      12.2  T
     SCC iter.                  ...        3 min, 43.443 sec
     gradient                   ...        3 min, 39.870 sec
 * total energy  : -3427.3750981 Eh     change    :  -0.3803617E-02 Eh
   gradient norm :     0.0219723 Eh/a0  converged?    E=F G=F D=F
   time step     :     1.1487432 fs     power     :   0.4014064E-07
   step length   :     0.2651143 a0     speed     :   0.5582455E-02

........................................................................
.............................. CYCLE   42 ..............................
........................................................................

 iter      E             dE          RMSdq      gap      omega  full diag
   1  -3478.6254607 -0.347863E+04  0.902E-03   10.91       0.0  T
   2  -3478.6254643 -0.358935E-05  0.523E-03   10.91       1.0  T
   3  -3478.6254646 -0.290029E-06  0.380E-04   10.91       4.6  T
   4  -3478.6254646 -0.396694E-07  0.131E-04   10.91      13.4  T
     SCC iter.                  ...        3 min, 37.376 sec
     gradient                   ...        3 min, 37.801 sec
 * total energy  : -3427.3792520 Eh     change    :  -0.4153925E-02 Eh
   gradient norm :     0.0222405 Eh/a0  converged?    E=F G=F D=F
   time step     :     1.2500000 fs     power     :   0.3824372E-07
   step length   :     0.3012383 a0     speed     :   0.5829286E-02
 * RMSD in coord.:     0.0345974 a0     energy gain  -0.4197793E-01 Eh

........................................................................
.............................. CYCLE   43 ..............................
........................................................................

 iter      E             dE          RMSdq      gap      omega  full diag
   1  -3478.6287196 -0.347863E+04  0.148E-03   10.91       0.0  T
   2  -3478.6287196 -0.439818E-07  0.871E-04   10.91       2.0  T
   3  -3478.6287196 -0.123787E-07  0.544E-05   10.91      32.2  T
     SCC iter.                  ...        2 min, 48.467 sec
     gradient                   ...        3 min, 38.734 sec
 * total energy  : -3427.3800497 Eh     change    :  -0.7977529E-03 Eh
   gradient norm :     0.0220318 Eh/a0  converged?    E=F G=F D=F
   time step     :     0.2500000 fs     power     :   0.4161228E-07
   step length   :     0.0584906 a0     speed     :   0.5659280E-02

........................................................................
.............................. CYCLE   44 ..............................
........................................................................

 iter      E             dE          RMSdq      gap      omega  full diag
   1  -3478.6255729 -0.347863E+04  0.144E-03   10.91       0.0  T
   2  -3478.6255731 -0.188344E-06  0.846E-04   10.91       2.1  T
   3  -3478.6255731 -0.132768E-07  0.889E-05   10.91      19.7  T
     SCC iter.                  ...        2 min, 42.962 sec
     gradient                   ...        3 min, 37.747 sec
 * total energy  : -3427.3808945 Eh     change    :  -0.8448019E-03 Eh
   gradient norm :     0.0203718 Eh/a0  converged?    E=F G=F D=F
   time step     :     0.2500000 fs     power     :   0.4387909E-07
   step length   :     0.0572664 a0     speed     :   0.5540836E-02

........................................................................
.............................. CYCLE   45 ..............................
........................................................................

 iter      E             dE          RMSdq      gap      omega  full diag
   1  -3478.6179276 -0.347862E+04  0.157E-03   10.91       0.0  T
   2  -3478.6179280 -0.423436E-06  0.920E-04   10.91       1.9  T
   3  -3478.6179280 -0.158361E-07  0.157E-04   10.91      11.1  T
     SCC iter.                  ...        2 min, 49.822 sec
     gradient                   ...        3 min, 37.609 sec
 * total energy  : -3427.3817515 Eh     change    :  -0.8569748E-03 Eh
   gradient norm :     0.0183360 Eh/a0  converged?    E=F G=F D=F
   time step     :     0.2500000 fs     power     :   0.4399494E-07
   step length   :     0.0566546 a0     speed     :   0.5481634E-02

........................................................................
.............................. CYCLE   46 ..............................
........................................................................

 iter      E             dE          RMSdq      gap      omega  full diag
   1  -3478.6088222 -0.347861E+04  0.169E-03   10.91       0.0  T
   2  -3478.6088227 -0.521056E-06  0.992E-04   10.91       1.8  T
   3  -3478.6088228 -0.173573E-07  0.178E-04   10.91       9.8  T
     SCC iter.                  ...        2 min, 43.226 sec
     gradient                   ...        3 min, 38.611 sec
 * total energy  : -3427.3825878 Eh     change    :  -0.8363130E-03 Eh
   gradient norm :     0.0173117 Eh/a0  converged?    E=F G=F D=F
   time step     :     0.2500000 fs     power     :   0.4261018E-07
   step length   :     0.0565131 a0     speed     :   0.5467949E-02

........................................................................
.............................. CYCLE   47 ..............................
........................................................................

 iter      E             dE          RMSdq      gap      omega  full diag
   1  -3478.6018717 -0.347860E+04  0.172E-03   10.91       0.0  T
   2  -3478.6018721 -0.372365E-06  0.101E-03   10.91       1.7  T
   3  -3478.6018721 -0.161690E-07  0.137E-04   10.91      12.8  T
   4  -3478.6018721 -0.513000E-08  0.359E-05   10.91      48.8  T
     SCC iter.                  ...        3 min, 34.321 sec
     gradient                   ...        3 min, 39.450 sec
 * total energy  : -3427.3833968 Eh     change    :  -0.8089600E-03 Eh
   gradient norm :     0.0174769 Eh/a0  converged?    E=F G=F D=F
   time step     :     0.2500000 fs     power     :   0.4139377E-07
   step length   :     0.0564601 a0     speed     :   0.5462822E-02

........................................................................
.............................. CYCLE   48 ..............................
........................................................................

 iter      E             dE          RMSdq      gap      omega  full diag
   1  -3478.5995908 -0.347860E+04  0.186E-03   10.91       0.0  T
   2  -3478.5995910 -0.177572E-06  0.109E-03   10.91       1.6  T
   3  -3478.5995910 -0.151404E-07  0.824E-05   10.91      21.3  T
   4  -3478.5995910 -0.561477E-08  0.298E-05   10.91      58.7  T
     SCC iter.                  ...        3 min, 40.335 sec
     gradient                   ...        3 min, 37.645 sec
 * total energy  : -3427.3842732 Eh     change    :  -0.8764034E-03 Eh
   gradient norm :     0.0176473 Eh/a0  converged?    E=F G=F D=F
   time step     :     0.2750000 fs     power     :   0.4103233E-07
   step length   :     0.0619518 a0     speed     :   0.5449244E-02

........................................................................
.............................. CYCLE   49 ..............................
........................................................................

 iter      E             dE          RMSdq      gap      omega  full diag
   1  -3478.6043170 -0.347860E+04  0.205E-03   10.91       0.0  T
   2  -3478.6043171 -0.737296E-07  0.120E-03   10.91       1.5  T
   3  -3478.6043171 -0.177456E-07  0.630E-05   10.91      27.8  T
   4  -3478.6043171 -0.503451E-08  0.296E-05   10.91      59.1  T
     SCC iter.                  ...        3 min, 46.339 sec
     gradient                   ...        3 min, 37.972 sec
 * total energy  : -3427.3852335 Eh     change    :  -0.9602805E-03 Eh
   gradient norm :     0.0166511 Eh/a0  converged?    E=F G=F D=F
   time step     :     0.3025000 fs     power     :   0.4087942E-07
   step length   :     0.0680240 a0     speed     :   0.5439409E-02

........................................................................
.............................. CYCLE   50 ..............................
........................................................................

 iter      E             dE          RMSdq      gap      omega  full diag
   1  -3478.6164615 -0.347862E+04  0.233E-03   10.92       0.0  T
   2  -3478.6164617 -0.246907E-06  0.136E-03   10.92       1.3  T
   3  -3478.6164617 -0.240757E-07  0.982E-05   10.92      17.8  T
   4  -3478.6164617 -0.517048E-08  0.365E-05   10.92      48.0  T
     SCC iter.                  ...        3 min, 42.915 sec
     gradient                   ...        3 min, 39.021 sec
 * total energy  : -3427.3862662 Eh     change    :  -0.1032697E-02 Eh
   gradient norm :     0.0146794 Eh/a0  converged?    E=F G=F D=F
   time step     :     0.3327500 fs     power     :   0.3947202E-07
   step length   :     0.0751255 a0     speed     :   0.5461153E-02

........................................................................
.............................. CYCLE   51 ..............................
........................................................................

 iter      E             dE          RMSdq      gap      omega  full diag
   1  -3478.6330490 -0.347863E+04  0.257E-03   10.92       0.0  T
   2  -3478.6330495 -0.495912E-06  0.150E-03   10.92       1.2  T
   3  -3478.6330495 -0.307468E-07  0.149E-04   10.92      11.8  T
   4  -3478.6330495 -0.651107E-08  0.439E-05   10.92      39.9  T
     SCC iter.                  ...        3 min, 36.984 sec
     gradient                   ...        3 min, 37.763 sec
 * total energy  : -3427.3873344 Eh     change    :  -0.1068278E-02 Eh
   gradient norm :     0.0137790 Eh/a0  converged?    E=F G=F D=F
   time step     :     0.3660250 fs     power     :   0.3655518E-07
   step length   :     0.0835847 a0     speed     :   0.5523713E-02

........................................................................
.............................. CYCLE   52 ..............................
........................................................................

 iter      E             dE          RMSdq      gap      omega  full diag
   1  -3478.6465829 -0.347865E+04  0.258E-03   10.92       0.0  T
   2  -3478.6465833 -0.333619E-06  0.151E-03   10.92       1.2  T
   3  -3478.6465833 -0.331884E-07  0.113E-04   10.92      15.5  T
   4  -3478.6465833 -0.601403E-08  0.431E-05   10.92      40.6  T
     SCC iter.                  ...        3 min, 35.182 sec
     gradient                   ...        3 min, 37.720 sec
 * total energy  : -3427.3884303 Eh     change    :  -0.1095880E-02 Eh
   gradient norm :     0.0145290 Eh/a0  converged?    E=F G=F D=F
   time step     :     0.4026275 fs     power     :   0.3422260E-07
   step length   :     0.0928275 a0     speed     :   0.5576839E-02

........................................................................
.............................. CYCLE   53 ..............................
........................................................................

 iter      E             dE          RMSdq      gap      omega  full diag
   1  -3478.6498469 -0.347865E+04  0.250E-03   10.92       0.0  T
   2  -3478.6498470 -0.116395E-06  0.147E-03   10.92       1.2  T
   3  -3478.6498471 -0.351188E-07  0.792E-05   10.92      22.1  T
   4  -3478.6498471 -0.557020E-08  0.429E-05   10.92      40.8  T
     SCC iter.                  ...        3 min, 33.255 sec
     gradient                   ...        3 min, 37.508 sec
 * total energy  : -3427.3895932 Eh     change    :  -0.1162861E-02 Eh
   gradient norm :     0.0142017 Eh/a0  converged?    E=F G=F D=F
   time step     :     0.4428903 fs     power     :   0.3331891E-07
   step length   :     0.1022391 a0     speed     :   0.5583881E-02

........................................................................
.............................. CYCLE   54 ..............................
........................................................................

 iter      E             dE          RMSdq      gap      omega  full diag
   1  -3478.6410503 -0.347864E+04  0.261E-03   10.92       0.0  T
   2  -3478.6410508 -0.541082E-06  0.154E-03   10.92       1.1  T
   3  -3478.6410509 -0.457580E-07  0.144E-04   10.92      12.2  T
   4  -3478.6410509 -0.751606E-08  0.544E-05   10.92      32.2  T
     SCC iter.                  ...        3 min, 34.969 sec
     gradient                   ...        3 min, 38.645 sec
 * total energy  : -3427.3908286 Eh     change    :  -0.1235446E-02 Eh
   gradient norm :     0.0126856 Eh/a0  converged?    E=F G=F D=F
   time step     :     0.4871793 fs     power     :   0.3179700E-07
   step length   :     0.1127519 a0     speed     :   0.5598223E-02

........................................................................
.............................. CYCLE   55 ..............................
........................................................................

 iter      E             dE          RMSdq      gap      omega  full diag
   1  -3478.6278915 -0.347863E+04  0.266E-03   10.92       0.0  T
   2  -3478.6278923 -0.873150E-06  0.157E-03   10.92       1.1  T
   3  -3478.6278924 -0.574869E-07  0.207E-04   10.92       8.4  T
   4  -3478.6278924 -0.100285E-07  0.671E-05   10.92      26.1  T
     SCC iter.                  ...        3 min, 40.782 sec
     gradient                   ...        3 min, 39.069 sec
 * total energy  : -3427.3921040 Eh     change    :  -0.1275408E-02 Eh
   gradient norm :     0.0132709 Eh/a0  converged?    E=F G=F D=F
   time step     :     0.5358972 fs     power     :   0.2961775E-07
   step length   :     0.1249898 a0     speed     :   0.5641678E-02

........................................................................
.............................. CYCLE   56 ..............................
........................................................................

 iter      E             dE          RMSdq      gap      omega  full diag
   1  -3478.6255569 -0.347863E+04  0.257E-03   10.93       0.0  T
   2  -3478.6255572 -0.289478E-06  0.151E-03   10.93       1.2  T
   3  -3478.6255573 -0.542741E-07  0.123E-04   10.93      14.2  T
   4  -3478.6255573 -0.886530E-08  0.648E-05   10.93      27.0  T
     SCC iter.                  ...        3 min, 40.574 sec
     gradient                   ...        3 min, 38.744 sec
 * total energy  : -3427.3934639 Eh     change    :  -0.1359842E-02 Eh
   gradient norm :     0.0136397 Eh/a0  converged?    E=F G=F D=F
   time step     :     0.5894869 fs     power     :   0.2925474E-07
   step length   :     0.1375743 a0     speed     :   0.5645186E-02

........................................................................
.............................. CYCLE   57 ..............................
........................................................................

 iter      E             dE          RMSdq      gap      omega  full diag
   1  -3478.6412191 -0.347864E+04  0.297E-03   10.93       0.0  T
   2  -3478.6412196 -0.441997E-06  0.173E-03   10.93       1.0  T
   3  -3478.6412196 -0.459295E-07  0.161E-04   10.93      10.9  T
   4  -3478.6412196 -0.118421E-07  0.594E-05   10.93      29.5  T
     SCC iter.                  ...        3 min, 37.745 sec
     gradient                   ...        3 min, 39.205 sec
 * total energy  : -3427.3949456 Eh     change    :  -0.1481695E-02 Eh
   gradient norm :     0.0121838 Eh/a0  converged?    E=F G=F D=F
   time step     :     0.6484356 fs     power     :   0.2870701E-07
   step length   :     0.1514407 a0     speed     :   0.5649252E-02

........................................................................
.............................. CYCLE   58 ..............................
........................................................................

 iter      E             dE          RMSdq      gap      omega  full diag
   1  -3478.6650831 -0.347867E+04  0.331E-03   10.93       0.0  T
   2  -3478.6650837 -0.613698E-06  0.192E-03   10.93       1.0  T
   3  -3478.6650838 -0.476480E-07  0.185E-04   10.93       9.5  T
   4  -3478.6650838 -0.118207E-07  0.607E-05   10.93      28.9  T
     SCC iter.                  ...        3 min, 37.980 sec
     gradient                   ...        3 min, 38.817 sec
 * total energy  : -3427.3965130 Eh     change    :  -0.1567473E-02 Eh
   gradient norm :     0.0129983 Eh/a0  converged?    E=F G=F D=F
   time step     :     0.7132792 fs     power     :   0.2747852E-07
   step length   :     0.1679404 a0     speed     :   0.5695223E-02

........................................................................
.............................. CYCLE   59 ..............................
........................................................................

 iter      E             dE          RMSdq      gap      omega  full diag
   1  -3478.6770430 -0.347868E+04  0.322E-03   10.94       0.0  T
   2  -3478.6770433 -0.311821E-06  0.192E-03   10.94       1.0  T
   3  -3478.6770434 -0.600776E-07  0.127E-04   10.94      13.8  T
   4  -3478.6770434 -0.101008E-07  0.714E-05   10.94      24.5  T
     SCC iter.                  ...        3 min, 36.728 sec
     gradient                   ...        3 min, 39.675 sec
 * total energy  : -3427.3982262 Eh     change    :  -0.1713198E-02 Eh
   gradient norm :     0.0119622 Eh/a0  converged?    E=F G=F D=F
   time step     :     0.7846071 fs     power     :   0.2763997E-07
   step length   :     0.1853100 a0     speed     :   0.5712966E-02

........................................................................
.............................. CYCLE   60 ..............................
........................................................................

 iter      E             dE          RMSdq      gap      omega  full diag
   1  -3478.6787910 -0.347868E+04  0.353E-03   10.94       0.0  T
   2  -3478.6787924 -0.139438E-05  0.214E-03   10.94       1.0  T
   3  -3478.6787925 -0.710784E-07  0.233E-04   10.94       7.5  T
   4  -3478.6787925 -0.170944E-07  0.806E-05   10.94      21.7  T
     SCC iter.                  ...        3 min, 37.681 sec
     gradient                   ...        3 min, 38.521 sec
 * total energy  : -3427.4000502 Eh     change    :  -0.1823947E-02 Eh
   gradient norm :     0.0115991 Eh/a0  converged?    E=F G=F D=F
   time step     :     0.8630678 fs     power     :   0.2603478E-07
   step length   :     0.2060280 a0     speed     :   0.5774261E-02

........................................................................
.............................. CYCLE   61 ..............................
........................................................................

 iter      E             dE          RMSdq      gap      omega  full diag
   1  -3478.7028196 -0.347870E+04  0.428E-03   10.95       0.0  T
   2  -3478.7028199 -0.287367E-06  0.253E-03   10.95       1.0  T
   3  -3478.7028199 -0.660157E-07  0.128E-04   10.95      13.7  T
   4  -3478.7028199 -0.101268E-07  0.659E-05   10.95      26.6  T
     SCC iter.                  ...        3 min, 39.728 sec
     gradient                   ...        3 min, 37.609 sec
 * total energy  : -3427.4019760 Eh     change    :  -0.1925807E-02 Eh
   gradient norm :     0.0104702 Eh/a0  converged?    E=F G=F D=F
   time step     :     0.9493746 fs     power     :   0.2527326E-07
   step length   :     0.2287422 a0     speed     :   0.5828058E-02

........................................................................
.............................. CYCLE   62 ..............................
........................................................................

 iter      E             dE          RMSdq      gap      omega  full diag
   1  -3478.7487307 -0.347875E+04  0.570E-03   10.96       0.0  T
   2  -3478.7487321 -0.131002E-05  0.330E-03   10.96       1.0  T
   3  -3478.7487322 -0.962837E-07  0.252E-04   10.96       7.0  T
   4  -3478.7487322 -0.178507E-07  0.797E-05   10.96      22.0  T
     SCC iter.                  ...        3 min, 38.459 sec
     gradient                   ...        3 min, 38.202 sec
 * total energy  : -3427.4039347 Eh     change    :  -0.1958752E-02 Eh
   gradient norm :     0.0107418 Eh/a0  converged?    E=F G=F D=F
   time step     :     1.0443120 fs     power     :   0.2236409E-07
   step length   :     0.2552385 a0     speed     :   0.5911954E-02

........................................................................
.............................. CYCLE   63 ..............................
........................................................................

 iter      E             dE          RMSdq      gap      omega  full diag
   1  -3478.7567271 -0.347876E+04  0.520E-03   10.96       0.0  T
   2  -3478.7567285 -0.144504E-05  0.309E-03   10.96       1.0  T
   3  -3478.7567286 -0.758714E-07  0.215E-04   10.96       8.2  T
   4  -3478.7567286 -0.318059E-07  0.759E-05   10.96      23.1  T
     SCC iter.                  ...        3 min, 38.345 sec
     gradient                   ...        3 min, 39.675 sec
 * total energy  : -3427.4059039 Eh     change    :  -0.1969177E-02 Eh
   gradient norm :     0.0088817 Eh/a0  converged?    E=F G=F D=F
   time step     :     1.1487432 fs     power     :   0.2040253E-07
   step length   :     0.2821124 a0     speed     :   0.5940382E-02

........................................................................
.............................. CYCLE   64 ..............................
........................................................................

 iter      E             dE          RMSdq      gap      omega  full diag
   1  -3478.7636311 -0.347876E+04  0.544E-03   10.97       0.0  T
   2  -3478.7636320 -0.929278E-06  0.323E-03   10.97       1.0  T
   3  -3478.7636321 -0.827454E-07  0.176E-04   10.97       9.9  T
   4  -3478.7636321 -0.256941E-07  0.781E-05   10.97      22.4  T
     SCC iter.                  ...        3 min, 48.191 sec
     gradient                   ...        3 min, 39.916 sec
 * total energy  : -3427.4078100 Eh     change    :  -0.1906049E-02 Eh
   gradient norm :     0.0098687 Eh/a0  converged?    E=F G=F D=F
   time step     :     1.2500000 fs     power     :   0.1811282E-07
   step length   :     0.3096858 a0     speed     :   0.5992753E-02

........................................................................
.............................. CYCLE   65 ..............................
........................................................................

 iter      E             dE          RMSdq      gap      omega  full diag
   1  -3478.8034500 -0.347880E+04  0.596E-03   10.98       0.0  T
   2  -3478.8034517 -0.169425E-05  0.346E-03   10.98       1.0  T
   3  -3478.8034517 -0.752511E-07  0.285E-04   10.98       6.2  T
   4  -3478.8034518 -0.311866E-07  0.770E-05   10.98      22.8  T
     SCC iter.                  ...        3 min, 35.357 sec
     gradient                   ...        3 min, 39.741 sec
 * total energy  : -3427.4095469 Eh     change    :  -0.1736957E-02 Eh
   gradient norm :     0.0105970 Eh/a0  converged?    E=F G=F D=F
   time step     :     1.2500000 fs     power     :   0.1604378E-07
   step length   :     0.3080700 a0     speed     :   0.5961486E-02

........................................................................
.............................. CYCLE   66 ..............................
........................................................................

 iter      E             dE          RMSdq      gap      omega  full diag
   1  -3478.7973346 -0.347880E+04  0.451E-03   10.99       0.0  T
   2  -3478.7973365 -0.192923E-05  0.270E-03   10.99       1.0  T
   3  -3478.7973366 -0.865812E-07  0.275E-04   10.99       6.4  T
   4  -3478.7973366 -0.247537E-07  0.898E-05   10.99      19.5  T
     SCC iter.                  ...        3 min, 45.176 sec
     gradient                   ...        3 min, 38.323 sec
 * total energy  : -3427.4111841 Eh     change    :  -0.1637146E-02 Eh
   gradient norm :     0.0090024 Eh/a0  converged?    E=F G=F D=F
[...]
  3011   6 C     3012   6 C                                       1.5279957
  3012   6 C     3013   6 C                                       1.5270314
  3013   6 C     3014   6 C                                       1.5291631
  3014   6 C     3015   6 C                                       1.5272311
  3015   6 C     3016   6 C                                       1.5237647
  3015   6 C     3017   1 H                                       1.0911547
  3015   6 C     3018   1 H                                       1.0920810
  3014   6 C     3019   1 H                                       1.0934448
  3014   6 C     3020   1 H                                       1.0931995
  3013   6 C     3021   1 H                                       1.0918845
  3013   6 C     3022   1 H                                       1.0935815
  3012   6 C     3023   1 H                                       1.0935317
  3012   6 C     3024   1 H                                       1.0909752
  3011   6 C     3025   1 H                                       1.0930238
  3011   6 C     3026   1 H                                       1.0940377
  3010   6 C     3027   1 H                                       1.0922899
  3010   6 C     3028   1 H                                       1.0919928
  3009   6 C     3029   1 H                                       1.0924848
  3009   6 C     3030   1 H                                       1.0937513
  3008   6 C     3031   1 H                                       1.0924882
  3008   6 C     3032   1 H                                       1.0918465
  3007   6 C     3033   1 H                                       1.0918959
  3007   6 C     3034   1 H                                       1.0928029
  3006   6 C     3035   1 H                                       1.0929268
  3006   6 C     3036   1 H                                       1.0918851
  3005   6 C     3037   1 H                                       1.0931508
  3005   6 C     3038   1 H                                       1.0927886
  3004   6 C     3039   1 H                                       1.0928752
  3004   6 C     3040   1 H                                       1.0933980
  3003   6 C     3041   1 H                                       1.0928991
  3003   6 C     3042   1 H                                       1.0911924
  3002   6 C     3043   1 H                                       1.0939537
  3002   6 C     3044   1 H                                       1.0934731
  3001   6 C     3045   1 H                                       1.0936256
  3001   6 C     3046   1 H                                       1.0937076
  3000   6 C     3047   1 H                                       1.0918040
  3000   6 C     3048   1 H                                       1.0918726
  2999   6 C     3049   1 H                                       1.0937451
  2999   6 C     3050   1 H                                       1.0927972
  2998   6 C     3051   1 H                                       1.0925774
  2998   6 C     3052   1 H                                       1.0917429
  2997   6 C     3053   1 H                                       1.0917759
  2997   6 C     3054   1 H                                       1.0919212
  2996   6 C     3055   1 H                                       1.0930437
  2996   6 C     3056   1 H                                       1.0922378
  2995   6 C     3057   1 H                                       1.0925369
  2995   6 C     3058   1 H                                       1.0915570
  2994   6 C     3059   1 H                                       1.0928796
  2994   6 C     3060   1 H                                       1.0923470
  2993   6 C     3061   1 H                                       1.0923926
  2993   6 C     3062   1 H                                       1.0932045
  2992   6 C     3063   1 H                                       1.0907736
  2992   6 C     3064   1 H                                       1.0928283
  2991   6 C     3065   1 H                                       1.0937661
  2991   6 C     3066   1 H                                       1.0922098
  2990   6 C     3067   1 H                                       1.0933378
  2990   6 C     3068   1 H                                       1.0935477
  2989   6 C     3069   1 H                                       1.0921817
  2989   6 C     3070   1 H                                       1.0934863
  2988   6 C     3071   1 H                                       1.0919255
  2988   6 C     3072   1 H                                       1.0908214
  2987   6 C     3073   1 H                                       1.0935097
  2987   6 C     3074   1 H                                       1.0924827
  2986   6 C     3075   1 H                                       1.0935250
  2986   6 C     3076   1 H                                       1.0921866
  2985   6 C     3077   1 H                                       1.0928332
  2985   6 C     3078   1 H                                       1.0914758
  2984   6 C     3079   1 H                                       1.0923962
  2984   6 C     3080   1 H                                       1.0933089
  2983   6 C     3081   1 H                                       1.0925935
  2983   6 C     3082   1 H                                       1.0923902
  2982   6 C     3083   1 H                                       1.0927738
  2982   6 C     3084   1 H                                       1.0936310
  2981   6 C     3085   1 H                                       1.0915076
  2981   6 C     3086   1 H                                       1.0921530
  2980   6 C     3087   1 H                                       1.0923537
  2980   6 C     3088   1 H                                       1.0929769
  2979   6 C     3089   1 H                                       1.0917019
  2979   6 C     3090   1 H                                       1.0935527
  2978   6 C     3091   1 H                                       1.0923796
  2978   6 C     3092   1 H                                       1.0898474
  2977   6 C     3093   1 H                                       1.0934128
  2977   6 C     3094   1 H                                       1.0936391
  2976   6 C     3095   1 H                                       1.0924108
  2976   6 C     3096   1 H                                       1.0937218
  2975   6 C     3097   1 H                                       1.0925987
  2975   6 C     3098   1 H                                       1.0911335
  2974   6 C     3099   1 H                                       1.0935518
  2974   6 C     3100   1 H                                       1.0931479
  2973   6 C     3101   1 H                                       1.0924744
  2973   6 C     3102   1 H                                       1.0914046
  2972   6 C     3103   1 H                                       1.0931401
  2972   6 C     3104   1 H                                       1.0928021
  2971   6 C     3105   1 H                                       1.0930684
  2971   6 C     3106   1 H                                       1.0925001
  2970   6 C     3107   1 H                                       1.0919954
  2970   6 C     3108   1 H                                       1.0933056
  2969   6 C     3109   1 H                                       1.0925640
  2969   6 C     3110   1 H                                       1.0928410
  2968   6 C     3111   1 H                                       1.0927213
  2968   6 C     3112   1 H                                       1.0932608
  2967   6 C     3113   1 H                                       1.0926018
  2967   6 C     3114   1 H                                       1.0910813
  2966   6 C     3115   1 H                                       1.0918499
  2966   6 C     3116   1 H                                       1.0935441
  2965   6 C     3117   1 H                                       1.0934327
  2965   6 C     3118   1 H                                       1.0932204
  2964   6 C     3119   1 H                                       1.0908226
  2964   6 C     3120   1 H                                       1.0928952
  2963   6 C     3121   1 H                                       1.0934141
  2963   6 C     3122   1 H                                       1.0934065
  2962   6 C     3123   1 H                                       1.0922250
  2962   6 C     3124   1 H                                       1.0917656
  2961   6 C     3125   1 H                                       1.0933682
  2961   6 C     3126   1 H                                       1.0938979
  2960   6 C     3127   1 H                                       1.0936044
  2960   6 C     3128   1 H                                       1.0914167
  2959   6 C     3129   1 H                                       1.0917436
  2959   6 C     3130   1 H                                       1.0937095
  2958   6 C     3131   1 H                                       1.0934619
  2958   6 C     3132   1 H                                       1.0922703
  2957   6 C     3133   1 H                                       1.0922202
  2957   6 C     3134   1 H                                       1.0921637
  2956   6 C     3135   1 H                                       1.0935651
  2956   6 C     3136   1 H                                       1.0903137
  2955   6 C     3137   1 H                                       1.0923581
  2955   6 C     3138   1 H                                       1.0937846
  2954   6 C     3139   1 H                                       1.0922975
  2954   6 C     3140   1 H                                       1.0922677
  2953   6 C     3141   1 H                                       1.0918867
  2953   6 C     3142   1 H                                       1.0928472
  2952   6 C     3143   1 H                                       1.0931369
  2952   6 C     3144   1 H                                       1.0917851
  2951   6 C     3145   1 H                                       1.0932255
  2951   6 C     3146   1 H                                       1.0929128
  2950   6 C     3147   1 H                                       1.0933995
  2950   6 C     3148   1 H                                       1.0914172
  2949   6 C     3149   1 H                                       1.0935428
  2949   6 C     3150   1 H                                       1.0931369
  2948   6 C     3151   1 H                                       1.0930082
  2948   6 C     3152   1 H                                       1.0916845
  2947   6 C     3153   1 H                                       1.0937297
  2947   6 C     3154   1 H                                       1.0927267
  2946   6 C     3155   1 H                                       1.0928496
  2946   6 C     3156   1 H                                       1.0925881
  2945   6 C     3157   1 H                                       1.0927064
  2945   6 C     3158   1 H                                       1.0926810
  2944   6 C     3159   1 H                                       1.0930091
  2944   6 C     3160   1 H                                       1.0922979
  2943   6 C     3161   1 H                                       1.0928682
  2943   6 C     3162   1 H                                       1.0934048
  2942   6 C     3163   1 H                                       1.0934911
  2942   6 C     3164   1 H                                       1.0935225
  2941   6 C     3165   1 H                                       1.0917286
  2941   6 C     3166   1 H                                       1.0922413
  2940   6 C     3167   1 H                                       1.0930834
  2940   6 C     3168   1 H                                       1.0916893
  2939   6 C     3169   1 H                                       1.0931139
  2939   6 C     3170   1 H                                       1.0913688
  2938   6 C     3171   1 H                                       1.0913850
  2938   6 C     3172   1 H                                       1.0936101
  2937   6 C     3173   1 H                                       1.0934360
  2937   6 C     3174   1 H                                       1.0937713
  2936   6 C     3175   1 H                                       1.0938491
  2936   6 C     3176   1 H                                       1.0913466
  2935   6 C     3177   1 H                                       1.0907038
  2935   6 C     3178   1 H                                       1.0928599
  2934   6 C     3179   1 H                                       1.0935344
  2934   6 C     3180   1 H                                       1.0930967
  2933   6 C     3181   1 H                                       1.0924243
  2933   6 C     3182   1 H                                       1.0929010
  2932   6 C     3183   1 H                                       1.0934312
  2932   6 C     3184   1 H                                       1.0926517
  2931   6 C     3185   1 H                                       1.0917445
  2931   6 C     3186   1 H                                       1.0929781
  2930   6 C     3187   1 H                                       1.0936162
  2930   6 C     3188   1 H                                       1.0927071
  2929   6 C     3189   1 H                                       1.0915987
  2929   6 C     3190   1 H                                       1.0930951
  2928   6 C     3191   1 H                                       1.0936513
  2928   6 C     3192   1 H                                       1.0926607
  2927   6 C     3193   1 H                                       1.0930517
  2927   6 C     3194   1 H                                       1.0940400
  2926   6 C     3195   1 H                                       1.0924472
  2926   6 C     3196   1 H                                       1.0914360
  2925   6 C     3197   1 H                                       1.0931794
  2925   6 C     3198   1 H                                       1.0938941
  2924   6 C     3199   1 H                                       1.0914451
  2924   6 C     3200   1 H                                       1.0910184
  2923   6 C     3201   1 H                                       1.0930980
  2923   6 C     3202   1 H                                       1.0932927
  2922   6 C     3203   1 H                                       1.0932061
  2922   6 C     3204   1 H                                       1.0921568
  2921   6 C     3205   1 H                                       1.0899721
  2921   6 C     3206   1 H                                       1.0931625
  2920   6 C     3207   1 H                                       1.0934707
  2920   6 C     3208   1 H                                       1.0924786
  2919   6 C     3209   1 H                                       1.0932491
  2919   6 C     3210   1 H                                       1.0934756
  2918   6 C     3211   1 H                                       1.0922401
  2918   6 C     3212   1 H                                       1.0912591
  2917   6 C     3213   1 H                                       1.0934255
  2917   6 C     3214   1 H                                       1.0931422
  2916   6 C     3215   1 H                                       1.0913073
  2916   6 C     3216   1 H                                       1.0930538
  2915   6 C     3217   1 H                                       1.0934871
  2915   6 C     3218   1 H                                       1.0931713
  2914   6 C     3219   1 H                                       1.0915868
  2914   6 C     3220   1 H                                       1.0925761
  2913   6 C     3221   1 H                                       1.0935585
  2913   6 C     3222   1 H                                       1.0931363
  2912   6 C     3223   1 H                                       1.0926071
  2912   6 C     3224   1 H                                       1.0917460
  2911   6 C     3225   1 H                                       1.0932539
  2911   6 C     3226   1 H                                       1.0923096
  2910   6 C     3227   1 H                                       1.0927107
  2910   6 C     3228   1 H                                       1.0933737
  2909   6 C     3229   1 H                                       1.0913713
  2909   6 C     3230   1 H                                       1.0921669
  2908   6 C     3231   1 H                                       1.0930603
  2908   6 C     3232   1 H                                       1.0931289
  2907   6 C     3233   1 H                                       1.0931547
  2907   6 C     3234   1 H                                       1.0900106
  2906   6 C     3235   1 H                                       1.0906071
  2906   6 C     3236   1 H                                       1.0941723
  2905   6 C     3237   1 H                                       1.0937710
  2905   6 C     3238   1 H                                       1.0939099
  2904   6 C     3239   1 H                                       1.0931489
  2904   6 C     3240   1 H                                       1.0901710
  2903   6 C     3241   1 H                                       1.0919435
  2903   6 C     3242   1 H                                       1.0936578
  2902   6 C     3243   1 H                                       1.0937667
  2902   6 C     3244   1 H                                       1.0927756
  2901   6 C     3245   1 H                                       1.0910291
  2901   6 C     3246   1 H                                       1.0928050
  2900   6 C     3247   1 H                                       1.0940134
  2900   6 C     3248   1 H                                       1.0925411
  2899   6 C     3249   1 H                                       1.0919185
  2899   6 C     3250   1 H                                       1.0932836
  2898   6 C     3251   1 H                                       1.0933947
  2898   6 C     3252   1 H                                       1.0934439
  2897   6 C     3253   1 H                                       1.0878289
  2897   6 C     3254   1 H                                       1.0880158
  2897   6 C     3255   1 H                                       1.0880692
  3016   6 C     3256   1 H                                       1.0879158
  3016   6 C     3257   1 H                                       1.0882068
  3016   6 C     3258   1 H                                       1.0881186

 * 2 distinct bonds (by element types)

   Z      Z             #   av. dist./Å        max./Å        min./Å
   1 H    6 C        2178     1.0925410     1.0949646     1.0864623
   6 C    6 C        1071     1.5274294     1.5364770     1.5218263


optimized geometry written to: xtbopt.xyz


           -------------------------------------------------
          | TOTAL ENERGY            -3427.488139890429 Eh   |
          | GRADIENT NORM               0.000814790384 Eh/α |
          | HOMO-LUMO GAP              11.271125073423 eV   |
           -------------------------------------------------

------------------------------------------------------------------------
 * finished run on 2024/06/20 at 20:19:30.127     
------------------------------------------------------------------------
 total:
 * wall-time:     3 d,  5 h,  1 min, 53.031 sec
 *  cpu-time:    17 d,  4 h,  2 min, 32.772 sec
 * ratio c/w:     5.349 speedup
 SCF:
 * wall-time:     0 d,  0 h,  6 min, 49.804 sec
 *  cpu-time:     0 d,  0 h, 36 min,  8.760 sec
 * ratio c/w:     5.292 speedup
 ANC optimizer:
 * wall-time:     3 d,  4 h, 54 min, 21.812 sec
 *  cpu-time:    17 d,  3 h, 25 min, 26.984 sec
 * ratio c/w:     5.350 speedup

