3258
 energy: -3427.545043309261 gnorm: 0.000731212468 xtb: 6.6.1 (8d0f1dd)
C          110.64201991070640      101.08749167589130      107.85402796421832
C          110.22345093915062       99.70915451455890      107.36339317626390
C          108.72792486798222       99.59248803096399      107.07208434367108
C          108.25451666436248      100.48169432402501      105.92481219235709
C          106.88648419835459      100.05326946413226      105.40002723751336
C          106.46631083193795      100.85765627957797      104.17293388873492
C          105.26709795863114      100.24172270881795      103.45453648885665
C          104.99077090991295      100.88653705590316      102.09534491016360
C          106.03730440148453      100.51661549497547      101.04680243794780
C          105.85560353593658      101.27470080837188       99.73401485394844
C          106.90849931999810      100.90983860680105       98.68577009113650
C          108.32535786898130      101.28057420008419       99.11808575479228
C          109.36736832168371      100.99192490455768       98.03794634210431
C          110.79125964822695      100.95938962485110       98.59602705079057
C          111.24823855495525      102.30200557465450       99.15995115600218
C          112.60876021906584      102.21075445152087       99.84584967793451
C          113.03719374166556      103.55193302804224      100.43467229654593
C          114.32184381408406      103.45336925004604      101.25156353537805
C          114.73455710701769      104.80528859315768      101.82618741742591
C          115.97224479060043      104.70635970042196      102.71165274264963
C          116.41521755609476      106.06880430500829      103.23487119059546
C          117.64258334408146      105.96637995533604      104.13498438833028
C          118.21992635338270      107.33206125218418      104.49648978665054
C          119.45822550586023      107.19827916959281      105.37716730840712
C          120.09479177572169      108.54219168777013      105.71710611558095
C          121.33618522765802      108.36639360086285      106.58765500335495
C          122.02159319801366      109.69145582791053      106.90087833104553
C          123.26032683021168      109.51239223691523      107.77458204185555
C          123.97524287781533      110.83634327642444      108.02875876153847
C          125.21209005786963      110.66550103510470      108.90835108849397
C          126.04488864804138      111.94071139613374      109.04612829837608
C          125.32492480256867      113.05498532384253      109.79993725295488
C          126.16388420880678      114.32619564313450      109.90034887906803
C          125.40357593230185      115.44371940337444      110.60937827420267
C          126.12820474908057      116.78525835372726      110.54994785402305
C          125.28733644854235      117.90171223020432      111.16286550455850
C          125.90746878218778      119.28240355313083      110.96985253961142
C          125.00230995936104      120.38539268997515      111.51297480118497
C          125.49268449019795      121.78388951614087      111.15036426063864
C          124.55862888749326      122.86828533086863      111.68219176520446
C          124.91856892768755      124.24595778609306      111.13091023218210
C          124.21714670832391      125.39120014286085      111.86023216387638
C          122.69005317787391      125.36087449002376      111.80644465308923
C          122.10498915490545      125.50929660476667      110.40341152729518
C          120.61278963686851      125.83285439981609      110.46531759038005
C          119.98502150978160      125.97028884861815      109.07936792057150
C          118.61053107785284      126.64187210388852      109.10229959238738
C          117.53237851911372      125.82089683004310      109.80547379016126
C          116.18398468237979      126.53788586221357      109.80995261804100
C          115.07804095058836      125.68536828264534      110.42728030126115
C          113.73548728851276      126.41121846584339      110.44735231902924
C          112.61015673038239      125.53795529967036      110.99584762006516
C          111.27865102663991      126.28232746943682      111.04227120221555
C          110.13939713770333      125.40767648637321      111.55812390541843
C          108.81972443201434      126.17059732822999      111.63366349898277
C          107.67790112437828      125.30437721584194      112.15758245742896
C          106.36081101673885      126.07159075191849      112.23855617684450
C          105.23871146537404      125.22515948224688      112.83311317146651
C          103.91634139496638      125.98434338059013      112.91724436858014
C          102.86797205464268      125.21149493601985      113.71477608881132
C          101.53780935751591      125.96267794130647      113.82388324172854
C          100.76553953071243      125.61872410036733      115.09910480879157
C          100.30169017734018      124.16434329284567      115.18861186603228
C           99.11323325625506      123.81751301789758      114.29155964792531
C           97.82696136648286      124.55125103230904      114.67831007383562
C           96.56080533209455      123.82980977494272      114.21270141457703
C           96.43218554205203      123.72599004222668      112.69429693699438
C           95.16439294598931      122.97213048301828      112.29605210278635
C           94.98898784354127      122.80218878786779      110.78568889184149
C           96.05083452780465      121.90928051281112      110.14498611603128
C           95.68447829639373      121.51652365095028      108.71412662694529
C           96.79280635894344      120.72092384172925      108.01998332533992
C           97.92127244547568      121.60909747361909      107.50014375597496
C           99.13095093627047      120.80239478403564      107.03508179226719
C          100.22551633809726      121.70157070820149      106.46347310033943
C          101.55233989315028      120.96974341319464      106.27971547112978
C          102.64414409724313      121.90408334708286      105.76694568529442
C          104.01178650044733      121.23121647367569      105.68263086409648
C          105.06624283623748      122.19268556781462      105.14320484166487
C          106.46357260465471      121.58248682188422      105.06911791733326
C          107.45033684503190      122.56928062548735      104.45049194822343
C          108.86007812209785      122.00816080097445      104.28603959397654
C          109.77254728519611      123.02431660963175      103.60242779341782
C          111.16012512959243      122.47803205786880      103.27478459962971
C          111.99839601416147      123.52276495912211      102.54019690333952
C          113.38462794098115      123.03387864042232      102.11779799214780
C          113.33560400839384      121.89021899777104      101.10317402472702
C          114.64093225834296      121.70978923150952      100.32679653616249
C          115.82058754752420      121.32296833890031      101.21405114369878
C          117.07719335640088      121.00783124528722      100.40608724881473
C          118.27535635936323      120.73143123822969      101.31090493368045
C          119.52269016500026      120.34704269560331      100.51986615326989
C          120.79173319067948      120.29312362328621      101.37111497493071
C          120.71750937255989      119.30990201688479      102.53707461393854
C          122.08953160775398      119.06418233916253      103.15983796670719
C          122.03073903531373      118.10901449867080      104.34893110676447
C          123.41740412138641      117.79825927833858      104.90863879892932
C          123.34219089119061      116.90723437849087      106.14567962544068
C          124.67438755257697      116.72664627424003      106.87288029374719
C          125.76079399131564      116.00265050964263      106.07673193390691
C          125.39594438146298      114.55835022216625      105.74183645314307
C          126.54969163578778      113.80858535911437      105.07726706756284
C          126.24104423285306      112.33226818572126      104.82243341280098
C          125.14876906097315      112.11478164917688      103.77908903004149
C          124.76315695429322      110.64458530683451      103.63552962488977
C          123.66146406929417      110.46299387792946      102.59507589977684
C          123.10835402945337      109.04089033109716      102.54524682057485
C          122.02549774330977      108.91489407857028      101.47678625123439
C          121.31802420334766      107.56230168418513      101.48228599426436
C          120.23336670186593      107.50990669748550      100.40781260275924
C          119.37854713863906      106.24852058058519      100.49280828021352
C          118.33214290979613      106.14942397509301       99.38059696507445
C          117.36731820606690      107.33350574275376       99.34914573481767
C          116.20474278706712      107.11648853549153       98.38363686575562
C          115.29363240038710      108.34024821573333       98.32035946749676
C          114.12546328638139      108.15435543682807       97.35563570831231
C          113.24269032826308      109.39832913242728       97.28767999578992
C          112.04924930961161      109.22136932037701       96.35212755764069
C          111.08383587032003      110.40160000890832       96.42720371030151
C          109.85990862603897      110.19604230869108       95.54376624528304
H          110.76331754444756      110.53386227109007       97.46338424966883
H          111.60264730388226      111.31455949665182       96.12659302147311
H          112.40353779378522      109.10295814096365       95.32487020045623
H          111.51257996417235      108.30688997543719       96.61773300620700
H          112.87842322645314      109.63247230970470       98.29080868525736
H          113.84048251864718      110.24980753882791       96.95350055985773
H          114.50950571030586      107.92581594429767       96.35782787492650
H          113.52427844905792      107.30095125759954       97.67924080435007
H          114.90517988089698      108.55198092784694       99.31934308031377
H          115.88181280709875      109.20680796100710       98.00667385241834
H          116.59702966474045      106.90385678988565       97.38549335667419
H          115.62403113846185      106.24576897665021       98.69892830039890
H          116.96998402335926      107.50449760979450      100.35229950672971
H          117.90512879387035      108.23452752484218       99.04816081119570
H          118.83551080468771      106.07223724052706       98.41300295598347
H          117.75821809699092      105.23031916282989       99.52578159233187
H          120.02958703610720      105.37114903185839      100.44034285194267
H          118.87481825839734      106.22728240788886      101.46002733564734
H          119.59238798634711      108.38578858392802      100.52468578769047
H          120.69815580809512      107.57065278781363       99.42000130374025
H          122.04519205977446      106.76381385541183      101.31411664967173
H          120.86555408145502      107.39584533275263      102.46233482201177
H          121.28205614110391      109.70072157870007      101.63667841097541
H          122.46936628895743      109.08642345486700      100.49228551319216
H          123.91735064590669      108.33706597831859      102.33545322922033
H          122.69057626451463      108.77976006419568      103.52012730835054
H          122.84294168392957      111.15154452958785      102.82263436223606
H          124.04848583651666      110.73503397821351      101.60929158180871
H          125.63907560123555      110.05591401793767      103.35277358815827
H          124.41473344252006      110.26731723334342      104.59982743205278
H          124.25636047068824      112.67631369238495      104.06002285066862
H          125.48775098169949      112.49941019432627      102.81398318456478
H          127.15383327982859      111.82978350175658      104.49191162463137
H          125.93706463177506      111.86402449868686      105.76112419343202
H          126.80233184085323      114.28972902077700      104.12883501087809
H          127.43186420682771      113.87483943622053      105.72131910253046
H          125.11466107084243      114.03788205135899      106.66069753264313
H          124.53148839648709      114.55258097083370      105.07804861452695
H          125.97192009431771      116.55065479636995      105.15736833632192
H          126.68065354822190      116.00581241511790      106.67083236038143
H          125.05075693030929      117.71082648549621      107.16508808934232
H          124.48826679678007      116.16564651074926      107.79158520951216
H          122.63655678203789      117.35067020338781      106.85368335315394
H          122.94482554559600      115.93255337337047      105.86247364299678
H          124.01003477939713      117.30828500128551      104.13510676718410
H          123.91825052800750      118.73576680823372      105.16311814303999
H          121.41262618254470      118.55156856161746      105.13412952602249
H          121.55151641195178      117.17618745009366      104.04026196456851
H          122.75764543846522      118.65052613696814      102.39939841574514
H          122.51394234491845      120.01791722389282      103.48354370370348
H          120.04190928942197      119.69833213587277      103.30026868139180
H          120.31132078360994      118.36146365033848      102.18322827474557
H          121.62626166814660      120.00784747122778      100.72396021115676
H          121.00431038392338      121.29218574694883      101.75949407441891
H          119.36272402669603      119.37457118333819      100.04760663580255
H          119.67413036323209      121.07588085741519       99.71792346171314
H          118.48395232314877      121.62659840478533      101.90130495708726
H          118.02158303874403      119.92532752678036      102.00120858418782
H          116.89424224422278      120.13898862065307       99.76846318888167
H          117.30689147693468      121.85134957664607       99.74903515323473
H          116.04205677708943      122.14227406558740      101.89934358417185
H          115.54915064264436      120.45074093264854      101.81239403389399
H          114.49420663087228      120.93044797361107       99.57357003764628
H          114.87688571372585      122.63548064133100       99.79443500468219
H          113.09835660447906      120.95529359180013      101.61293103831372
H          112.53463437963711      122.09059629772679      100.38621827467975
H          113.92172918687163      123.87683320056117      101.67417885345698
H          113.93932785315577      122.71989745265043      103.00392300792399
H          111.45414593617117      123.85082320731121      101.64986865812971
H          112.11679003546308      124.39535148916097      103.18878330271153
H          111.66713992109514      122.18304559521211      104.19628103672987
H          111.05330449925266      121.58973450047753      102.64896513071784
H          109.29821014188840      123.35139835539400      102.67231963027778
H          109.87259313035432      123.90459832035131      104.24233679928084
H          109.26958275912946      121.73864399073972      105.26209124367058
H          108.81533781370754      121.09595874244970      103.68636245179141
H          107.07600546842707      122.86920045221602      103.46693241149264
H          107.49208691926037      123.46980146994615      105.06809465727972
H          106.79763904827155      121.30747439257786      106.07267134390347
H          106.43194874563660      120.67007652389526      104.46945777198152
H          104.76830977328331      122.51916531037598      104.14249297515202
H          105.09816553641969      123.08228748020569      105.77730299704893
H          104.30691961174313      120.88825065899982      106.67776517625401
H          103.94993693328999      120.35718051385604      105.03038756270534
H          102.36404364810143      122.27588090865315      104.77756299382088
H          102.71453038284074      122.76946686287847      106.43114310209445
H          101.86208727692068      120.54627368265216      107.23840858899079
H          101.42055583897675      120.14491472163375      105.57615436251611
H           99.89708107974994      122.10909223655018      105.50404738400945
H          100.38150422572707      122.54818573817097      107.13721289963220
H           99.52963822797660      120.24078900426917      107.88287604958398
H           98.82081216385369      120.07890197480273      106.27846467683699
H           97.54723539634635      122.21567946970687      106.67103847008336
H           98.24079472753229      122.29411409807425      108.28802343573321
H           97.19979915608603      119.99083316354105      108.72322221348365
H           96.36925889266463      120.16657643858096      107.18006905858331
H           94.77150178653270      120.91597228215919      108.74041468883611
H           95.46686167122571      122.41580938223390      108.13220399172128
H           97.01128236988662      122.42563105338529      110.14423384078036
H           96.16198727072866      121.00042912162994      110.74146645730019
H           94.00510793777092      122.36074075674198      110.60329428098524
H           95.00031141305756      123.78353476731246      110.30438468588358
H           95.17518611266152      121.98454614693181      112.76380554699541
H           94.29796129894852      123.50969475369675      112.69145443342589
H           96.41350620199370      124.72831157710023      112.25857437320292
H           97.30366583877587      123.20693494743153      112.29646588294085
H           96.54950647882283      122.82380867272246      114.63934143495565
H           95.68886443132835      124.36083622577387      114.60518571144772
H           97.78359314168021      124.63760430046784      115.76753601303949
H           97.83312889767312      125.56340832506102      114.26777414043850
H           99.36460746029884      124.03373968752670      113.25293743954460
H           98.93578110735460      122.74342913260600      114.37412774070565
H          101.13926453059914      123.50940478898268      114.94089363881919
H          100.02267247898826      123.95289730424990      116.22396890004516
H          101.41476087195569      125.82915817718305      115.95385423203869
H           99.89936029519086      126.27819847738583      115.18229092888411
H          101.74065671086187      127.03729153619983      113.83663866464150
H          100.92038785927478      125.76296039180859      112.94608877472712
H          102.71429596601263      124.23506519014114      113.25167666138574
H          103.26023501395035      125.04068791569279      114.71849275759079
H          104.08912652502816      126.94992904806803      113.40096630956940
H          103.54204627776014      126.18762465427032      111.91019469526783
H          105.10290203764977      124.32663644580683      112.22817104790198
H          105.52990501653123      124.90734363548874      113.83656740677027
H          106.50241728633368      126.96335270303271      112.85536677658848
H          106.07353260434891      126.40980708643242      111.23922898292663
H          107.55122534230220      124.44014731670094      111.50242168251957
H          107.93652323456892      124.93219586953228      113.15113929574234
H          108.94390731499446      127.03707609003675      112.28871635163610
H          108.56188099115086      126.54699432561515      110.64012889578296
H          110.02004179536839      124.54590751745036      110.89717769023881
H          110.39370289807947      125.03219541309414      112.55168244650400
H          111.38089493344290      127.15830203027700      111.68813616348217
H          111.03109080622013      126.64123426072095      110.03989479586305
H          112.50570647085725      124.64957407151472      110.36750954457571
H          112.86982399116924      125.20453724169094      112.00330097896995
H          113.82310756070409      127.31306974262738      111.05877158023412
H          113.48205615873847      126.72605548950651      109.43195108786306
H          114.97775224876747      124.75838556402523      109.85693326700854
H          115.35736280540584      125.41694003704126      111.44921603370013
H          116.27406687237492      127.47294847417145      110.36902054331870
H          115.90892803794206      126.79497386058766      108.78391984832744
H          117.42687013661998      124.85918906254307      109.29921735140195
H          117.83295831911724      125.62553776125827      110.83655297712349
H          118.69846220704919      127.61453118410378      109.59388047925218
H          118.29345969380763      126.82499813041109      108.07179906578622
H          120.64848603130183      126.57378329171959      108.45357774560011
H          119.90480128366842      124.98460240186677      108.61668159735629
H          120.10313540531097      125.04799849331643      111.02757891535130
H          120.48122256088979      126.77186843407995      111.00970549959263
H          122.62455640846960      126.31493984137128      109.87743194187337
H          122.25488590483435      124.59149112872298      109.83145963550569
H          122.32509409890670      124.43639605053932      112.25664482202890
H          122.32202097535883      126.18918749566458      112.41612460285103
H          124.51934684392873      125.36850251451708      112.91134307307632
H          124.56529976516831      126.33929633487051      111.43935359532691
H          125.99850410117566      124.39410874343280      111.22509392521611
H          124.67998219952682      124.28547517952813      110.06585787713512
H          123.53329036917640      122.61917316398488      111.40372059450654
H          124.60622455200287      122.88776568414701      112.77416957443518
H          126.49906604706530      121.93807751366347      111.54728477062905
H          125.55569654640854      121.87207987287968      110.06360117710554
H          123.99650547318431      120.25101017935884      111.10779238322219
H          124.92639771980882      120.29403590551978      112.59956521002641
H          126.88089355954725      119.32588975470630      111.46273123956291
H          126.07735056491030      119.44759235936284      109.90230345230495
H          124.29945957420215      117.89441834511389      110.69513373049448
H          125.14247305791461      117.70987885209755      112.22896656960444
H          127.08521839433244      116.71248386107224      111.07057662234800
H          126.33959878807744      117.03071132670883      109.50602318095393
H          124.42195842589896      115.55616885775218      110.14029213131019
H          125.23120950480474      115.16599933662292      111.65195182138719
H          127.09222845823882      114.11561198808472      110.43553456972154
H          126.43316817942214      114.65754986192070      108.89417315461604
H          124.39039978576893      113.29646924169440      109.28856391974708
H          125.07206223716581      112.70731459492828      110.80425949360445
H          126.97076431210425      111.70014326865746      109.57448153167211
H          126.32188239970561      112.30165355165637      108.05175589533630
H          124.90427141348096      110.32790806654978      109.90053747462275
H          125.84307242203421      109.88204767230428      108.48098454866525
H          124.26760670717309      111.27427276329975      107.07079838694924
H          123.27643855577762      111.52852565885513      108.50156047659188
H          122.97221455867344      109.06558552934236      108.72853102184639
H          123.94949776119573      108.81825994722178      107.28577033825715
H          122.30649900910815      110.17981534656998      105.96528240212110
H          121.31299906390750      110.35021177153716      107.40866778223349
H          121.05683057267152      107.87350447399969      107.52139850837098
H          122.04334340414344      107.71161942210735      106.07026294221409
H          120.36768821723980      109.05994825428517      104.79344744056796
H          119.36755481124179      109.16866294988182      106.24045776943542
H          119.18783471703809      106.68591661947505      106.30344304260710
H          120.19450410913812      106.57632725370986      104.85922536163764
H          118.48210240323743      107.87085188260947      103.58125849851753
H          117.46173164408552      107.92117830199810      105.01754105286250
H          117.37351936048459      105.43745792543693      105.05210828925587
H          118.41160720269774      105.37614116519943      103.62795282262053
H          116.64288093458629      106.71999201307345      102.38685777901111
H          115.59421442515439      106.52855880376553      103.78854272704905
H          115.75602708383927      104.05124573545821      103.55879180222517
H          116.78905352920339      104.25292592901656      102.14396256960715
H          114.93377870382139      105.49969519223271      101.00542432215184
H          113.90655427654967      105.21277663618150      102.41034334527910
H          114.17147732082061      102.74548197091102      102.07024913129931
H          115.12616158623416      103.06037693994988      100.62470720918014
H          113.17888165499922      104.27157868749715       99.62332137150246
H          112.23809560256193      103.92947810284835      101.07665234006065
H          112.55419735443444      101.46849505625630      100.64605773473590
H          113.36064291121860      101.86580504185225       99.13196285139442
H          111.29389899029185      103.03402823966708       98.34944130745694
H          110.51873272730931      102.65651354808445       99.88889543987204
H          110.84195592647716      100.20343752617363       99.38400952000100
H          111.47860740544306      100.64923043677592       97.80465388259208
H          109.15075573667541      100.01852321539957       97.58910825173072
H          109.29884701141805      101.74031186548899       97.24462360269867
H          108.34639337573014      102.33947806808283       99.38225812617992
H          108.59144879404541      100.70622765679489      100.00681164945554
H          106.86058929807676       99.83639885768208       98.48299920566861
H          106.67411343515947      101.43010502545243       97.75287573786879
H          104.86383953161882      101.06116550151205       99.32863310389365
H          105.90854557849475      102.34944294432850       99.92592452536400
H          107.02760806774860      100.73494440449970      101.44365237083879
H          105.98959003904440       99.44195698482959      100.85302304547582
H          104.00723144838108      100.56910969327835      101.74299957805552
H          104.96758665518904      101.97237696175495      102.21581383485312
H          105.44058107302322       99.17189228460049      103.30614473394247
H          104.38201738504461      100.34665025955469      104.08717118611145
H          106.22609349280333      101.88073577133218      104.46687135723576
H          107.31545461940263      100.90651867073639      103.48876993413752
H          106.93297793745346       98.99388764197357      105.12819847146208
H          106.13716505875115      100.15574768898844      106.18907701047478
H          108.20948705647243      101.52386380011957      106.24619820757140
H          108.97658738910354      100.41597649133786      105.10709821646718
H          108.51703902251548       98.55226206642403      106.80618405073224
H          108.15731208841559       99.82438492732653      107.97538907752190
H          110.78282332185093       99.46211569984096      106.45812458361920
H          110.48674046014656       98.96840125745341      108.12439700451490
H          110.42481713162927      101.84588376438654      107.10583553189389
H          110.11452714702683      101.34033513649551      108.77228423498117
H          111.71053650351472      101.10724844367928      108.05617914886753
H          109.30608146311570      109.31443368904552       95.85996071423162
H          109.19631663218411      111.05564986977983       95.60143246191994
H          110.15536202263478      110.05983464211484       94.50539020003426
C          104.62016863738921       93.99619535023365      118.34186221290210
C          103.45087550203958       94.84466920322559      118.82890694219199
C          103.87056953282764       96.29893016521174      119.02369726489289
C          102.77433240022201       97.19900958216364      119.59542989367360
C          101.51073749930514       97.30300288370630      118.73885086292863
C          101.77848011944511       97.83153128809964      117.33159607183674
C          100.50474639320532       98.18654797781582      116.56703830290390
C           99.60596427304897       96.98428699570911      116.28537719577150
C           98.43323921235405       97.37017595825922      115.38890517510360
C           97.44918466150578       96.22354927438631      115.17293014212464
C           96.29601880374784       96.61021008606023      114.24391850927744
C           96.71845500249569       96.66902871758120      112.77737532664409
C           95.61746128103499       97.18197049118463      111.84907351107886
C           95.38921375270357       98.68765185691421      111.96529388983022
C           94.39218894371835       99.19224488852959      110.92591826504780
C           94.18223665523230      100.70197268499766      111.00653456539277
C           93.24739589527753      101.20324105897562      109.90909327299997
C           93.00777678760682      102.70869477112373      109.98692107964834
C           92.19034817780675      103.21057286060675      108.79857190230311
C           91.64908798459318      104.62924993106115      108.97768775094954
C           92.71660871378072      105.70883585529569      109.15879201371185