3795
 energy: -5103.012172272591 gnorm: 0.000929409696 xtb: 6.6.1 (8d0f1dd)
C          113.39327284519732      101.53088790151347      127.88319675862158
C          113.81274187600403      102.95795867300581      128.19460143560534
C          112.22634483903667      101.56164213426595      126.89110758739957
C          112.66243110449750      102.13815539521002      125.54469371295541
H          111.82544065758982      100.55745784505109      126.75428427434910
H          111.43740387728418      102.18535625265429      127.31469743872151
C          111.48454514070448      102.58512592822227      124.67559142097126
H          113.29146961123520      103.01413848330648      125.72093174608348
H          113.25951190134761      101.40329529108209      124.99994202381795
C          110.61229579041530      101.43615928200465      124.19745543789001
H          110.86003969354552      103.25804883397943      125.27102760671777
H          111.87071795892736      103.11339964038419      123.80399369694325
N          110.47265842506086      101.38263198120710      122.87197767970775
O          112.87854389164465      103.60494623923526      128.83732660680985
O          114.88369474126962      103.41638243085318      127.85560399221600
H          113.01162875673259      104.59895567418519      128.97665846658990
H          113.07247286372385      101.05402547184089      128.80949931895759
H          114.24277513903743      100.98699130828277      127.46897438211533
C          109.70703090320546      100.37330415632972      122.17014839243410
H          110.95613628743494      102.06968802947989      122.29585055350663
C          110.51176548725616       99.83177696216582      120.99144176587926
H          109.46787857652899       99.58061787401802      122.88179048682049
H          108.76769681311664      100.81136162618333      121.81045206277639
C          109.64882950034406       99.13542534933950      119.93981235476866
H          111.02182288501211      100.67178994731424      120.51535289248447
H          111.28411697114093       99.14986989804574      121.35245468595249
C          110.43618619279472       99.01594453189529      118.63826793535505
H          109.34181186130030       98.14943043220489      120.29292503010174
H          108.74477615939426       99.72267909431137      119.76647116415167
C          109.67771689443929       98.33567416573328      117.49741123151630
H          110.71759051671643      100.02179465181608      118.32202296095146
H          111.36018647680396       98.47184551353214      118.83857825199250
C          110.19822445809247       98.80791830820655      116.13698458726645
H          109.76962206475118       97.25158548925943      117.57870180477006
H          108.61777632709959       98.58779615937631      117.55685569452996
N          111.63402156985187       98.70668027211369      116.04267123283985
H          109.78442629260513       98.20629865369024      115.32589867221625
H          109.89684678054812       99.85180857527860      115.98730903815611
C          112.28076185038405       98.21278013808337      114.97786564581149
H          112.16555256649823       99.18253165589188      116.76651503355193
O          110.06318023745463      100.64990149772788      124.96404703309430
C          113.79088652667011       98.20964797177891      115.15404202028685
C          114.20595857561781       97.13972227825958      116.18084191468877
H          114.25304185909508       98.00810992026662      114.18802818878599
H          114.10213015056293       99.19896648192928      115.49098848871604
C          115.23392071617539       97.61859032031840      117.20658497457057
H          113.32187115853935       96.78309312579923      116.71364376410691
H          114.62261930669376       96.28599296192579      115.64625074373897
C          114.64683937678271       98.48172455992855      118.33294675996736
H          115.68732841230809       96.73728590211553      117.66251722397645
H          116.02797810646916       98.17263146893747      116.70711380316312
C          114.38020835333944       99.91399362739723      117.91612325475977
H          113.71474494762042       98.04084135620447      118.68924685813528
H          115.35926071671460       98.50080481113376      119.15939283147871
N          115.48014952036004      100.65577652933270      117.75337628833798
C          115.41481745861381      102.04352242434818      117.35375123442101
H          116.39281613583853      100.23124674731578      117.89546396482476
O          111.72096494321444       97.78664866495217      113.97925136815695
C          116.46652022018739      102.90026946574676      118.04775787326666
H          115.53551626559096      102.12601094842429      116.26573930055802
H          114.41653404933994      102.40210685467451      117.61498652374736
C          117.85971050286189      102.67828729824039      117.46690074942012
H          116.17477224914479      103.94413953673353      117.93052061382676
H          116.46885025455681      102.66685426507006      119.11363669408163
C          118.94014102546902      103.42693924839050      118.24364706085802
H          118.09265955070330      101.61238514780378      117.48533404429256
H          117.86837414341281      103.00659854596375      116.42444261122897
C          120.31018924089746      103.24524739496206      117.59481297676297
H          118.69247434214584      104.48977081288984      118.30142546157853
H          118.97379964295027      103.03907359729665      119.26454779161629
C          121.44014006464636      103.75162803065008      118.47594091790188
N          122.72732118760032      103.42257451399895      117.89960923438151
H          121.39383436111895      104.83790213162968      118.60040126201486
H          121.35708371088586      103.28941455443723      119.47015557184464
C          123.85637049034881      103.99690105951549      118.34031775628171
H          122.76744689455285      102.59932716393746      117.30311197699281
O          113.24886619642157      100.36287893656618      117.74898456382347
C          125.12753854437838      103.38527158835610      117.77561100522072
C          126.34811625336806      104.30147285999644      117.85857202126607
H          125.32707284167550      102.48336964119149      118.36310404654601
H          124.94952189863662      103.06495763468823      116.74938964031045
C          126.24270928425658      105.53338623104790      116.96187055565092
H          126.46776143001091      104.63653759982448      118.88935892576899
H          127.23366752203898      103.72342438920271      117.58463785187944
C          126.22991909829101      105.17369865894212      115.47617356754442
H          125.34163818595883      106.08224557308374      117.23219406880773
H          127.10094905593360      106.17926270235452      117.15790658153153
C          126.34386057606191      106.37331845723848      114.55505682546752
H          127.06062582705098      104.50230279119978      115.24760985258186
H          125.30108680377633      104.65855229008883      115.21660243805943
N          125.56214955337440      107.40761432850601      114.85969322895285
C          125.50312386071184      108.61083735803707      114.06041624412335
H          124.97172376498398      107.38781416384964      115.68861272710490
H          120.47813257387611      102.18319256337178      117.41089636495808
H          120.33693521707652      103.76162774805913      116.63359683116214
O          123.83644361828554      104.90543663677258      119.16072668755696
O          127.07420700526448      106.36427449408845      113.56679073005216
C          125.18067690609647      109.82174975984256      114.92904839729128
H          126.46908290452532      108.73950339230197      113.56680999953682
H          124.73413004504772      108.48418303433222      113.28733664792716
C          124.74592796652026      111.03548649388409      114.10955816104723
H          124.38646492987272      109.55358166756913      115.62689392219923
H          126.06865170343642      110.07422916976850      115.50834957617630
C          123.36976279142452      110.86483248812935      113.46637573392536
H          124.72374392732932      111.90822045970675      114.76351739122886
H          125.48641077857063      111.22073696237321      113.33076178207723
C          122.93038592509542      112.09114738774237      112.66851888969299
H          123.39094101596284      110.00978060711114      112.78869841532298
H          122.63135967941123      110.64970970988099      114.24266065960290
C          122.46217414834452      113.25290175424200      113.54219030517199
H          123.74710045165970      112.42419610582481      112.02716796101845
H          122.09755782828995      111.81948526222448      112.01862582102576
N          121.79453291341198      114.24625510957135      112.73251049401074
H          121.76412344543344      112.87707280764789      114.30273891235298
H          123.29148109943534      113.74825050905723      114.05198124472568
C          121.97136752124381      115.56845659939415      112.87467805985403
H          121.23374008972208      113.87856313756799      111.97253260657041
C          121.11864222434305      116.40764783900579      111.93780827296746
C          119.80227726386902      116.77649046830767      112.63268253408390
H          121.65764833512264      117.32131812462492      111.68161359079338
H          120.91089681059400      115.85157139028661      111.02410011370448
C          119.04717751333595      117.86580977399207      111.87374922855923
H          119.17653044182588      115.88630613184398      112.72267732410626
H          120.01992268005993      117.12878154576019      113.64269498656920
C          117.59485945055161      118.01511433429941      112.33597357244065
H          119.57893157023685      118.81091691387975      111.99480071949706
H          119.03806133031800      117.61618055502001      110.81040589095552
C          117.45489991335300      118.40248368451176      113.80041075896219
H          117.10694076430111      118.78404771795346      111.73228499927177
H          117.06960654486478      117.06967127592171      112.18873481949812
N          117.85338923311615      119.64713933671111      114.08595559705971
C          117.72816417782255      120.21282232415885      115.40948537410459
H          118.23387792879011      120.25682423077578      113.37037142489807
O          122.71291936600485      116.05999758309193      113.71236701168941
C          118.75672140473441      121.30500968381639      115.67802213543924
H          116.72243221318939      120.64306872994032      115.51908860673940
H          117.82649484940922      119.39466649159911      116.12818349416463
C          120.17422042474692      120.79136400769532      115.93671045327626
H          118.76871844513862      121.98567776499959      114.82708711220245
H          118.42211779497278      121.86979146818447      116.55011788624809
C          120.84746178214361      120.21439842723980      114.69181229231907
H          120.77341296417575      121.62730692028238      116.30568741867168
H          120.13998723206785      120.03689584065015      116.72900546949603
C          122.35336549882156      120.02851009326686      114.86470242710159
H          120.39974420385998      119.25343273176934      114.44219852573097
H          120.66654874274924      120.88907757264580      113.85557342150037
C          123.04622233000869      119.65381768512071      113.55666089967788
H          122.79940694520840      120.95301774925500      115.24261090147981
H          122.55366888852782      119.22865745856106      115.58050024989247
N          122.96940962752210      120.71513737528728      112.57746266349886
H          124.10078017772273      119.43426103950758      113.76290559501133
H          122.59287994030623      118.76003728610398      113.12684812093387
O          116.98896128868411      117.64663274987512      114.64271996892900
C          122.59158021057651      120.54906618674501      111.30281047463673
H          123.20467663762270      121.64707735979346      112.89280976656141
C          122.73186667583785      121.80543365872521      110.45495995834499
C          124.19269358454765      122.21373055314051      110.26099575382861
H          122.27901949771189      121.61423679771919      109.48255859790881
H          122.19229167469216      122.61547654019415      110.94347183536063
C          124.32333611740916      123.39080096665046      109.29457028143651
H          124.62124096147109      122.49840528879521      111.22162921089139
H          124.75802465304241      121.36163856126178      109.87589948818830
C          125.78202982534741      123.78592023548363      109.07571596978298
H          123.88913627875024      123.12773402115093      108.32657743751219
H          123.76770878441724      124.24657344646847      109.68227307475679
C          126.48733176951204      124.31190082878264      110.31120606987670
H          126.35350412129779      122.94383676094718      108.68283809386588
H          125.82740878019423      124.58600363923786      108.33069570561784
N          127.81215340504745      124.22793147612290      110.24998841886310
O          122.17964489951839      119.49656458675535      110.83990917832919
C          128.69368674908733      124.83458661038074      111.21853764951294
H          128.25412384584521      123.82537120582359      109.42198322329902
C          129.63380855408511      125.84097510255710      110.55367989541891
H          128.07350281569185      125.31580477147949      111.97769141845706
H          129.29558973593302      124.05098259569900      111.68965902158627
C          128.89979773138793      126.94319449733177      109.78683762618121
H          130.27298460906943      126.27891273629612      111.32065029443716
H          130.27352990785860      125.29785027342989      109.85384514822464
C          127.97791552646450      127.82070656901162      110.63564954296817
H          129.64609465828192      127.57906350415598      109.30405313535618
H          128.30274133355326      126.47933859439561      108.99796447105629
C          128.71768331208864      128.60452653980059      111.71847440029983
H          127.48129664409382      128.53082439072307      109.97001722651405
H          127.19921682343291      127.21118850677775      111.09460625720506
C          127.81205729792343      129.63821273803504      112.38995239475837
H          129.09127453797339      127.92429328281227      112.48566543179304
H          129.57010732274432      129.12505413224451      111.27740681268092
N          126.72365379443220      129.00184002875756      113.09144202831095
H          128.39788846132333      130.23559446329617      113.09786767471475
H          127.37196960871997      130.30705631201249      111.64590763907756
C          125.44030198164502      129.19924712345403      112.79649415342689
H          126.96474381661979      128.32898628348357      113.81477410786957
O          125.90224547851570      124.79779147788931      111.28353736230261
C          124.46763808026935      128.39818406019708      113.64048593239872
C          124.00910308764789      129.26276526523634      114.81822881261451
H          123.60752527056388      128.13119449788329      113.02574521220059
H          124.94629537154501      127.48916400889347      114.00269449206026
C          122.78977493572430      128.67734506119425      115.52299381738568
H          124.83372712700896      129.36318878656232      115.52717712931697
H          123.76417520717601      130.26298717315640      114.45232104927614
C          122.41950434290231      129.49618236988445      116.75594348208773
H          121.94045960567856      128.65880497292906      114.83811371813054
H          122.99799823869013      127.64576788413702      115.81598990186323
C          121.00731968611744      129.23377856112660      117.25153291932254
H          123.13209175852523      129.31522627176349      117.56088048202992
H          122.47128248679417      130.56061194994334      116.50558577970324
N          120.68537561566832      129.77847799815771      118.42839589582869
C          121.56856109960609      130.54727619903670      119.28168076220541
H          119.69580311048695      129.74208474129284      118.67898448113489
O          125.05697314448308      129.99959290049205      111.94607307577644
C          120.82111986532530      131.29241634853838      120.38542673290569
H          122.29611421728174      129.87507828280226      119.75249591692243
H          122.13491286748574      131.26661485556721      118.68279641247361
C          119.80408397963618      132.31497900035410      119.87226300881704
H          120.30418175968623      130.57278210048764      121.02294176528117
H          121.57350699528007      131.79337281835063      120.99796726225817
C          120.40268394673387      133.32341071685215      118.89217106939088
H          118.98270843886586      131.77890740687687      119.40092562275879
H          119.39494398436919      132.84980273652386      120.73116801884359
C          119.39695015661988      134.36748158887514      118.40245055140078
H          121.23721524319616      133.84131282175454      119.37152015855480
H          120.79641532692084      132.80375616946210      118.01731938750909
C          118.14134931064436      133.75172345986846      117.77657296388469
H          119.08151646556207      134.99980839387803      119.23349462431977
H          119.89251516427285      135.00363051281124      117.66610278971446
N          118.45719964831730      132.69496427428862      116.83983070407233
H          117.49771935347141      133.35375776038879      118.56591213130467
H          117.58681554917953      134.51480050695096      117.22603568367472
C          117.98704570314710      132.64779558408944      115.58510590954423
H          118.82904588504999      131.84628498431499      117.24256880361507
O          120.19781627997565      128.57316247211162      116.60575569613096
C          118.41731894618293      131.42299120981434      114.79967194159438
C          119.65675656023626      131.74212530980421      113.95450608831760
H          118.62498412159972      130.58734676254301      115.46927385787720
H          117.60132859734048      131.14734806598170      114.13002255124809
C          119.99802789230617      130.56863228554442      113.04189361011501
H          119.45828954487141      132.63224330701635      113.35384582190783
H          120.50117386335548      131.96315714142750      114.61159148409617
C          121.20054525584413      130.82388672643080      112.13292028809971
H          120.19171062008191      129.68591435946448      113.65598623395454
H          119.13750921321382      130.35188219665810      112.40630345708568
C          121.34282924196613      129.69929723717172      111.11838038543105
H          121.03939807516775      131.74890401154829      111.57318141962840
H          122.12058174663254      130.93010461775995      112.70674671979006
N          122.59158259286795      129.31130610449830      110.86480135078958
O          117.29359355346263      133.52710732299244      115.09028170927066
C          122.92779495830577      128.28318284705878      109.90410358660121
H          123.39631568804488      129.75768999565273      111.31323383997344
C          124.03693594741536      128.76630744184993      108.97200868840360
H          123.26419370214229      127.38671484093707      110.43674002639779
H          122.01713440098951      128.04340883596058      109.35177340562828
C          124.56237926296761      127.66431500024399      108.05315645081531
H          123.66696616192067      129.59960728544624      108.37119875993895
H          124.85394522076147      129.14022828782359      109.59170884785405
C          123.50052852319416      127.16609942523534      107.07363018654566
H          125.40946484888545      128.05910370084578      107.48757807413325
H          124.92630174593664      126.83386421740803      108.66113441681465
C          124.07290815782001      126.27123170937536      105.97681126902995
H          122.73442731043403      126.61162823423408      107.61689098445279
H          123.02210845553199      128.02965363409908      106.60591733024627
C          122.98302341696092      125.86464087971268      104.98970929033609
H          124.86040992244948      126.80333781342421      105.43970122862451
H          124.50692574002764      125.36819338949560      106.40936490699188
N          123.52064996225474      125.04654851762004      103.92847573000854
H          122.19436754980372      125.31931363537147      105.52564822939473
H          122.54252886132322      126.75036307607292      104.52454021406768
C          123.09138400594186      125.13547196366743      102.66584107137449
H          124.11468908113088      124.27455812909160      104.23833210806256
O          120.36149231139383      129.18609131171826      110.58586372779774
C          123.79091855447274      124.21147816987805      101.68385639195311
C          123.42473272153858      122.75203189573475      101.95393085715789
H          123.49123844426241      124.49599888481210      100.67430760905106
H          124.87002573372972      124.34865062019752      101.77517895070774
C          124.14939489715073      121.77479657741213      101.03310172467022
H          123.66620533194641      122.50660584117556      102.98791444793936
H          122.34912643797200      122.62600701409670      101.81934640131213
C          123.91484469449973      120.33533059946542      101.50483509165325
H          123.78008315968204      121.88621835861565      100.01224656025369
H          125.22091964287227      121.98378024888783      101.03106470420710
C          124.52054988963758      119.36688687721548      100.51289532163906
H          124.38466314316055      120.19132420727537      102.47933404019263
H          122.84280101839927      120.15456783931630      101.58460354935295
N          123.71740209150211      119.05005104262631       99.50140378683517
C          124.09630226863098      118.16449875462352       98.41851741856725
H          122.78748675639447      119.45613717076523       99.47118981847542
O          122.20600144184462      125.90789197998117      102.31350166696544
C          123.22344178002301      118.39262361183640       97.18906077428016
H          125.14786790416358      118.34856124357367       98.17654162240827
H          124.00682257927046      117.12205891999572       98.75169269999523
C          121.76652372006620      117.98644990993418       97.41331260375928
H          123.26790254405736      119.44748286504488       96.91263739300931
H          123.63738698069038      117.81234052126956       96.36235114188359
C          120.92910025669352      118.17693389352395       96.14869119870905
H          121.73446121749761      116.94136020193399       97.72755311357746
H          121.33422486233729      118.59610240545616       98.20712668549707
C          119.42710860571638      118.03346136691256       96.39395571244566
H          121.11889583439135      119.17890065734822       95.75707106986768
H          121.24300519446737      117.46040808477630       95.38655443104686
C          119.01002613356512      116.61314388904891       96.77133779971975
H          119.11788782001155      118.70843371511017       97.19544944517519
H          118.88880234601135      118.32037574489821       95.48844470840471
N          117.58552292509920      116.53066688294058       96.98553250890188
H          119.25523658724460      115.90815937065001       95.97251134171279
H          119.52376711442989      116.30439146044640       97.68853842257916
C          116.79620035826733      115.68072006979534       96.30333947734471
H          117.17450860396883      117.25886720273502       97.56042043264956
O          125.66674045427933      118.93260712763615      100.64105617972376
C          115.32439826868831      115.78509099719386       96.67683240167590
C          115.06598369022173      115.18401291696870       98.06194435117972
H          115.02562305903575      116.83482851271293       96.67704410284135
H          114.74472055354471      115.25451957551479       95.92204783181492
C          115.59082350811566      113.75484604683719       98.20556261273519
H          115.54905448989064      115.81179421522543       98.81316923097796
H          113.99084710327176      115.19716649544812       98.25831349133591
C          114.90835936993250      112.78719252646792       97.23642069653150
H          116.66520395613463      113.74190052789530       98.02100669150390
H          115.41277217325737      113.42532443996643       99.23209252756355
C          115.08037655252846      111.33169028947680       97.61726585821224
H          113.83420506067084      112.98506637120556       97.20728021670607
H          115.32099698748696      112.93207678795538       96.23685465819344
N          116.33381656765474      110.86971892561584       97.67877651096151
O          117.21636363826029      114.87320459597025       95.49499996277426
C          116.59087332873837      109.45627382926851       97.87093821242381
H          117.12497518409603      111.47805646956040       97.51414230252483
C          118.02186276824725      109.16077849784759       98.29882659609137
H          115.89013412607429      109.07638323931540       98.62115396078175
H          116.37901417898536      108.92823005376290       96.93139995248269
C          118.20308814008685      107.65403707711376       98.48462819740983
H          118.71090941794306      109.53271410238820       97.53845130831375
H          118.23980600995601      109.68188993254834       99.23236781432099
C          119.65227869406763      107.24145868633416       98.74232455118002
H          117.57417627459459      107.31874312593712       99.31168740919271
H          117.85179793842769      107.14402461528059       97.58444276903121
C          119.73947222410250      105.75812269724129       99.09985624829488
H          120.25099208012556      107.44197385529681       97.85105297447761
H          120.06398874907710      107.83726839772038       99.55991768431099
C          121.16659146875381      105.20853822464161       99.09609372111480
H          119.30976986558964      105.60957353728946      100.09248861927351
H          119.14088426733731      105.18343235435678       98.38912195357481
N          121.19539697552702      103.90107431849913       99.75043650761158
H          121.53876357923720      105.17375643806206       98.06128962360424
H          121.82517919942838      105.87460518941246       99.65830011913458
H          120.61193050958909      103.25143690279891       99.23129161444054
H          122.13992980347480      103.52191754822512       99.75196150575940
O          114.11208281598051      110.61103338799876       97.84887140762663
C          121.47389814526987      125.31790969020363      113.08402006461804
C          122.82798846425744      124.76966389048688      112.69588604383742
C          120.35599204533396      124.31578395056394      112.77549711111942
C          119.94490153714423      124.36635194097508      111.30538646970211
H          120.68985373691449      123.31150947860685      113.04341774562465
H          119.48418122549748      124.54538187058250      113.38995766927665
C          118.73119962336945      123.47563421918301      111.00649866847135
H          119.67698108653204      125.39308050933361      111.05356900331351
H          120.78509676753136      124.07928099551715      110.66814426516940
C          119.05137280489572      122.02292194182989      111.25819705838606
H          117.92417307251768      123.76568821239789      111.68099559364622
H          118.38857446254062      123.64055271253579      109.98804556051367
N          119.35121096246992      121.23111793681518      110.22199979792192
O          123.47848757438780      125.53661873851549      111.86085212461545
O          123.26203594759177      123.71792317749505      113.12668350938073
H          124.40944297469167      125.19798634101232      111.63537589834981
H          121.30470246465386      126.26011978976095      112.56247528140820
H          121.50161213496705      125.51193522482090      114.15749500763866
C          119.37794750975566      121.55311564669583      108.81324528557474
H          119.63375094859281      120.28784498385862      110.46041219180513
C          120.02659908783190      120.40171846197143      108.04928231886055
H          118.35525116337394      121.71096270640011      108.44690110365907
H          119.94606541475548      122.47468090309833      108.66184260434864
C          120.12472468511493      120.66460735451510      106.54748924836666
H          121.02074864145396      120.21366014628795      108.45889557229202
H          119.43332745757289      119.49998637379228      108.21232487675779
C          120.87998307414188      121.94879169315307      106.20602840974004
H          120.63252759489232      119.81602821644678      106.08443245924200
H          119.12004004053908      120.71973614295038      106.12795960090463
C          121.28663569511099      122.02091196395226      104.73512888457545
H          120.25679136632044      122.81200336450287      106.44534938776253
H          121.78916298631768      122.01273066637965      106.80691936581621
C          120.12397690485061      121.86570279531308      103.76282487494353
H          121.78633198772715      122.97348174188527      104.55448439045763
H          122.00789642198860      121.23125375398392      104.51926090008710
N          119.08553178174486      122.84668438400931      103.98581392768618
H          120.50576541462384      121.94315595086245      102.73621377979018
H          119.65160603429459      120.88737605260216      103.86727615995892