3795
 energy: -5103.687974314402 gnorm: 0.000884778140 xtb: 6.6.1 (8d0f1dd)
C           99.90069584033883      117.84402715470807      126.11223056754029
C          100.00765737399394      116.39240842668393      125.69948871791742
C           99.29603360364383      118.70949419943599      125.00569628858082
C          100.23431881411317      118.86343417417292      123.80956324541009
H           98.36819367700576      118.23758044449401      124.67506839968536
H           99.05300084080983      119.69343766550520      125.40883300124359
C          101.38831559519558      119.83415509416351      124.05687734620464
H          100.63575438843523      117.88492509210141      123.53815460008030
H           99.66734198230100      119.23485552986956      122.95475270286030
C          102.25699817459052      119.95647104116136      122.81337271049482
H          100.98546781785427      120.82501159354150      124.28268192248595
H          102.00071805009330      119.50719004846528      124.89506910147341
N          103.56028418282867      119.80973972499599      123.04024176102541
O          101.17294094422000      115.86863943720347      126.00440077741710
O           99.11335017165622      115.77532761775132      125.15585329103172
H          101.26916133728339      114.89914845409004      125.73512383472173
H          100.89394038292309      118.18849058249505      126.39370121239740
H           99.25307669608161      117.87659457559744      126.99137843708547
C          104.60205297231663      119.89199069678226      122.03734927106929
H          103.88018211754489      119.56217822216855      123.97322162538622
C          105.91293720356838      120.34753346514876      122.67553517141974
H          104.74224611048380      118.90581951626018      121.58249736442622
H          104.27611310334154      120.58399765108784      121.25718540860431
C          107.13501442785687      119.90738471308472      121.87315219442851
H          105.91219651497929      121.43334299201589      122.77476783913818
H          105.97499291743922      119.92733946542539      123.68148347076165
C          108.42498268054909      120.43444880302843      122.49946993924311
H          107.16998701513666      118.81653143866048      121.84040976029300
H          107.04444153917227      120.26681207507359      120.84763366336828
C          109.66338605858824      119.99597886326110      121.72246527110336
H          108.39619146338890      121.52428044108495      122.54295357729683
H          108.49354919691126      120.06690410706643      123.52527851446004
C          110.96332885184793      120.40697048782617      122.40686866413999
H          109.65514383200987      118.90982977726706      121.62635812846999
H          109.64004432536591      120.45112789424613      120.73104403597519
N          111.11637283342594      121.84407040032706      122.41867716362023
H          110.99022114520727      120.06081414136284      123.44410845964735
H          111.81899263467029      119.95856917808266      121.88464166826233
C          111.69696761170438      122.50927299869554      123.42074811643730
H          110.79913155186551      122.33669839598913      121.59282501500128
O          101.77939530328555      120.17853429668934      121.70016009786804
C          111.79598358337032      124.01155390607359      123.21914472003900
C          110.42024660414314      124.67411431254492      123.14113446514378
H          112.36003568998997      124.40987711207812      124.06263854374245
H          112.36116728121507      124.19243650517689      122.30339336355735
C          110.49335281756522      126.20273511350445      123.12881927927630
H          109.91723843043188      124.33925313287835      122.23241846448286
H          109.81665307804786      124.35323828680204      123.99383445725633
C          110.94928396907261      126.78709774259772      124.47152473050139
H          111.17727266007805      126.52651617402277      122.34278936566892
H          109.49990630494460      126.59550229121241      122.89808714478033
C          110.95423543722696      128.30272096389498      124.42486295828961
H          110.28507002353793      126.44294713712395      125.26449426708341
H          111.96608996692073      126.45793311756736      124.68622646290093
N          109.87358286551795      128.88469699746872      124.95304846574808
C          109.74017163588431      130.31339490231306      125.13865807107376
H          109.21312194851079      128.30755462956603      125.47176128564479
O          112.12447642447064      121.95817141543782      124.43345296736527
C          109.96088352245678      130.68369351301470      126.60465798538227
H          110.48437141798536      130.80258763866973      124.50810517224893
H          108.74084754476348      130.62205458128892      124.82131594792035
C          109.73720860304290      132.17077439035870      126.87364392772241
H          109.27837541796497      130.09512002150174      127.22160031234209
H          110.97971668949022      130.39992916326975      126.87289472138751
C          110.15511045888604      132.55287298158100      128.29610388709952
H          110.30710612545361      132.76628558203143      126.15864335431873
H          108.68074278074465      132.40254371492881      126.73304566029597
C          111.67742982480407      132.58776990114362      128.44952531095532
H          109.73873981537535      133.52688678150960      128.55562132801418
H          109.73453324548669      131.82313533928547      128.99094865113648
C          112.14436492456065      132.33479678020328      129.88076503506537
N          113.51949394408440      131.87758045313430      129.87914025868139
H          112.08250346430762      133.22956805131955      130.50514995205742
H          111.51540969683131      131.56238938489773      130.34434510343982
C          114.38701848342549      132.08408410289098      130.87460888078587
H          113.79646300111435      131.32811226184356      129.06822620833228
O          111.87113029405867      128.93411136946099      123.90286838330215
C          115.72095266527198      131.37678037530438      130.70090691058527
C          115.74819997485608      130.11286160170383      131.57082701021537
H          115.88727127182759      131.12971639162095      129.65362995446165
H          116.51025533955070      132.04934181389640      131.03853295151302
C          114.74287407533468      129.04487748106763      131.14080619905801
H          116.74780253927914      129.67731872208660      131.55102710896318
H          115.52931365240205      130.41020395239298      132.59891707528024
C          115.16381721656090      128.32896000258759      129.84999892527435
H          114.67225475806991      128.30132689423775      131.93750015594003
H          113.75724157510207      129.49903874569725      131.01951064189117
C          114.07936543222836      127.35452672427225      129.45307761368002
H          115.30526001773927      129.05379711914648      129.04962724906204
H          116.10023998656190      127.80309971680917      130.03644219224665
N          113.00681734175025      127.93716632119519      128.90920829788186
C          111.73913912225129      127.29033179297203      128.65156527240555
H          113.05715736500429      128.92934807875244      128.71671961976136
H          112.11733035872405      131.80800484020995      127.82690415972627
H          112.06517345216847      133.54586858797728      128.10067880197821
O          114.12639384078979      132.75909528065813      131.86838002045104
O          114.17180700390652      126.13749694266902      129.62557174393646
C          110.63578257835819      127.89081301121816      129.52642861792228
H          111.47741453681398      127.41119737151072      127.59577565597394
H          111.86300709437457      126.22758872870931      128.86459016662721
C          109.28228772887149      127.21588032693569      129.29858001816916
H          110.92084541359877      127.80082437584863      130.57699218722283
H          110.55488389226349      128.95343927272427      129.28969009772663
C          109.17182819541502      125.85544233876456      129.98864796829434
H          108.49284585402205      127.86460865271033      129.68152184023216
H          109.11455896347606      127.09487216352757      128.22851474152137
C          107.99953263834692      125.03668626990010      129.44880320177271
H          110.08837850653731      125.28520106465631      129.83212033394869
H          109.05150273838136      126.00162009758729      131.06419103593760
C          107.75350991995796      123.77893412119271      130.28436732154339
H          107.09516152822881      125.64665014327929      129.42996521089324
H          108.22057776975339      124.74465307738339      128.42069910726789
N          107.10990363936703      122.74803649358627      129.50139355229555
H          108.70242906884930      123.35382522610632      130.62437678742572
H          107.15410617198344      124.02191307600614      131.16942982587952
C          107.41362362759919      121.45183928548308      129.61557051048618
H          106.33208968488279      123.01079843120371      128.90755068364513
C          106.80029983255878      120.58009521594512      128.54348420476356
C          107.71416518291731      120.57673779467200      127.31205641384322
H          106.67784346944721      119.56152717677591      128.91379844475094
H          105.82977790517791      120.98890877302665      128.26867512501718
C          109.00678131002182      119.79946250853740      127.54596973841079
H          107.16719873658889      120.13782611674667      126.47435685000771
H          107.96361447066491      121.60734925614892      127.04998566828073
C          109.97071519275566      119.96465621014272      126.36815889217063
H          109.48978265314372      120.14499565976243      128.46149621875676
H          108.76913471851073      118.74012486422876      127.67319056000464
C          111.06433378716069      118.92215988763120      126.44155168616534
H          109.42401361344228      119.80852945574711      125.43700078737801
H          110.40693906302917      120.96257012974883      126.36227508072672
N          112.09174172311641      119.23307029654704      127.23233784734202
C          113.24031547198692      118.37841169445724      127.44133495565171
H          112.08626151606526      120.12644643324064      127.71868871640666
O          108.17695962571116      121.01526910220083      130.47603656126972
C          114.53814198848187      119.12386969598840      127.14077882921430
H          113.25054715299419      118.02385966164863      128.47749729951900
H          113.12821166550789      117.51483513299118      126.78194930300876
C          115.77075056710279      118.22863145235742      127.23760149515799
H          114.46920501316383      119.54126197059740      126.13339543880983
H          114.63341719394236      119.95221785633134      127.84447987896723
C          117.04401732987759      119.00530185544362      126.89388047130892
H          115.84788913272040      117.82449039448203      128.24882489591457
H          115.65063580581440      117.38268555123994      126.56009237846754
C          118.24618920569118      118.10101566499047      126.61668239380840
H          116.86003464373587      119.62713012593804      126.01512513836917
H          117.27130505465639      119.67612225261622      127.72337301986668
C          118.16711839220872      117.47687869406275      125.22941055276965
H          119.16578620418755      118.67913054992559      126.68911167749889
H          118.28947088953608      117.30709153551187      127.36236323179259
N          119.23029387280398      116.51745773206574      125.01991759866853
H          117.20382502736703      116.96795232667105      125.11235876755528
H          118.23951519952121      118.24824539282309      124.45595465105031
O          110.96465759003206      117.85294389632652      125.83808521426300
C          119.60738399957594      116.08326597199358      123.81480553233479
H          119.61536563724941      116.08291113806465      125.85159779515392
C          120.55786226022505      114.90253242819588      123.86163885587933
C          119.71418550612449      113.62379879279270      123.93931009426815
H          121.17427759512634      114.88790312085993      122.96387692520085
H          121.19333305536516      114.97596686204889      124.74309691998933
C          120.54770791533768      112.37732747529579      124.22606424931907
H          118.97324801043594      113.74014145954791      124.73459649984004
H          119.17169890038011      113.49540863517706      123.00030440485145
C          119.64122688123275      111.16042997672542      124.40334208809195
H          121.25323679707988      112.19295643168537      123.41582223244730
H          121.13133968274254      112.52922472583936      125.13484680577132
C          120.39481242020712      109.90967915681875      124.81166170313166
H          118.87678371702197      111.36671474213342      125.15341690451366
H          119.12911513668988      110.94539747186266      123.46270903619070
N          119.65724688128547      109.01508655140422      125.48023141374256
O          119.18330863749645      116.55721638180600      122.76227039105278
C          120.23312708010964      107.77114805973386      125.95663140513025
H          118.64997323143622      109.12742729733711      125.53705847257716
C          119.18542495682215      106.82171971747364      126.52142087952501
H          120.77361031968582      107.29609499223028      125.13081449299803
H          120.96952364722016      108.01208598567266      126.73274144588240
C          118.23782969768305      106.24934124276943      125.46451843154124
H          119.71132612803906      105.99707815379398      127.00713198983932
H          118.60420931650262      107.34038110107763      127.28392017415001
C          117.55436181852258      104.98508816305717      125.98210770662702
H          117.48445569116213      106.99337401430616      125.20542175747569
H          118.79857105101816      106.00113750588908      124.56152996179662
C          116.47050205746423      104.46299331491409      125.04128661984105
H          118.30630658108416      104.20445312467098      126.12314985425554
H          117.10712657872222      105.19801398796142      126.95428714568463
C          115.89478436649618      103.14461988501279      125.56183845405641
H          115.66613825888146      105.19584469918628      124.95595056471282
H          116.88157988256194      104.30777091067289      124.04406909107999
N          114.70737880966188      102.74052111609953      124.84439588450213
H          116.63162112572117      102.34295685859102      125.46281190865467
H          115.63463741302805      103.25824648820426      126.62210153708641
C          114.56166239775649      101.55943236006291      124.24346702592732
H          113.92457957962795      103.38654382535981      124.87436000018718
O          121.58510478992532      109.72721867956234      124.56686854255382
C          113.19787273372316      101.32553648209442      123.63046633884345
C          112.16544104726306      101.05892781766123      124.73083786946350
H          112.91937315467042      102.20390656844309      123.05002625569067
H          113.25527989307382      100.46961140879590      122.95560096193292
C          110.71441585838744      101.20433460624648      124.27336441880769
H          112.31937460955547      100.04948218126854      125.11690058034186
H          112.32838968265332      101.76279817741212      125.54748482518694
C          110.37035297186785      102.66234951372601      123.95318115123557
H          110.52663631321604      100.57665326087439      123.40000778511866
H          110.06900476210066      100.85693870051526      125.08367592202121
C          108.87684662042274      102.91707741519163      123.95698277090055
H          110.83277316785014      103.30353190357732      124.70620540955839
H          110.76810435229379      102.93730042829222      122.97504750001302
N          108.31264031429160      102.92191585874659      125.16763684546054
C          106.90777147574852      103.17913115716402      125.38456814927046
H          108.83435542135386      102.61091745294898      125.98492255978447
O          115.46274200275188      100.71913520359226      124.20638349237835
C          106.20960930478751      102.08002172007575      126.18621927672606
H          106.80193640761941      104.11802316634378      125.94195614071440
H          106.45377894170804      103.30832205177087      124.39984092485510
C          106.43246609560116      100.65432732333990      125.67209502374200
H          106.57571423430551      102.12310230133650      127.21336787984191
H          105.14422531684393      102.31274490187802      126.20514671872998
C          106.29935349098432      100.47499660952639      124.15984069841133
H          107.43555361833877      100.33646207320039      125.96408744621364
H          105.72043002974316      100.00023267735315      126.17906994222461
C          104.96357107961609      100.95129531821638      123.58953632972370
H          107.11651403635419      101.00564897141875      123.67358589698391
H          106.42410688521562       99.41495884575636      123.92639670096389
C          104.95124472172074      100.88831189146958      122.06757130880906
H          104.15672139784348      100.32451162359162      123.97101705851549
H          104.76049914274165      101.97596897975927      123.89710859106590
N          105.91324492810701      101.80799676932978      121.49014561784934
H          105.18242058701662       99.86957684555304      121.73140449628323
H          103.95953896951804      101.14473735448520      121.67968338552382
C          105.96135367877184      102.07501886415527      120.18405843062341
H          106.63927805175214      102.19375523843384      122.08436137670424
O          108.24272527603920      103.13569905180017      122.92295151634023
C          107.15380860070721      102.91481875750446      119.77690779994747
C          108.42676845850795      102.05816112297181      119.77211041316788
H          106.98415617986620      103.34210286129802      118.78822643649804
H          107.27761713979024      103.71725057868150      120.50355777152761
C          109.67368357482165      102.93368477417870      119.68337063719102
H          108.47201672241710      101.48482146258063      120.69993253820677
H          108.39733684250633      101.35709617386883      118.93687635927792
C          110.97274456497108      102.12382317626643      119.72139525482851
H          109.65984382199213      103.51409854870538      118.75974766860116
H          109.66628276988270      103.61758742171531      120.53580106903581
C          112.13676718929254      103.06409294065212      119.96740002596061
H          110.93988430596274      101.39961437535875      120.53686398217859
H          111.11570681263741      101.60339029877863      118.77568021736339
N          112.53766102233655      103.77053390584071      118.90596807212157
O          105.12036194546432      101.65925185330255      119.38904053261258
C          113.57870535987276      104.76719583971030      119.04800421664820
H          112.03999847973250      103.69249455283827      118.02305066391348
C          113.82483273481340      105.55763285197770      117.77110031947495
H          113.29360489242228      105.44337657218429      119.86429955548765
H          114.50169615560556      104.26324710510569      119.36189989458161
C          114.81597210403648      106.68717846084832      118.04969024052866
H          114.21377440293804      104.88979713186669      117.00001237527331
H          112.87631547672986      105.96782911103891      117.41778001745297
C          115.16613439393279      107.52421083049484      116.82150202224484
H          114.38325355039468      107.33287285440885      118.81570038573112
H          115.73268543667216      106.25782356979954      118.45726588480855
C          116.10290406425918      108.68680689088663      117.16691941056376
H          115.64542200472690      106.88244747077943      116.07969640672457
H          114.25271732076354      107.91821032548737      116.37257297252930
C          115.36674362511718      109.81700372820761      117.88389408386774
H          116.92000407166580      108.32665849964305      117.79446092494251
H          116.54107571020816      109.08087119845739      116.24873930728339
N          116.26092858301529      110.84241363320196      118.36981270940321
H          114.65465137059553      110.27754414507505      117.18868652254801
H          114.80507494779745      109.43478657015152      118.73924480048375
C          116.16398316941279      111.41359064696310      119.56759962854215
H          117.09403375748077      111.03612126574137      117.82503901679888
O          112.65749841382501      103.18901647967803      121.07332955737274
C          117.11717709497252      112.56361305476581      119.79731599323841
C          116.92975586458724      113.67806736004270      118.76076773874662
H          116.94771287120844      112.95353476564136      120.80215675233966
H          118.13490763372559      112.17952507627552      119.72155214545786
C          115.48324502904056      114.16319788782141      118.67386520977279
H          117.57516524698410      114.51430174949490      119.03886675148586
H          117.25716236613840      113.31889285301561      117.78324394243657
C          115.32453470121652      115.34366701845838      117.71074372259812
H          114.83480605130315      113.34375361870542      118.36040966974812
H          115.15364450053723      114.48556213272637      119.66383070096052
C          115.78080976743982      115.02636272401811      116.29988457066635
H          114.27252795140066      115.62908254681760      117.67902874875001
H          115.90081817899274      116.19444527323270      118.07646546357249
N          115.09143660441015      114.06244743339539      115.68724934606364
C          115.45164975947863      113.60181691605760      114.36370231424652
H          114.33286133304975      113.58532100700269      116.17040512400418
O          115.35068622111444      111.06100017430862      120.43031726839921
C          114.32752605438698      112.85896869521252      113.65559785650865
H          115.74043313184464      114.47890281769860      113.77439561599354
H          116.32472371602293      112.93981731933047      114.43334896267163
C          114.76044871728230      112.54885688346047      112.22385471134199
H          114.11006113516859      111.93309794887274      114.18999376664773
H          113.42824953259776      113.47335038963861      113.65310066531201
C          113.83490831335358      111.60356806247677      111.46063894454986
H          114.84359297235133      113.48451910081835      111.66879288527241
H          115.75473620697616      112.09658199676537      112.24703384655338
C          112.44765729811944      112.18077729448903      111.15255027411598
H          114.33145679454951      111.36688716095227      110.51783376039852
H          113.73159483935558      110.66669611961089      112.01180681500993
C          111.36733184478412      111.73885506622739      112.13701201832140
H          112.49314593474695      113.26982707356726      111.12503755358703
H          112.13613409198530      111.84783713258297      110.16130750884034
N          110.05614731076847      112.08403099864010      111.62844558328092
H          111.42515416404372      110.65068408595135      112.27643906460069
H          111.49111547117896      112.20859995997910      113.11454435859132
C          109.01285799201382      112.44470856461677      112.37728411454049
H          109.93904276616870      112.04412905791976      110.61759263534165
O          116.69493980989326      115.63780719959830      115.74200217117235
C          107.73760023829202      112.64544029277302      111.57693474559262
C          106.69417751793034      113.45784898350044      112.33755212862843
H          107.99057492070729      113.11839934556259      110.62689059052835
H          107.33376922106255      111.65537194916354      111.34658863255635
C          105.41000076478268      113.61005821296835      111.53198607249044
H          106.48289038020937      112.96030694405034      113.28380247450312
H          107.09536429643022      114.44470486591153      112.56986564916713
C          104.35871457416927      114.43547468811379      112.27678222727877
H          105.63013796436046      114.10686765847316      110.58452230543523
H          105.00750216586482      112.62222473428105      111.30154587083175
C          103.13114539708738      114.60905459897097      111.40628946185818
H          104.08612825281298      113.95091165333774      113.21310115699485
H          104.76084321813798      115.42554765570650      112.49334514520845
N          102.06691607030054      113.89775701732812      111.78821002055433
O          109.07008245128419      112.59177185956405      113.59733650552765
C          100.79393427822257      113.93514117344638      111.10022413979382
H          102.14757536135065      113.24016402109515      112.55611111729374
C           99.65287745093705      113.66789238248137      112.07426539370196
H          100.69459964760942      114.92275617364102      110.64182128258788
H          100.77984533726956      113.18687332070301      110.29676562146854
C           98.29789225007360      113.71471811901760      111.36964621604167
H           99.80209602942917      112.68108033509344      112.51805013538062
H           99.69390743236640      114.41033660750990      112.87165313407289
C           97.17689819767520      113.06189041471923      112.17819674848992
H           98.03963762851433      114.74921680328406      111.14285662042330
H           98.37824383086071      113.18253773595792      110.41953639562502
C           96.92834659524516      113.68516500893953      113.55190334193009
H           96.25570939537124      113.11332882271377      111.59528096886892
H           97.41841757615713      112.00734186812123      112.32170658372613
C           96.50559281405022      115.15010107262744      113.47815837572786
H           96.13208219423574      113.11476598534229      114.03459012429180
H           97.82164160469114      113.59465673207892      114.16903004954872
N           95.96996296852205      115.59644614976490      114.77619218677110
H           97.35247804131997      115.79343012242002      113.23859535485944
H           95.73650377960514      115.28628774261270      112.71606485952609
H           96.67463243650577      115.45602905166598      115.52433718489404
H           95.11556915239392      115.09495777279163      115.01836777671437
O          103.13387738423664      115.32440212853020      110.40540671122498
C          126.38210829302186      131.81422641438510      125.04481026923298
C          126.58367313066495      130.52878050725946      125.81482065122145
C          125.64576571158554      131.53741820354924      123.72863308735907
C          125.65156126118518      132.73927892734130      122.78768567968646
H          126.13498300270020      130.71020340824856      123.20966897317034
H          124.61896343035707      131.23583006260105      123.93935909570463
C          124.94346678976937      132.38107629030654      121.47842902914655
H          125.15890975551902      133.59545546195898      123.25048636718532
H          126.68381144284849      133.02057729338122      122.57148412033533
C          125.15925323935424      133.43388339488442      120.40736310694834
H          125.34394323169984      131.43697210717937      121.10592634739881
H          123.87090168506543      132.27949264969115      121.64598475769577
N          126.35114782901908      133.34426237140227      119.80534994391707
O          127.84188510784492      130.29933268353435      126.09571123752239
O          125.67773521123659      129.77561239734516      126.12129563728419
H          128.00758216749765      129.41218125355209      126.52313894734412
H          127.36040392312242      132.25326256096707      124.85207953058382
H          125.79924911828334      132.50682290235940      125.65484388133143
C          126.73009155445629      134.14290077738053      118.65955473282142
H          126.95697541084898      132.56798451090569      120.03801244261749
C          127.55608857849430      133.31550281709204      117.67775135602473
H          125.80914536828610      134.51452802557796      118.20219428268305
H          127.31277736626528      135.01163968292914      118.99000780204085
C          126.84733473549893      132.04983665028340      117.19713401358867
H          127.81562706597701      133.94406184779456      116.82501572290352
H          128.48283738536301      133.02325684616869      118.17591382984109
C          125.72976143635098      132.30366859391486      116.18909599354021
H          127.59126601743016      131.39268925225076      116.74456208040203
H          126.44198330510321      131.51728368732665      118.05892702566607
C          125.11116948977150      130.98225574375547      115.74170530444967
H          124.96023011523464      132.93644684352452      116.63506763399063
H          126.13483554596301      132.82998711609869      115.32203616760435
C          124.10147320596955      131.15245092500169      114.60944630935684
H          125.90710310410883      130.31234634766520      115.40977679657271
H          124.61181139124830      130.50911366801384      116.59023345445121
N          123.58503941670264      129.85668117205586      114.22170361951056
H          123.28541987069949      131.80660560135732      114.92990179873010
H          124.57283853796092      131.59266938165183      113.72764284629591