3795
 energy: -5103.066739066440 gnorm: 0.000887375333 xtb: 6.6.1 (8d0f1dd)
C           99.97708176857340      117.85128160099846      126.07297638521173
C          100.07802063994015      116.40078907384921      125.64460871520116
C           99.31337982398438      118.72110017437649      125.00610464939973
C          100.20404433771280      118.91609069043251      123.77975543734436
H           98.38535954119757      118.23298341517368      124.70050315295084
H           99.06199901199832      119.69357377038497      125.43359703454297
C          101.34922223307353      119.90273285710774      124.01154747769955
H          100.61248057968086      117.95002099483732      123.47593119230501
H           99.59770527072048      119.29442922842976      122.95582281210321
C          102.24891488105204      119.97519147361970      122.78834215153647
H          100.93799672170954      120.90018590289155      124.18767381028434
H          101.94237802006400      119.61384089138043      124.87740253694660
N          103.54476388768322      119.80991777483004      123.05790604089289
O          101.23907677762526      115.87395233261951      125.95922723943615
O           99.18722482731297      115.79822114826598      125.08757712558020
H          101.33406425591512      114.90800719481717      125.69038601761682
H          100.97977313490036      118.20195693609011      126.31092681005389
H           99.37401512531066      117.86958181882690      126.98445139862741
C          104.60478744554671      119.85367258782847      122.07564208226373
H          103.83768172273747      119.55047564456190      123.99922044876834
C          105.90472936349693      120.33064564681844      122.72158870540936
H          104.75548264645323      118.85341538272441      121.65436141972204
H          104.29686756191700      120.51868843749810      121.26444173110589
C          107.13916022214312      119.86782348773320      121.95178153630872
H          105.90087135598166      121.41912366339336      122.78447238229394
H          105.95084680207830      119.93999497342321      123.73974219801826
C          108.42432232743249      120.42676437749853      122.56057687480335
H          107.18159853617790      118.77581143826421      121.96310930879596
H          107.05587661305009      120.17830943934838      120.90796812275052
C          109.66456145697377      119.93341240592076      121.81974590726726
H          108.40201586669214      121.51697403821547      122.53517639444316
H          108.48068536733280      120.11964547364961      123.60543183101734
C          110.97169916258578      120.36683686226409      122.47617044199060
H          109.64489636793890      118.84248980290408      121.78664716103142
H          109.64547556878803      120.32770871494860      120.80100373846712
N          111.12996735826168      121.80132510237642      122.42814372229140
H          111.00601534895470      120.06527246790012      123.52606288987225
H          111.81705349248601      119.88713406485122      121.96322698893349
C          111.77143590653705      122.48190996507130      123.38930655106343
H          110.80791437270733      122.26493388129585      121.58847044040105
O          101.81301243123380      120.17682778302837      121.65741817544834
C          111.86617127421600      123.97964965270928      123.15526761477835
C          110.48573020095543      124.63713488579042      123.12334036665746
H          112.46083760385106      124.39136435238703      123.97058563094815
H          112.39710545512700      124.14747982583336      122.21668068565302
C          110.55231432767464      126.16562293851476      123.11359599203593
H          109.95221620570740      124.30440252569089      122.23097662281897
H          109.91251532566044      124.31336898733525      123.99516394126869
C          111.04376290985647      126.74520741788520      124.44590250806839
H          111.21207193914159      126.49578226472259      122.30932430064952
H          109.55199055278624      126.55794492219465      122.91195246629415
C          111.04706514922661      128.25915179349172      124.39567218953525
H          110.39651147804616      126.40173562894542      125.25285295527236
H          112.06515781957896      126.41533800426465      124.63477723174556
N          109.94347132181389      128.83701525434805      124.88347722987282
C          109.80437255623852      130.26456885225400      125.05830007756842
H          109.27545744638194      128.25806121326937      125.39628914114975
O          112.23596660924321      121.94648420113528      124.38419421672153
C          110.02110283076100      130.64733161739224      126.52165160786264
H          110.54695505503317      130.75402187545492      124.42520102481663
H          108.80402981925155      130.56896835910024      124.73424283015041
C          109.79730305517538      132.13520068922961      126.78237070075272
H          109.33725943331527      130.06228032738221      127.14083525154439
H          111.03995911924503      130.36731965502756      126.79241259489908
C          110.20512341471650      132.52182320719052      128.20647403374451
H          110.37308192363616      132.72682001799868      126.06766276640212
H          108.74131267649179      132.36884506157074      126.62947438055295
C          111.72566009776838      132.54506501406206      128.38062835087646
H          109.79060411628488      133.49979688114772      128.45517753341929
H          109.76726680069650      131.79912163646793      128.89883558430370
C          112.17205569910486      132.22403442317832      129.80530747371654
N          113.54947570904311      131.78560812705675      129.81026130697143
H          112.09088021349172      133.08642649409484      130.47096434209061
H          111.53746508459156      131.42413869232502      130.21490255419585
C          114.40009251098328      132.01739834267261      130.82832181567443
H          113.84616153897768      131.24656661537460      129.00430919936673
O          111.97534174886658      128.89267086782297      123.90171951314260
C          115.74270259290775      131.31750685895273      130.68080531770488
C          115.74779784005955      130.04328354000558      131.53544739009462
H          115.94601702009422      131.08735728880183      129.63497891536281
H          116.51893207876833      131.98769478880533      131.05193324077612
C          114.74011418974946      128.98790188195341      131.08098869424290
H          116.74292630509237      129.59911729227298      131.52489934642605
H          115.51317701947720      130.33091531243593      132.56193362626001
C          115.16339724904803      128.29607890112666      129.77627716200942
H          114.66468446169854      128.22726037358993      131.86064878682708
H          113.75574276949214      129.44612012004839      130.96463099078110
C          114.06559997444738      127.35758476489239      129.34237555573924
H          115.32950808750266      129.03849494969984      128.99642439269093
H          116.08718332998569      127.74883403369569      129.96251964388020
N          113.01249348940941      127.97187326256970      128.79174512471974
C          111.73958936843965      127.34597164523767      128.51497635894839
H          113.08711802552277      128.96310621657807      128.60306243938766
H          112.17392952071745      131.79554510037445      127.72705911467762
H          112.11983101341060      133.51740147548247      128.08099163320875
O          114.10861672866794      132.68855127679780      131.79969679442442
O          114.11987693927775      126.13620237343800      129.49266339729272
C          110.64416477079875      127.92199604538590      129.41635066143988
H          111.47476884146347      127.50587027848860      127.46510316998928
H          111.85529820811395      126.27523334027929      128.69063892281940
C          109.28878156921864      127.25185737044404      129.18468357694866
H          110.94091505827967      127.80406369658019      130.46127393549747
H          110.56239863789705      128.99181710126632      129.21149791338857
C          109.17525169046532      125.88934768294448      129.86988303868017
H          108.50004286878657      127.90205686554933      129.56875537383979
H          109.12245430693244      127.13478776261108      128.11420234438069
C          108.00225499257002      125.07228787890077      129.32838977031824
H          110.09233029521373      125.32048694884963      129.71249397239205
H          109.05547235917703      126.03437750156021      130.94627589213744
C          107.73267754310730      123.83199968241806      130.18410492114853
H          107.10516446556582      125.69231673886522      129.28515927712365
H          108.23532495056810      124.76019903830365      128.30929414889502
N          107.11735767042887      122.77981919769448      129.41063076083438
H          108.67275710572601      123.41803668982332      130.56001640367302
H          107.10948268086049      124.09697844850561      131.04717213669568
C          107.45059848030823      121.49150832290849      129.56586038708707
H          106.31156107170109      123.00550174852943      128.83727696564935
C          106.85075624575778      120.57538937141982      128.52391001248662
C          107.76457161933747      120.54016763159126      127.29248778895888
H          106.74530944695844      119.56870263827201      128.92932492611027
H          105.87428860039358      120.95845637446382      128.23353718273597
C          109.06809632690849      119.78668730881940      127.54439339361242
H          107.21952565581844      120.06786338093929      126.47133907223728
H          108.00256280086462      121.56338173517865      126.99301542108491
C          109.99151164071441      119.88579967049689      126.32581152326857
H          109.57196088022981      120.19510020196610      128.42080811759840
H          108.84159607565388      118.73641082382876      127.74272808897477
C          111.09302293665232      118.85171828481121      126.40102679841549
H          109.41015289524132      119.67606436194664      125.42613607382653
H          110.42252899179340      120.88352048706439      126.24965986562265
N          112.11461780619946      119.17428131488177      127.19715985584583
C          113.27484318774931      118.33508158257145      127.39624127627089
H          112.10693355666872      120.07640209071626      127.67110763537241
O          108.22791073275226      121.10323124383849      130.43041427982936
C          114.55388107079085      119.10214747660977      127.06721751918964
H          113.31133944697125      117.99326810240552      128.43541597013339
H          113.16527869505703      117.46381271657027      126.74683731666336
C          115.81479316291076      118.24832870329058      127.17214207992818
H          114.46706976991693      119.49541192083511      126.05140786150301
H          114.63571662733699      119.94629900840580      127.75320294377876
C          117.05357731480869      119.05478719313598      126.77301628398209
H          115.92835401791019      117.88659608903733      128.19597247661858
H          115.71149929050071      117.37318389832362      126.52944196155967
C          118.28596072704954      118.18887453280405      126.50506067067437
H          116.83244812513220      119.63338417594760      125.87303218944552
H          117.27528932082672      119.76954274906595      127.56742006115597
C          118.19245144075138      117.49351436770897      125.15266706510084
H          119.18039484399769      118.81114557977688      126.51967879007535
H          118.38741020258833      117.43586579210283      127.28692762131843
N          119.26464352406039      116.54118168803035      124.96263724370432
H          117.23559744241133      116.96374395252798      125.08264552028459
H          118.23804879085043      118.22680981110373      124.34143416033196
O          111.00595264995020      117.78473555544117      125.79772315090483
C          119.66404931326903      116.11217617422894      123.76129150719697
H          119.63230767069078      116.09970810571768      125.79932045907555
C          120.60590185307042      114.92490743566266      123.82398430087623
C          119.75338610995497      113.65117895540483      123.89150449631620
H          121.23623425755761      114.90486137137226      122.93571983064413
H          121.22851219013060      114.99472010872206      124.71535342859015
C          120.57300419613267      112.40188268549089      124.20520413121888
H          118.99622245505985      113.77776049222493      124.67013804511791
H          119.23029483673943      113.52035486796714      122.94157641799801
C          119.65588845606362      111.19327161310012      124.38144633586582
H          121.29010131643500      112.20263361229199      123.40863121119554
H          121.14387314906735      112.55984074203812      125.12167316124243
C          120.40452583187559      109.93530304469493      124.77800360916928
H          118.89691574646649      111.40041632464829      125.13707066519623
H          119.13731449993661      110.98697655442150      123.44236577516480
N          119.65648370720450      109.02039884129665      125.40555852061452
O          119.26602881290839      116.59317416115536      122.70478124061383
C          120.23427865023945      107.76436150886401      125.84442507164238
H          118.64520474139776      109.12571297890590      125.43964935079252
C          119.19057825411862      106.79914699214427      126.38904310893308
H          120.76851780343918      107.31006660812393      125.00192951945924
H          120.97832817510943      107.98525255069372      126.62010031356343
C          118.20951638617434      106.29225479878663      125.32924305258940
H          119.72009450486287      105.94607708996845      126.81992952140699
H          118.63555291941994      107.28558904412881      127.19255247029402
C          117.51256967426193      105.02040302353667      125.80587987149721
H          117.46687391628484      107.06276743419106      125.12181642707542
H          118.74900485427204      106.07617139859379      124.40472024193055
C          116.40480601071438      104.54357892441990      124.86939952043356
H          118.25617931225020      104.22602923437191      125.90808079612184
H          117.08463603887995      105.20678159360465      126.79268375759447
C          115.83368252338660      103.21338572510099      125.36268256026474
H          115.60492035272610      105.28495013665042      124.82921597827483
H          116.79399921672965      104.41914460898501      123.85930555144716
N          114.66890399770166      102.80226775233763      124.61849537617252
H          116.58292861609829      102.42163722373432      125.27101022828485
H          115.55879646733459      103.31629748749876      126.42194752775283
C          114.51139985916809      101.57264793360780      124.11958541805870
H          113.88491060870315      103.44781899125287      124.62438919672289
O          121.59950053109596      109.76686991237948      124.55733282490704
C          113.15804523232974      101.31677950710338      123.49758550064003
C          112.11955677074640      101.10340656505223      124.60568676834146
H          112.88573596735739      102.17039809295294      122.87702414352397
H          113.21944026130728      100.42809643616536      122.86666326428519
C          110.67213832076138      101.27849456831717      124.14729616481057
H          112.24800570901631      100.09951817471399      125.01777804581089
H          112.30333395343750      101.82087147998141      125.40627955441637
C          110.35735697787186      102.74467955262431      123.82766111081943
H          110.47211302455571      100.65232788902016      123.27534033537175
H          110.02214577629989      100.94229358262962      124.95843000438850
C          108.86993198342634      103.03067592090073      123.87855767091385
H          110.85577813213034      103.37414339797473      124.56754869846822
H          110.73587330395783      103.00709924190090      122.83943473834549
N          108.35027451982383      103.03979263263419      125.11025301770235
C          106.95438848776621      103.29724512448382      125.37248634561018
H          108.89190999909015      102.71026865970413      125.90868279573357
O          115.39752160319591      100.72064304393680      124.17611957447525
C          106.28025253474874      102.18624705570838      126.17894867445172
H          106.86569232024868      104.22653304441714      125.94815686299019
H          106.47223286369488      103.44229604768678      124.40331920800756
C          106.48446883887424      100.76852508596446      125.63553865574269
H          106.68171292195717      102.21130974999058      127.19303238581979
H          105.21597516419115      102.41850057942352      126.23838160944563
C          106.30307692284981      100.61194182244921      124.12548020735520
H          107.49528176987454      100.44463483530066      125.89066175714585
H          105.78777512379072      100.10647398217399      126.15470450154112
C          104.95591742462140      101.11132398017874      123.60414258099836
H          107.10938553400094      101.14123045399714      123.62116543414456
H          106.40943281045303       99.55360998659563      123.87207794926617
C          104.89170195602468      101.07624902821050      122.08294138826378
H          104.15275185838118      100.48878095089489      124.00174429512863
H          104.77588387514542      102.13262600187511      123.93516104925402
N          105.86927713119528      101.96714695539011      121.48746704181067
H          105.07148433494200      100.05644045673952      121.71837285687322
H          103.89541577283138      101.37400674668109      121.73700945959961
C          105.96561185804062      102.12555336551165      120.16497160558292
H          106.57987560599140      102.39112171567200      122.07678171046953
O          108.20299176533489      103.26806620245085      122.87194418206097
C          107.16398907914829      102.94586214753956      119.73734077389376
C          108.43846376383009      102.09333298362543      119.80290338090299
H          107.01409380763741      103.31876796322594      118.72354843545740
H          107.27282622222570      103.78573057095441      120.42256830547620
C          109.68142286269173      102.97197486516417      119.69413381006379
H          108.46493712626123      101.56886665139299      120.75966582951797
H          108.42634753671274      101.34866656491745      119.00505484029168
C          110.98720028429310      102.17412299887178      119.75461587306319
H          109.66461207489944      103.52775961265399      118.75571356031796
H          109.66502357265263      103.67384484009968      120.53098456987898
C          112.13865694274961      103.13452148522622      119.98411206789351
H          110.95834888334068      101.46705205077883      120.58510318017356
H          111.13625352869494      101.63424407899146      118.82095052263300
N          112.52503895399853      103.83280515032784      118.90859479921340
O          105.16300622111440      101.63379483125293      119.37794293386600
C          113.53607091462631      104.85760328330687      119.06063978626290
H          112.01116004660753      103.75923046640430      118.03429243443863
C          113.81697371324277      105.61969205945755      117.77335054429486
H          113.20710688767139      105.55220458898019      119.84494063341555
H          114.45511079030256      104.38257416884311      119.42436440635448
C          114.80805223757235      106.74878660428169      118.05653864218259
H          114.22221887849643      104.93696006223124      117.02537419297990
H          112.88078300409487      106.03250894329412      117.39174570767811
C          115.18825277825758      107.57161566133549      116.82748505384303
H          114.36647280527275      107.40819680793545      118.80689041692092
H          115.71513717938433      106.32247653423236      118.48773051616942
C          116.12845961425757      108.73080777643182      117.17692462159286
H          115.67637347904997      106.92155455225534      116.09988486596191
H          114.28787777254226      107.97294498956681      116.35843857900254
C          115.38779534477537      109.87481122632461      117.86755146667839
H          116.93031992076681      108.37386686178080      117.82500034167003
H          116.58630919436729      109.11327591323355      116.26320108286444
N          116.27932126869777      110.89098158199097      118.37743668832880
H          114.70431577873313      110.34357168418236      117.14903544213875
H          114.79430483805181      109.50521870098005      118.70688134469486
C          116.16404283968568      111.45154504152217      119.57686321173834
H          117.11579386080665      111.10269995974710      117.83840557283698
O          112.66150508915817      103.28464144931051      121.08071763241844
C          117.11039691466799      112.60432979140100      119.83069863578095
C          116.91784284733629      113.73319716094828      118.81132560939002
H          116.93332609512152      112.97719658615770      120.84123947796023
H          118.13175619587250      112.23167051377348      119.75032569045831
C          115.46629539029595      114.20315779557848      118.72847997275512
H          117.55364374727746      114.57320120494258      119.10203994674627
H          117.25090456736073      113.38982242591683      117.83078136740976
C          115.28703911538067      115.37613942983943      117.75963057428693
H          114.82362061342681      113.37654855160206      118.42269931905857
H          115.13712557694234      114.52917840195639      119.71769473509177
C          115.74828507523871      115.06506930588837      116.34944290186901
H          114.22892923183925      115.64115734280092      117.72537423210028
H          115.84313590533348      116.24228447350443      118.12121388318167
N          115.11601013071763      114.05065920324802      115.75855996253470
C          115.50083479287986      113.58581542288510      114.44325273081611
H          114.35993471091716      113.56662978375411      116.24063617254637
O          115.34484785736745      111.08930750107638      120.42897359506814
C          114.39857032614003      112.82859912350135      113.71594517092434
H          115.79298574805782      114.46374290894731      113.85616657841247
H          116.37755459084173      112.93253926256970      114.53654294333765
C          114.86222244144412      112.51621090528590      112.29388591417074
H          114.17937379195634      111.90302949861714      114.25004263462485
H          113.49288570510778      113.43420257436156      113.69357973209323
C          113.95165407674790      111.57179099926290      111.51152451465371
H          114.95889204228043      113.45236312683056      111.74090256384549
H          115.85465072881662      112.06223579289835      112.33880798629504
C          112.56716973247758      112.14461098059144      111.18279465995877
H          114.46642236356284      111.34176445969418      110.57692346437079
H          113.84413819173652      110.63320803422754      112.05812707808970
C          111.47266979071352      111.69581451628147      112.14951752465832
H          112.60922175304422      113.23454550126192      111.15757376259607
H          112.27257537196795      111.81517885890770      110.18566465481277
N          110.16603131950522      112.04230584387095      111.63133001289087
H          111.53037842584284      110.60599833923683      112.27821503963180
H          111.58728382703086      112.15604388051814      113.13284292001418
C          109.13156458470218      112.44691295211818      112.37106242956372
H          110.05950088212307      112.00679778692114      110.61616764223341
O          116.62247628372749      115.71980128452219      115.77549071220967
C          107.85417169697031      112.63063694617087      111.57204250822362
C          106.79817445406515      113.42486160221075      112.33567197676699
H          108.10115336118190      113.11235174643257      110.62458444718945
H          107.46019991288459      111.63816770659395      111.33679975079724
C          105.52222971516404      113.58709104956677      111.51852953637214
H          106.57795376218395      112.90963371868980      113.27038358278169
H          107.19187166162483      114.40881484600214      112.59448042007844
C          104.46754099069210      114.41118109676296      112.25946233534813
H          105.75269133644336      114.09330396513403      110.57879290195876
H          105.12162967493519      112.60197554007391      111.27540881966387
C          103.24407913891380      114.59742552116310      111.38438129510371
H          104.18900498508249      113.92607742486381      113.19372413572209
H          104.87356132351829      115.39861457641119      112.48214871754718
N          102.15424322943448      113.94505632441845      111.79880977219642
O          109.19713534165543      112.63980462515016      113.58471300502593
C          100.88764143817585      114.01291020816080      111.10325286979730
H          102.21903369617040      113.29289850120033      112.57559070992286
C           99.74082672600943      113.69335700248381      112.05370915669704
H          100.78620412582818      115.02121788432773      110.69193196176859
H          100.88008537993940      113.30617427971924      110.26127889121324
C           98.38928497007848      113.75168805429213      111.34402746302378
H           99.89628568871821      112.69099202499447      112.45976991196628
H           99.76325165130446      114.40200459453807      112.88128447638110
C           97.27115196777761      113.05653111796185      112.12154361448609
H           98.11720226970064      114.79120021749766      111.15699671281092
H           98.47890518632531      113.25817675850966      110.37259957310027
C           96.99633360175672      113.63236177185482      113.50962292244175
H           96.35333017496183      113.11014972528737      111.53069592451931
H           97.52797667905899      112.00011796137322      112.23301651776806
C           96.51885230330844      115.08819036992766      113.49447673540125
H           96.21831891103395      113.02140676783469      113.97835823003500
H           97.88885409727405      113.55473444616638      114.13168640272993
N           96.01092531241265      115.53062140406718      114.78740547640577
H           97.33985774132758      115.75715036041490      113.22979907832325
H           95.72145237542789      115.20876898089745      112.75401441406235
H           96.73475084817184      115.41908786557305      115.49927893502785
H           95.21034149992933      114.97278927671501      115.06646345549017
O          103.26801020001778      115.27633651085814      110.36182791352027
C          126.32077929888041      131.72950011777559      125.01106777955522
C          126.49051616102514      130.44262559032728      125.78581923417883
C          125.62084486000425      131.45560478945444      123.67446119087876
C          125.62243876879833      132.66725568121214      122.74636539330656
H          126.13935061422895      130.64447761775060      123.15853212286994
H          124.59620326498907      131.12923491552067      123.86120882403705
C          124.94742004106730      132.31213314141689      121.41971805033663
H          125.10763516228894      133.50951616251612      123.21127993371489
H          126.65487361406947      132.96806276551652      122.55792901227284
C          125.21647663998247      133.35147032509877      120.34283449367017
H          125.34626004852662      131.35967597632512      121.06707523138090
H          123.86905923484443      132.22782251493439      121.55381660657012
N          126.47343294098590      133.29128264897096      119.86485506769674
O          127.73620565524190      130.19825843624096      126.10118649165796
O          125.56743264457727      129.69928791059519      126.06505630163915
H          127.87264165201655      129.30411285127343      126.52172511510875
H          127.30662061045089      132.16392760217846      124.84666353895396
H          125.72442720163031      132.42622180094750      125.60431858405819
C          126.91461350876047      134.06831329159007      118.73033273856001
H          127.06252377667644      132.51939810264128      120.14628647944315
C          127.70407859205602      133.20023321351351      117.75207821083089
H          126.02134132363294      134.49165264024526      118.26404559675889
H          127.54510750626432      134.90031965607534      119.07006335553456
C          126.93735701010210      131.96653585958865      117.27826048551456
H          127.99617138668580      133.81091118959472      116.89568327486062
H          128.61617482583435      132.86501204745659      118.25128244309286
C          125.81941693971594      132.27283139779163      116.28524587041430
H          127.64689104627600      131.28081538916678      116.81391152984192
H          126.51999741327016      131.45117706204016      118.14397100230933
C          125.16252434978719      130.97976584689835      115.80905024261074
H          125.06926455424417      132.91385922828576      116.75051534589603
H          126.23190352858109      132.80811003272061      115.42613483669757
C          124.17012298753176      131.20565552620923      114.67115786339697
H          125.93759344688416      130.28933057460037      115.46850224375051
H          124.64043787767042      130.50631990877980      116.64304785628367
N          123.62678150909080      129.93573305820175      114.23672957480747
H          123.36432022683638      131.86859711822009      115.00067433580656
H          124.66168624869664      131.66015233384746      113.80757511435434