3258
 energy: -3427.663457074586 gnorm: 0.000742255120 xtb: 6.6.1 (8d0f1dd)
C          117.78987586188916      126.16207018452556      103.36263287966352
C          116.66369757406859      125.13955046715469      103.26392099642646
C          116.89437349437603      123.90480514737199      104.13578375810771
C          117.98681860844330      122.98444859649456      103.59653903787645
C          118.21638224835957      121.77685633878554      104.50126669375994
C          119.26647248619501      120.82367105380737      103.93513197097928
C          119.53303061208001      119.64294617491446      104.86500832223572
C          120.53223116597130      118.65068210113988      104.27494128466077
C          120.80523329456953      117.48572609054236      105.22325505961786
C          121.72784512005593      116.43615594946928      104.60893074596162
C          121.97258139429447      115.26209444758689      105.55490707767646
C          122.76554913875940      114.14010319330623      104.88951706172566
C          122.97071481626210      112.94520734581943      105.81870715311133
C          123.62499116103830      111.76740211813191      105.10021211361841
C          123.80251216083386      110.55479360248012      106.01172622555754
C          124.32592281586305      109.33871869115350      105.25045140364210
C          124.49723539073985      108.11718889247207      106.15107593525967
C          124.90517974627969      106.87591949356829      105.36032638444337
C          125.08898339101985      105.65037577999135      106.25296519036377
C          125.40830552416176      104.39605323270300      105.44224008679436
C          125.63543732359453      103.17150516642779      106.32603920348851
C          125.92400989592248      101.91801816997318      105.50179175576802
C          126.22471333352898      100.70656563876803      106.38231625944582
C          126.68982021224926       99.48102264417633      105.59289568863063
C          125.58191459393966       98.81538401697823      104.77835556174396
C          126.10211243389685       97.60042037274947      104.01153421116771
C          125.00149642966113       96.78628401694928      103.32778477327926
C          124.31735177410840       97.52764471006390      102.17971108703748
C          123.38192553676546       96.63779315613655      101.35673590528410
C          122.13409961915032       96.19555116580570      102.11830981047495
C          121.17196981672129       95.39412196793594      101.24330358371893
C          119.90640980606521       95.00976305774955      102.00653324522584
C          118.88582614859050       94.27575960608911      101.13825319887631
C          117.58655593891352       94.03001706905857      101.90171238566751
C          116.49129549221284       93.39356179114576      101.04819678912777
C          115.17253960378343       93.29476175218053      101.81511754997966
C          113.98930006320303       92.85424504237047      100.95282233814916
C          114.01660971651600       91.38924029684239      100.51484044227327
C          113.81459063249451       90.37754943078376      101.64506846762251
C          112.46189358549908       90.50457462861178      102.34705768082947
C          112.17554722038810       89.28847828754364      103.22664852847191
C          110.96338138669745       89.45573790176863      104.14373048946563
C          109.65383638680224       89.73369973656294      103.40470811843872
C          108.44517396203372       89.52489465715011      104.31672251910727
C          107.10418243631612       89.81661429825617      103.63472231293683
C          106.68372659793260       91.28433358757111      103.70624186654778
C          105.33708951627267       91.51214269889572      103.02006814799527
C          104.74727683888284       92.89496769248743      103.29474660244006
C          103.39064683013707       93.07103902228610      102.61171834035969
C          102.54870290150552       94.21809450019200      103.17360741732394
C          103.05208777727350       95.62067008504116      102.83703188190546
C          102.05530960349120       96.67520166726993      103.31896893468530
C          102.48075642806208       98.10837641357431      103.00954228825388
C          101.39501008934059       99.11401639370081      103.39263938724680
C          101.84522514118521      100.55980678397196      103.19790869978813
C          100.71932832799392      101.56613441932303      103.43307566516447
C          101.23214646761646      103.00386343589146      103.38690534228090
C          100.11869533382361      104.04622884572117      103.45366173831469
C          100.68627484710126      105.46380973663962      103.49141880975635
C           99.60634289429188      106.53936638648965      103.40679083454853
C          100.19158730239980      107.94497363501019      103.52240675184032
C           99.13770758981516      109.03281237531604      103.33535212528069
C           99.73278017897277      110.43500830154539      103.43780463169692
C           98.68837967160783      111.52560797524032      103.21365928811255
C           99.27906148778975      112.92704918463626      103.34450576176685
C           98.25222115843296      114.01905816893755      103.05401400635178
C           98.83984118335870      115.41754846008986      103.22269419252193
C           97.85831389123811      116.51997398995890      102.82996635428793
C           98.48487235229318      117.90380799736788      102.98710455124811
C           97.65657464529082      119.03938379758650      102.38769161497166
C           96.32380636848026      119.26567289068545      103.09676854316940
C           95.61745040455111      120.52288554269990      102.59355224386097
C           94.28406013415564      120.74722988137108      103.30359490842389
C           93.50657582808182      121.95812046180431      102.78522492215768
C           94.21377705544225      123.28381543639807      103.05937051146704
C           93.32434513410723      124.48740296094721      102.75110936185958
C           94.07004843547591      125.82082006579783      102.83577875253560
C           94.54858120204516      126.15217848670960      104.24705714790903
C           95.36747836396570      127.43931804932596      104.29358372601178
C           96.02078885483847      127.66028448234682      105.65803556859942
C           97.16553971909499      128.66703752892840      105.58518153100903
C           97.90270870007274      128.82125246469698      106.91436381197069
C           99.24076687848959      129.53007693993831      106.72452904941493
C          100.01230944717501      129.71758308371963      108.02775838533239
C          101.43937348474999      130.19152667786491      107.76240553463386
C          102.18211004513903      130.52498094737706      109.05112079432497
C          103.60752426507716      131.02519216265097      108.82068248553739
C          104.57499868068656      129.97365391509413      108.27816068975075
C          104.81404842851640      128.81699891278987      109.24446970443013
C          105.86908734925467      127.84711569140077      108.72273283518913
C          106.13699092882143      126.70911614271145      109.70270745141038
C          107.04118718681073      125.63425482593625      109.10721036939582
C          107.25474126585380      124.46819898129198      110.06713298693140
C          108.01965819778330      123.31762256829317      109.42024167227341
C          108.10124541072777      122.09843047238806      110.33271980347646
C          108.81116577481923      120.92493359485375      109.66475318001143
C          108.72173215216208      119.65254452893474      110.50104163673745
C          109.39461028069775      118.46262052237996      109.82435514405176
C          109.21532369105627      117.17446773868356      110.62160850409629
C          109.91654970581547      115.99237647103644      109.96098805288396
C          109.77576356628909      114.70570851916392      110.76926895636151
C          110.63165966932026      113.57084985629734      110.21144259913905
C          110.36952118698996      112.25545721926488      110.93861959777900
C          111.34870110826785      111.13990336854758      110.57453780586853
C          111.34431343541594      110.79396392727624      109.08654404762832
C          111.93598350205286      109.41550091287012      108.80312600636775
C          111.97676787482220      109.11693030455888      107.30664713530790
C          112.38838123070916      107.67915685218534      107.00572105740272
C          112.40792165486093      107.39553930145522      105.50653709964197
C          112.70155661159134      105.93029345163697      105.19338086537462
C          112.80606146977513      105.68512992690297      103.69087141984045
C          113.16428759080931      104.24399256804435      103.33810003407778
C          113.40554343648357      104.08812570322488      101.83869224724637
C          113.83112759765206      102.68237256599920      101.41386907326111
C          115.25145423044225      102.32451880048269      101.84696364818841
C          115.75157734648396      101.04187423551792      101.18643025426420
C          117.16019486560874      100.67174065726330      101.64584643117304
C          117.69648606422427       99.44038777113889      100.91942825242626
C          119.07906865733999       99.00032092563578      101.40317378283292
C          120.18570937336504       99.99109601727197      101.06265831536773
H          119.05138563453416       98.84951623472531      102.48538317050081
H          119.31710137006087       98.03808646567035      100.94348317084211
H          116.99535028135649       98.61358799165835      101.06577608451208
H          117.74132259580460       99.64305486925552       99.84585861693402
H          117.82231808388352      101.52110665942030      101.46751769595930
H          117.14896631938785      100.47585703963576      102.71977072550573
H          115.06554135513369      100.22216630474134      101.41518966705655
H          115.74991268898020      101.17204571918701      100.10019569252754
H          115.92425538986205      103.14283452556006      101.58180145455817
H          115.28818462127926      102.20519932165857      102.93063523302909
H          113.13138912633191      101.94718947540976      101.81787409795893
H          113.77771208459136      102.61929243735304      100.32242589415078
H          112.48769907469804      104.35631450930838      101.31013855302621
H          114.17753416879448      104.79397445697073      101.52676172058611
H          114.06140881444533      103.95539832169469      103.88841411653745
H          112.35564547649453      103.57855363551536      103.64890323308438
H          111.86198472726807      105.95388729265730      103.20806507712730
H          113.57587409998915      106.34540765217544      103.28333446801305
H          113.63999996314857      105.64039909526225      105.67127176483871
H          111.91210624478204      105.30149576021915      105.61377003012436
H          111.44169023902836      107.67115422838452      105.07585731503585
H          113.16687488187917      108.02450929399988      105.03444567968609
H          113.37790852512015      107.48475807037319      107.42646272411383
H          111.68790797927593      106.99698955953643      107.49444754548064
H          110.98698223070190      109.29891789920727      106.87852890257348
H          112.67314066790441      109.80402405046645      106.81827624818429
H          112.94557511172732      109.35035930253619      109.21657286398896
H          111.33025698162268      108.65685299756350      109.30573905478616
H          110.31572065754257      110.81199119196474      108.72192838599263
H          111.90475274419423      111.54797866850788      108.52894304046858
H          112.35743237207961      111.42869512695941      110.87878794639660
H          111.07883855337261      110.24854861056698      111.14774463976261
H          110.43241145836934      112.43376699432203      112.01396496011512
H          109.35206348572241      111.92329192440148      110.71657535177093
H          110.42349566265025      113.45307117101166      109.14607090207767
H          111.68643740413822      113.83348610018017      110.31980049854333
H          110.06536572381759      114.89621497021463      111.80558904844125
H          108.72686668434730      114.39850534028574      110.77357827431179
H          109.50282689386482      115.83892326961529      108.96125589985363
H          110.97454775945928      116.23439462529977      109.84389835971976
H          109.61439974022299      117.31687946053643      111.62862056491733
H          108.14877913544183      116.95613450426676      110.71796474908882
H          108.97239536556944      118.32855702064361      108.82519653750445
H          110.46194381601116      118.66776403696059      109.70506168889838
H          109.17978158123081      119.82502909332275      111.47808757058483
H          107.66819285267032      119.41456977410871      110.67058890502103
H          108.35326344532717      120.74157793048370      108.68996416740679
H          109.85973022602921      121.18126934521101      109.49337141238303
H          108.61899780425800      122.36366407192439      111.25782826161814
H          107.08605921235032      121.79191716147396      110.59941547546839
H          107.51865592444987      123.03125866715588      108.49250074539547
H          109.02781074141018      123.64737769556540      109.15853117445559
H          107.79311673159593      124.81429136011555      110.95233527024696
H          106.27863740496363      124.10308124029838      110.39745488536070
H          106.58610889539740      125.26191906378936      108.18643623223785
H          108.00655728183447      126.07037955979375      108.84164837343663
H          106.59345692258390      127.11378567161663      110.60993502130074
H          105.18491323155003      126.25261464993956      109.98885752276016
H          105.52828167952892      127.42774482355905      107.77269315625755
H          106.79862183825180      128.38704844695718      108.52664332941245
H          105.13766540734359      129.21723530584455      110.20766555689367
H          103.88326658085406      128.27013023062554      109.40633126895398
H          104.20578371613973      129.58509289556483      107.32671269048336
H          105.53289733361645      130.46290176639832      108.07685825676296
H          103.57313480553695      131.86462259991478      108.12044688136760
H          104.00454190384602      131.40670327544751      109.76565737951847
H          101.62600517610969      131.30305326970173      109.57921652022881
H          102.20185648954326      129.64625305906529      109.69514243728594
H          101.96996811139533      129.40888204782746      107.21678913337124
H          101.41254031453407      131.07822894657696      107.12693602461890
H           99.49320886751958      130.44164710864365      108.66070178350600
H          100.04284827223030      128.76918865094140      108.57051636042142
H           99.85137555490444      128.94019707902706      106.03690384150677
H           99.07251197413606      130.50410474544509      106.25675312523005
H           97.28137368625079      129.37459692291930      107.62270333833997
H           98.08428959027621      127.83175841787870      107.34086465557458
H           97.87787305778247      128.32540210457418      104.82889299149822
H           96.78505495424209      129.63756879147979      105.25816550544157
H           95.27377559833450      127.99546658889263      106.38123134368163
H           96.42116602985143      126.70749061455784      106.01573441982235
H           96.15267102683644      127.37576780302220      103.53575224147413
H           94.73883144573942      128.29497678887518      104.03737181978337
H           93.68854851229135      126.23386049017503      104.91524447249105
H           95.17671672452876      125.33812299444510      104.61008567218225
H           94.93278924184720      125.78863571454686      102.16513459314857
H           93.41186145611789      126.61956116299831      102.48409817627613
H           92.92137406913933      124.37657051596300      101.74068844598787
H           92.47810569730005      124.50041719582011      103.44252074234790
H           94.51097943676579      123.30704006829424      104.10893774435118
H           95.11642210577091      123.34892077133863      102.44871449971630
H           93.33616189970427      121.84979063788360      101.71099162053257
H           92.52746816452178      121.97619449616012      103.27191369009289
H           93.66497819257413      119.85440039110179      103.17862938402531
H           94.46625327570305      120.87421033736273      104.37317995312318
H           96.27011698754514      121.38252421541875      102.75754534079620
H           95.44459160452074      120.43765141879268      101.51733779495954
H           95.67348634244269      118.40186447604549      102.94434977054549
H           96.50005257423511      119.36366056667845      104.16982382275272
H           98.24245325665581      119.96139293855570      102.44665047805171
H           97.47341304969383      118.83646936962933      101.32882636938825
H           98.65094720974494      118.10377336507557      104.04738435180126
H           99.46158370677212      117.89761757764656      102.49418476853771
H           97.55232828175086      116.37653364295356      101.79036891151102
H           96.96469579636788      116.44347901997106      103.45253555465260
H           99.14348771393836      115.55849170881172      104.26212774403015
H           99.73928980327823      115.50238789936245      102.60586236792247
H           97.88454623318863      113.90311682073776      102.03072112056346
H           97.39795492526467      113.90168703643633      103.72546700616520
H           99.67145500120392      113.05928400654378      104.35496586041863
H          100.11769638959142      113.02950667461290      102.65008354022997
H           98.25360523384640      111.40890891652066      102.21693110890244
H           97.88027908081769      111.40599024317784      103.93961454354093
H          100.18366021076902      110.56306336692232      104.42408219016937
H          100.52927254260381      110.54407897587203      102.69634869722063
H           98.66511188450094      108.91198792458401      102.35631021163937
H           98.35705873868061      108.91574353829797      104.09104989817706
H          100.65959791126667      108.05999609899804      104.50236608048904
H          100.97128917054823      108.07293465422214      102.76880885453048
H           99.07617058112700      106.44533481138539      102.45484296883630
H           98.87613468438251      106.38361068669003      104.20453906582172
H          101.25275335793582      105.59610729804216      104.41563463133598
H          101.38438119963091      105.58998662786564      102.65852601983551
H           99.46774467273890      103.93637659729312      102.58171289585600
H           99.50776227893813      103.87516807805383      104.34271808307885
H          101.91974981199178      103.16246628681705      104.22039783471540
H          101.79361210018240      103.15308213082105      102.46125666115094
H           99.94653952340501      101.42891015653714      102.67168366538691
H          100.25926471508667      101.37695984888857      104.40557482132316
H          102.66343895137662      100.77303441674228      103.88845781904389
H          102.22746662820023      100.68375883383507      102.18154105134427
H          100.50368850230234       98.92719485549841      102.78683278524609
H          101.11723157964794       98.96266397764039      104.43830972225919
H          103.39768763574037       98.33965120335269      103.55378640965937
H          102.69743642542593       98.20222351267203      101.94220004626567
H          101.08565244002125       96.48428394709670      102.84933291056807
H          101.92072287882733       96.56997003188674      104.39800406349197
H          104.02191094238945       95.79088351685056      103.30607278705564
H          103.18180298260577       95.71141387871539      101.75508723989884
H          101.53199362124840       94.11703429646279      102.78170734295324
H          102.49145464638316       94.11546770697309      104.25925723085618
H          103.53449031081624       93.21388758345071      101.53784941772321
H          102.82036751968212       92.14644901972568      102.74158679999952
H          104.61873366245936       93.01358808075676      104.37252241962540
H          105.44208977394089       93.66404562025892      102.95431050581401
H          105.44947174434185       91.36994028892903      101.94212440245950
H          104.63158889045333       90.75610540079734      103.37641611152736
H          106.60049455172843       91.57613385942800      104.75638001257863
H          107.44484836906558       91.91709322048946      103.24632500749327
H          107.15406543897959       89.50199707070868      102.58938855344009
H          106.32489747627704       89.21891128336186      104.11428266655014
H          108.45251442726902       88.48480793123878      104.65491501993228
H          108.54485263253409       90.15515023225298      105.20294976947220
H          109.65394231333012       90.75587195620574      103.02332186840027
H          109.57252450900575       89.05750062220372      102.54955310060775
H          110.84964394731944       88.53624086979917      104.72485634308235
H          111.15671992548265       90.26412385484268      104.85127536380429
H          112.02607000156894       88.41325930604472      102.58852478756525
H          113.05192508645015       89.09090794944441      103.85055954576580
H          112.44908548540241       91.40212145833399      102.96621402106965
H          111.67609744087730       90.60405887307294      101.59555770676049
H          113.89301316256652       89.37447634592273      101.21613387720485
H          114.61503624871006       90.47525546524054      102.38112365933367
H          113.22508712795536       91.23992823365488       99.77512197490778
H          114.96625004314903       91.17832894148285      100.01851930572630
H          113.06445717046297       93.03691564551640      101.50271147366531
H          113.96222009161886       93.48173933125173      100.05773459316802
H          115.29108475492203       92.61438549324711      102.66025243157458
H          114.94106464388859       94.28272412800078      102.22158497172808
H          116.33780579721001       94.00148936915153      100.15239906137938
H          116.81416829817638       92.40244989854479      100.72348419837289
H          117.78973764125617       93.39184119072428      102.76524821206792
H          117.22597660645879       94.99080088128105      102.27659118725562
H          118.67110897128370       94.87603414882102      100.24992285345238
H          119.30436033440621       93.32519932088437      100.79868634417700
H          120.17450946467169       94.38051854396110      102.85783550501046
H          119.44415031687214       95.91738862134424      102.40254467096688
H          120.89927415974822       95.99013848620670      100.36802256040494
H          121.67072475009846       94.49160707596009      100.88092896902344
H          122.42205863182578       95.58422744391399      102.97488675593787
H          121.61483930612222       97.07840628946052      102.49746925154088
H          123.06848200586475       97.19190077136513      100.46753643259230
H          123.93105120427799       95.75641577399612      101.01524330957656
H          123.74807463795025       98.37295340820752      102.57130558558816
H          125.08851031346323       97.92787622325214      101.51591009795722
H          125.44528700938372       95.86838803696773      102.93272795690012
H          124.26228634097164       96.49940716707785      104.07731472098516
H          126.82891715735123       97.92788370972079      103.26342742946927
H          126.62805159222422       96.94582966426361      104.71241902949774
H          124.78716466655423       98.49590783154942      105.45449303070181
H          125.15979943005667       99.53575092005201      104.07758526766590
H          127.50388773290068       99.77445415367947      104.92472561918731
H          127.09386115912166       98.74604314989402      106.29479049467213
H          127.01194173068171      100.98028288332661      107.09024196434410
H          125.33772725528294      100.44960774993160      106.96572461542202
H          125.06599197718062      101.70711102499249      104.86079631547152
H          126.78289196055674      102.10848194914406      104.85254430216983
H          126.47698304683171      103.36402262328086      106.99695219141218
H          124.75392618008998      103.00310071976111      106.94862641706489
H          124.58567085421035      104.19425442794410      104.75160449226284
H          126.30313816449255      104.57479419938804      104.83991490224741
H          125.89801926723739      105.83828077913019      106.96367414249958
H          124.17744644681862      105.48454563096107      106.83122777428363
H          124.13965063932784      106.66135164088857      104.61021477140444
H          125.83743290392511      107.07679081878776      104.82570522178541
H          125.25395837891784      108.32938041297852      106.91079922211455
H          123.55725939800672      107.91902743779774      106.67070686226572
H          123.62760740277579      109.09453698829947      104.44565871015450
H          125.28457823373112      109.58478994954218      104.78613755257054
H          124.49447296631774      110.80506623389292      106.82009097968663
H          122.84186369646548      110.30480258653988      106.46750170884584
H          123.00409537693132      111.48451991469616      104.24613254780436
H          124.59830560987113      112.07376113897735      104.70793546827699
H          123.58958517595990      113.24547855798663      106.66840755234394
H          122.00291996211249      112.62779159776922      106.21356123771692
H          122.22944236140997      113.80977331200506      103.99600830728015
H          123.73726219332063      114.52087519799625      104.56419657775274
H          122.50933897827335      115.61340136200465      106.44015895299610
H          121.01151449949178      114.86595837696811      105.89040314800668
H          121.27805331752650      116.06371607353891      103.68499463328459
H          122.68307141417816      116.89718160124684      104.34399923190946
H          121.25140060991245      117.86948991761430      106.14412375612365
H          119.85821354544991      117.01206646090002      105.49047651274176
H          120.13933308493526      118.26350356534516      103.33165010784012
H          121.47025874170242      119.16614911349062      104.05193030326927
H          119.91399571721335      120.01479042886950      105.82000808404480
H          118.59233223265618      119.12618861169568      105.06479768037900
H          118.92625803406352      120.44861076076394      102.96677478411712
H          120.19886604342396      121.36923390495809      103.76579549015423
H          118.53506379784270      122.12240557753762      105.48820915878208
H          117.27452327748688      121.24036505856787      104.63053278710255
H          117.70223036831830      122.63952590538473      102.59900038144207
H          118.92317735852244      123.53765627555515      103.49983542165678
H          117.15428398157518      124.22392547042674      105.14752814341081
H          115.96226318843355      123.33792917918622      104.20071623831834
H          115.73293671069740      125.61935520030508      103.57206593507478
H          116.54468255208999      124.82876746057703      102.22311514924793
H          117.92692353230171      126.47503808363268      104.39582112627241
H          118.72889311465555      125.75067886385274      103.00119464786296
H          117.55546594943876      127.04212952462939      102.76760519956620
H          120.20789496438655      100.18465577524543       99.99203463829413
H          120.04073198338428      100.93619556172413      101.57936993986078
H          121.15312852823840       99.59035012373243      101.35783041197953
C          113.62927912748397       87.33306250696069      119.39982633474173
C          113.93017154837874       88.71230591740209      118.82614046888642
C          113.66845707547866       88.77643418532844      117.32338925070550
C          113.94479043051520       90.16503281351956      116.75307263075307
C          113.54924537159189       90.26541208835808      115.28158581913480
C          113.83583293438208       91.63639976719371      114.66873669669793
C          112.94097437802078       92.74120182632824      115.22455650245033
C          113.21982908134497       94.09181118771411      114.57024563134914
C          112.45525291186468       95.22277795026088      115.25229973161272
C          112.67983520249514       96.57361519185729      114.57973217346228
C          111.98898306214761       97.70649123947348      115.33470249240041
C          112.19181318494550       99.05674378453227      114.65653205328658
C          111.48827114698894      100.19644155569398      115.38542986259488
C          111.69349073613986      101.53551193535233      114.68257162848761
C          110.92963954195551      102.66736905720259      115.36256227998382
C          111.11960907531828      104.00463958619531      114.65270241491488
C          110.34031654956108      105.12934776208077      115.32808251392115
C          110.50612728958833      106.46375319683295      114.60745992714482
C          109.76411552717856      107.59710680246853      115.30938345637665
C          109.91519238295054      108.92680413705679      114.57673462871648
C          109.22015522476818      110.07350705201920      115.30582778101598