3258
 energy: -3427.658600127544 gnorm: 0.000911275010 xtb: 6.6.1 (8d0f1dd)
C          117.78988738730257      126.16062306080956      103.36346653232744
C          116.66342181328788      125.13879505975265      103.26406666966412
C          116.89401880827944      123.90390116219862      104.13608347039931
C          117.98687398486260      122.98410364560004      103.59627296137921
C          118.21653587648632      121.77641205600658      104.50113129657109
C          119.26692252353182      120.82332613544583      103.93494659611521
C          119.53318643926430      119.64253263436497      104.86514656407383
C          120.53253678606369      118.65032354652024      104.27471969481890
C          120.80539278509184      117.48524563841330      105.22322811213559
C          121.72797132698653      116.43560525411783      104.60846650716525
C          121.97259834051880      115.26148941645300      105.55468948400633
C          122.76568082681231      114.13950590329512      104.88897980895644
C          122.97057715657427      112.94460492754905      105.81851769441639
C          123.62480337092063      111.76670188775898      105.09978292742122
C          123.80211840318302      110.55415961165657      106.01170995760113
C          124.32572414315018      109.33811707678147      105.25020312653841
C          124.49660413841511      108.11652409608870      106.15108401858164
C          124.90489304721140      106.87541075368495      105.35994657131668
C          125.08842675359344      105.64972128874179      106.25268656037939
C          125.40786877532838      104.39550584702044      105.44155407075561
C          125.63488874710524      103.17096510179501      106.32563757892133
C          125.92346296083409      101.91749497108020      105.50113151562401
C          126.22413874508210      100.70612581775889      106.38198811174300
C          126.68928935613226       99.48074485301554      105.59240444648324
C          125.58120484991163       98.81545032147113      104.77776205068660
C          126.10155040001614       97.60075537079337      104.01053881513376
C          125.00075820639030       96.78649554338892      103.32745180379763
C          124.31633161684557       97.52809134745317      102.17966017933776
C          123.38099798559917       96.63822975192136      101.35677325238021
C          122.13340335874821       96.19560974804691      102.11859077127249
C          121.17133724962726       95.39454368045701      101.24305171012045
C          119.90610509701311       95.00963677134229      102.00673210194097
C          118.88534522618124       94.27609154045557      101.13811073476532
C          117.58630430465321       94.03001089077230      101.90207748695683
C          116.49088917079469       93.39365455662339      101.04847190254772
C          115.17236830795420       93.29506743442128      101.81605108047077
C          113.98892328049483       92.85455417168771      100.95362362237005
C          114.01655376399111       91.38942309429373      100.51634046458865
C          113.81444910269158       90.37785674154725      101.64651985591739
C          112.46137051030222       90.50525528071549      102.34788407833881
C          112.17483938375011       89.28905146614736      103.22739037811576
C          110.96258100786827       89.45650602764169      104.14438098363051
C          109.65322914702467       89.73449963705642      103.40477524011982
C          108.44453336377927       89.52567416053975      104.31700074937474
C          107.10361836903280       89.81701626845509      103.63459511308353
C          106.68296847128734       91.28482725867373      103.70585855949686
C          105.33608993495000       91.51194451847478      103.01966602449168
C          104.74665198118906       92.89509975925162      103.29417823495643
C          103.39012125159989       93.07123675152160      102.61069314077241
C          102.54782962404587       94.21791788861306      103.17266392113729
C          103.05171916280162       95.62061396735471      102.83653776485411
C          102.05409453940537       96.67481017223250      103.31802020541500
C          102.48015818454363       98.10815167103938      103.00918833227358
C          101.39372874842427       99.11350119638520      103.39189789989804
C          101.84462346151965      100.55940553736899      103.19783890294144
C          100.71816144758623      101.56554262054902      103.43244813929630
C          101.23142359226520      103.00336361427664      103.38652260243659
C          100.11744796594870      104.04555718918061      103.45263901081471
C          100.68543367274930      105.46323256796541      103.49067063715964
C           99.60505148618407      106.53871383190138      103.40574800261322
C          100.19073210378754      107.94444421094947      103.52152867211102
C           99.13640505655010      109.03226180685631      103.33445332892049
C           99.73198202457363      110.43454212028762      103.43700301014147
C           98.68715389252739      111.52506249500348      103.21276150891306
C           99.27831451671059      112.92653989071879      103.34400989246296
C           98.25100652693720      114.01846499829489      103.05338045927445
C           98.83889851408328      115.41710435431747      103.22226098864564
C           97.85703799185995      116.51953480728548      102.82923791730002
C           98.48422811854286      117.90339135268347      102.98643552575469
C           97.65553737355948      119.03900582199311      102.38678977260473
C           96.32319969889507      119.26534716361452      103.09699505315078
C           95.61729712551036      120.52296488639048      102.59371946744574
C           94.28411724871332      120.74707544922614      103.30443147906547
C           93.50684688282578      121.95787222142178      102.78578084877373
C           94.21451667200073      123.28337384793679      103.05973143574104
C           93.32473042374443      124.48683614057724      102.75183367100149
C           94.07055761428511      125.82005216814794      102.83576415208343
C           94.54913247727185      126.15121174477193      104.24713855660544
C           95.36803876378275      127.43840588534533      104.29322584568524
C           96.02121987638884      127.65918842471939      105.65785083310020
C           97.16588618942255      128.66612348225641      105.58454222991875
C           97.90260055075134      128.82012363144395      106.91415310413997
C           99.24069303311464      129.52909876261876      106.72390131920986
C          100.01179891557391      129.71700904920934      108.02758148093167
C          101.43899165164838      130.19100210853665      107.76165872334165
C          102.18141341810305      130.52414183045616      109.05091543364071
C          103.60688757454264      131.02479272951470      108.82054764761995
C          104.57459201201237      129.97367892048038      108.27713019757790
C          104.81340658133880      128.81685093639052      109.24376384664571
C          105.86922589204994      127.84741751706451      108.72191830583375
C          106.13658635604487      126.70931876226800      109.70242956629595
C          107.04089218222097      125.63433695788198      109.10648145166044
C          107.25421927705378      124.46827924901950      110.06699629071409
C          108.01946820552010      123.31786709788923      109.41935069995898
C          108.10101575086749      122.09859559188816      110.33232183993759
C          108.81150869342500      120.92531730657544      109.66368676644727
C          108.72166650749681      119.65287068413562      110.50056758167437
C          109.39494627156026      118.46280539637861      109.82363333590686
C          109.21498933140755      117.17475459483774      110.62164162516203
C          109.91677424763830      115.99279627185565      109.96049798835534
C          109.77547064838782      114.70583033299113      110.76890370875741
C          110.63179988411451      113.57108353068982      110.21045293764998
C          110.36877408859790      112.25559352452800      110.93791027228487
C          111.34815311233328      111.13982267250050      110.57372051745460
C          111.34334156527625      110.79447085577512      109.08528700642194
C          111.93503802968480      109.41536498139746      108.80295456054415
C          111.97601989961237      109.11727607608401      107.30607058108950
C          112.38779199797905      107.67903335998047      107.00571980989680
C          112.40728187059752      107.39603200851386      105.50603483888169
C          112.70124598581285      105.93039892016162      105.19306212156917
C          112.80584247952964      105.68582691808450      103.69007137035656
C          113.16410726252971      104.24433163929581      103.33739553672115
C          113.40554322893885      104.08886613096622      101.83754997527508
C          113.83112217503889      102.68277746480994      101.41331686639263
C          115.25161656141168      102.32506446537012      101.84690263881764
C          115.75130862279151      101.04218704478791      101.18589845198690
C          117.15985149507229      100.67213574843410      101.64629020786208
C          117.69574410510162       99.44034239503667      100.91995380283140
C          119.07831343937482       99.00036822050149      101.40405700102400
C          120.18494995049807       99.99118599102731      101.06313058919203
H          119.05076358641534       98.84889022849336      102.48631550094015
H          119.31603058537021       98.03881482789947      100.94373351310058
H          116.99430953666399       98.61411507505451      101.06649269854380
H          117.74142627385017       99.64422329534318       99.84739577845862
H          117.82174038194654      101.52136995191347      101.46777854195916
H          117.14828491833532      100.47709909072275      102.72049727981651
H          115.06485240670915      100.22324703114059      101.41435174314692
H          115.75086944220189      101.17406857089757      100.10077242320544
H          115.92391394980356      103.14349152327308      101.58173722290704
H          115.28835068844175      102.20650812717628      102.93082007946253
H          113.13119537526700      101.94838613923456      101.81756769741428
H          113.77882228279996      102.62097943476722      100.32266627977206
H          112.48753158481472      104.35736551402722      101.31023540493236
H          114.17761603398912      104.79484057699128      101.52721753347600
H          114.06088126045485      103.95619781831677      103.88826009541918
H          112.35526050303480      103.57977456220183      103.64863989506625
H          111.86190274080298      105.95462494460050      103.20817616162219
H          113.57575106086108      106.34610944619475      103.28367888689698
H          113.63957064719578      105.64131299525836      105.67121553670965
H          111.91189793866342      105.30206086360124      105.61363068419112
H          111.44111040885588      107.67145441466816      105.07613988807998
H          113.16629735747060      108.02498968229774      105.03498757474584
H          113.37711190128796      107.48545199741211      107.42633788050458
H          111.68730200993639      106.99741239248762      107.49447313442697
H          110.98644243684915      109.29924501757678      106.87839095087003
H          112.67264380752285      109.80409970673600      106.81881087074366
H          112.94416807074155      109.35093967169080      109.21642779987664
H          111.32883931031897      108.65747277093271      109.30552925775096
H          110.31468749054395      110.81247357967304      108.72158840999792
H          111.90369840413237      111.54796229192694      108.52773099753885
H          112.35626953662188      111.42881204756468      110.87807317595725
H          111.07712615612482      110.24874482441832      111.14617082701439
H          110.43179865846301      112.43395915618014      112.01303301341622
H          109.35158088406021      111.92386681752902      110.71544501771272
H          110.42344458821027      113.45332518096950      109.14551788082298
H          111.68603927859891      113.83335063564196      110.32014438237894
H          110.06500174835620      114.89593559751110      111.80501020269924
H          108.72685738364201      114.39858989970510      110.77259728606880
H          109.50295698889374      115.83935648013343      108.96129152586948
H          110.97448373717351      116.23475279214198      109.84447972067237
H          109.61390311159833      117.31697179274369      111.62840358156092
H          108.14873336570300      116.95602285345504      110.71734057297212
H          108.97285528846754      118.32787917011132      108.82494803444158
H          110.46195819662779      118.66733195981770      109.70545219791774
H          109.17975238463950      119.82524647112207      111.47719373948439
H          107.66834478462636      119.41457505235137      110.66963791661794
H          108.35344465802284      120.74164789254225      108.68944938397772
H          109.85976577243568      121.18155247443717      109.49342117705645
H          108.61892274921186      122.36354508262495      111.25698365505181
H          107.08608227616472      121.79159966194869      110.59872054866746
H          107.51843541341457      123.03142144703806      108.49207295193283
H          109.02733412843604      123.64758147135829      109.15867351054889
H          107.79292122282509      124.81401378698963      110.95179295205160
H          106.27839327482967      124.10281485935758      110.39733306036803
H          106.58574064169036      125.26151967748608      108.18634678343267
H          108.00634466547706      126.06964506083695      108.84188061536584
H          106.59339757232841      127.11332699897426      110.60942979737720
H          105.18478963743745      126.25248406629294      109.98845181849406
H          105.52889537143487      127.42751950422600      107.77238118718832
H          106.79883787579014      128.38692046679395      108.52737877304108
H          105.13698342848174      129.21658809256462      110.20700429917706
H          103.88310546495666      128.26920897474852      109.40522584141954
H          104.20554046080871      129.58460622700929      107.32620134479798
H          105.53246558152097      130.46244492582750      108.07710851975614
H          103.57201609903863      131.86346083457505      108.12026948691475
H          104.00407685249716      131.40558842340667      109.76548199703275
H          101.62576284297499      131.30230170601064      109.57865293855737
H          102.20107698511349      129.64539208713614      109.69500794054561
H          101.96988592374090      129.40839712212269      107.21643931967039
H          101.41247043644292      131.07798322354554      107.12722629081952
H           99.49331064305409      130.44130852207633      108.66010888228196
H          100.04315811440185      128.76893023201660      108.57095035012425
H           99.85189695698345      128.93893753571263      106.03713263146720
H           99.07249206920091      130.50281454379052      106.25665984316809
H           97.28175164819791      129.37368291904835      107.62216282855739
H           98.08476453224701      127.83067203002852      107.34078958167412
H           97.87854438648918      128.32523919651777      104.82834106100343
H           96.78500398647698      129.63628063202603      105.25878881685105
H           95.27477360594467      127.99510138825542      106.38082643943081
H           96.42162462981032      126.70648587153534      106.01630607646406
H           96.15318226402940      127.37534025257446      103.53549122913148
H           94.73918655410225      128.29360425431852      104.03816740207506
H           93.68926168788956      126.23356952339599      104.91505104796788
H           95.17704694456087      125.33713285122545      104.61082609244463
H           94.93300554083518      125.78803088272655      102.16495797176051
H           93.41232269123535      126.61876158600265      102.48530668492005
H           92.92185130829861      124.37571681850098      101.74181134550328
H           92.47930447651504      124.49985036434427      103.44386223986768
H           94.51221488728741      123.30644595148895      104.10922060065721
H           95.11674921513182      123.34837212516219      102.44859507003231
H           93.33696317845585      121.84941244392201      101.71193636705198
H           92.52830188128431      121.97616723431824      103.27291217029281
H           93.66572102602424      119.85430512699051      103.17899717764998
H           94.46636467811960      120.87383629705687      104.37403224358566
H           96.27064574362112      121.38218609230312      102.75698849206543
H           95.44384597025763      120.43663314636254      101.51827703380390
H           95.67318663464161      118.40192297934479      102.94433550619208
H           96.50030615898108      119.36287270979939      104.17000213856238
H           98.24203262121293      119.96062303024370      102.44489703101515
H           97.47180502616828      118.83463650726043      101.32900947172858
H           98.65067760757630      118.10313542558016      104.04689531492262
H           99.46108999293386      117.89674680352542      102.49378324618758
H           97.55259993482497      116.37621642631014      101.78992566612729
H           96.96420318855006      116.44337114941042      103.45218060046876
H           99.14298844712611      115.55811757232502      104.26180063232825
H           99.73857294834221      115.50211497177861      102.60586443778023
H           97.88495467290306      113.90280312775977      102.03030838006323
H           97.39765397513222      113.90131017141543      103.72525531265413
H           99.67124757882732      113.05890588267472      104.35453259957839
H          100.11705518778852      113.02900186876475      102.64991391291829
H           98.25458989873088      111.40907687705430      102.21590492734128
H           97.87957291036091      111.40558603055430      103.93863567444531
H          100.18350242401708      110.56270585073095      104.42328118092412
H          100.52839597807221      110.54395513539963      102.69573066394875
H           98.66541632185647      108.91189773846651      102.35558430346764
H           98.35675783522083      108.91537121880857      104.09053216958156
H          100.65938049162979      108.05961012404477      104.50147163919345
H          100.97054579010846      108.07252640502898      102.76821323237988
H           99.07666078301283      106.44523140588386      102.45374251552832
H           98.87553650274448      106.38327336806140      104.20359795243824
H          101.25223170765351      105.59583801580305      104.41498735388801
H          101.38372272069557      105.58935454987883      102.65818482362003
H           99.46884868217636      103.93630926346097      102.57997255820999
H           99.50647098004313      103.87474052035898      104.34129557567323
H          101.91917223348378      103.16229584333473      104.22021202641427
H          101.79302335310778      103.15261749662979      102.46125453588139
H           99.94751666837460      101.42906204965058      102.67004614268956
H          100.25767255364033      101.37656519056256      104.40450152058850
H          102.66276797445991      100.77271414242161      103.88887376719825
H          102.22718885574189      100.68350378565874      102.18204108661971
H          100.50440642809625       98.92764285419550      102.78443611652793
H          101.11484192831649       98.96195659811863      104.43710661828914
H          103.39710567129430       98.33946557579786      103.55383466883791
H          102.69693735744471       98.20212166992914      101.94241839027646
H          101.08605545789386       96.48458289193998      102.84657087651728
H          101.91812958008411       96.56930626151963      104.39684770628162
H          104.02150428402909       95.79097012988420      103.30598335820601
H          103.18149367823527       95.71137110016269      101.75517416052891
H          101.53225118633974       94.11755807960338      102.77929711466399
H          102.48941784888012       94.11497035571162      104.25824036736897
H          103.53519737339676       93.21507011326888      101.53765451711007
H          102.82037312496651       92.14677881361145      102.74047342115270
H          104.61842519325900       93.01426012883030      104.37211281371160
H          105.44193813804068       93.66369968392516      102.95366268841934
H          105.44918479410353       91.37044927425504      101.94228495107222
H          104.63105808849770       90.75622818200087      103.37647616319938
H          106.60005636424604       91.57729396709706      104.75606800257977
H          107.44384891042340       91.91773145221838      103.24568494293982
H          107.15442516030882       89.50329211081791      102.58954588064360
H          106.32454094246690       89.21950181174996      104.11406478560932
H          108.45212721744342       88.48583917980382      104.65486416446282
H          108.54397272225329       90.15591552756914      105.20345220326300
H          109.65330761379900       90.75642136060294      103.02268378430598
H          109.57220390786627       89.05744594460768      102.55097781126119
H          110.84840566046059       88.53707552024694      104.72499080530351
H          111.15580412423891       90.26460679099813      104.85258828385292
H          112.02432749062142       88.41487783751522      102.58905187465355
H          113.05079826540327       89.09102334733076      103.85150024925137
H          112.44771681322678       91.40325556711342      102.96665238432519
H          111.67619669090955       90.60419260818347      101.59601948926728
H          113.89147125264921       89.37531714136743      101.21725728924524
H          114.61476996884950       90.47463840038490      102.38279934017379
H          113.22492540045992       91.24046080262131       99.77714755096896
H          114.96619223719541       91.17907503523824      100.02058116609513
H          113.06398310488309       93.03795283688183      101.50327500754369
H          113.96268607802868       93.48200094448462      100.05882452368911
H          115.29102580756876       92.61462355945453      102.66106434427817
H          114.94089310883584       94.28318080257262      102.22278804700913
H          116.33701053289161       94.00180373915619      100.15336329508176
H          116.81326790813324       92.40264285927148      100.72469184913430
H          117.78959746273226       93.39174869595966      102.76547886619169
H          117.22567756396779       94.99092422626082      102.27728417092111
H          118.67004634473540       94.87703213085280      100.25082975214175
H          119.30372461193069       93.32591315412620      100.79903149341364
H          120.17462330605576       94.37986239784891      102.85746050264305
H          119.44386837298734       95.91696155785634      102.40407347252903
H          120.89828128077853       95.99093349984776      100.36856197972176
H          121.66999293285572       94.49235246085283      100.88131057595515
H          122.42151752006693       95.58366908947836      102.97462411893139
H          121.61399983991130       97.07815022127973      102.49880614202524
H          123.06715774161550       97.19234471893395      100.46800315109182
H          123.92982325749713       95.75690513098124      101.01607050332633
H          123.74747197286700       98.37413920274281      102.57055369617542
H          125.08768436383251       97.92728261171156      101.51600643405699
H          125.44466763081896       95.86948771381547      102.93138049122700
H          124.26221736525758       96.49853736616400      104.07733838830826
H          126.82698619871721       97.92890375853774      103.26204657318398
H          126.62774913794853       96.94649627270663      104.71112491885791
H          124.78658235812212       98.49570086808670      105.45418311433009
H          125.15888924468317       99.53596792447888      104.07733134929845
H          127.50276915236780       99.77441548660279      104.92440441776871
H          127.09237519453492       98.74570672991244      106.29442000339102
H          127.01128934764969      100.98021642394728      107.08934298055381
H          125.33743012488098      100.44901863267712      106.96600523136863
H          125.06585598401539      101.70681808578422      104.85948012216559
H          126.78264298087230      102.10820606212931      104.85329055360363
H          126.47650333649186      103.36348190968954      106.99574288387733
H          124.75360927412306      103.00269304844078      106.94892387209414
H          124.58576454611142      104.19386569150974      104.75019928249790
H          126.30298115303965      104.57456015628807      104.84090921183726
H          125.89740259397905      105.83747812158902      106.96281130212340
H          124.17696780697699      105.48399683813770      106.83154593223414
H          124.13994070888822      106.66112794790381      104.60915191885667
H          125.83733263231532      107.07659343934220      104.82719493946922
H          125.25286541769560      108.32857471885848      106.91069017572092
H          123.55644792049850      107.91839396980839      106.67097913630973
H          123.62799958355332      109.09411547748554      104.44485222292452
H          125.28440039047375      109.58434032109601      104.78775296191117
H          124.49388399111834      110.80425092048343      106.81971055318763
H          122.84134076871452      110.30419390578894      106.46797854220006
H          123.00424306874082      111.48388499847518      104.24549359285872
H          124.59790402858798      112.07313283806279      104.70915885755772
H          123.58954175607251      113.24470848598403      106.66762897048974
H          122.00264260846056      112.62732119015052      106.21408975023218
H          122.23004677152703      113.80940471320710      103.99523404381560
H          123.73712310926747      114.52042716223103      104.56563651884900
H          122.50942702345760      115.61267480474744      106.43942688840590
H          121.01135493077872      114.86537282114249      105.89089201534782
H          121.27826358676124      116.06341967021740      103.68459425923864
H          122.68274558200962      116.89661515549355      104.34515251580973
H          121.25159360127468      117.86886724925900      106.14377419776268
H          119.85810744829438      117.01163135397370      105.49107908904452
H          120.13976463846826      118.26332362843637      103.33154624890874
H          121.47007195404133      119.16579873191945      104.05341035736731
H          119.91399485044182      120.01413320375612      105.82005711570444
H          118.59222034424728      119.12572448927654      105.06532632050465
H          118.92692747189031      120.44828255169222      102.96680909979354
H          120.19886501772790      121.36870863454843      103.76736996012636
H          118.53491794494035      122.12177771193099      105.48806948480137
H          117.27447697426396      121.23984596721758      104.63074607172658
H          117.70227765734425      122.63938075753059      102.59902312465759
H          118.92246446048152      123.53771402328195      103.50112374378629
H          117.15433597108469      124.22280191654949      105.14767016021339
H          115.96167050728249      123.33691248710187      104.20161707398834
H          115.73262113054068      125.61857110639193      103.57211379547689
H          116.54434526219015      124.82737783728682      102.22368493460786
H          117.92627290446585      126.47377214858443      104.39660559611316
H          118.72858557337197      125.74884417894251      103.00231845829758
H          117.55545793767037      127.04038255381590      102.76815982112231
H          120.20586420047006      100.18401316722907       99.99267779533830
H          120.04093091369607      100.93671273121701      101.57947453076170
H          121.15228919734356       99.59003555088917      101.35766660934318
C          113.62821682844667       87.33397175066261      119.39876401489080
C          113.92905314374255       88.71343368096606      118.82632601012668
C          113.66738072037150       88.77700593507146      117.32360732643127
C          113.94427242995262       90.16578706904095      116.75381766946849
C          113.54861806554192       90.26560470261163      115.28224951577099
C          113.83595903460039       91.63600106485029      114.66834803129461
C          112.94091509941245       92.74082654509689      115.22448481709823
C          113.22005961047810       94.09163335407263      114.57007435446398
C          112.45513464367384       95.22252023532751      115.25258233283853
C          112.68016970870282       96.57359334296635      114.57981163583179
C          111.98864322403587       97.70630260404401      115.33515500028895
C          112.19180722168826       99.05674872002618      114.65665730067526
C          111.48772667718761      100.19643029751742      115.38585082299764
C          111.69347851584966      101.53555588324100      114.68243116795848
C          110.92918735087287      102.66736341191394      115.36283934507483
C          111.11975612989717      104.00457312463095      114.65223070957647
C          110.33995058452702      105.12914933897848      115.32805358260178
C          110.50616487852666      106.46363521710248      114.60690202954035
C          109.76371186491868      107.59675076678560      115.30958415161423
C          109.91502380948953      108.92654898915220      114.57636660342258
C          109.21965155749548      110.07313895346900      115.30618010399715