3864
 energy: -5104.042626944568 gnorm: 0.000946233436 xtb: 6.6.1 (8d0f1dd)
C           57.03702640452168       66.76385997353790       41.61901911407302
C           56.91661891730085       67.63092872133228       42.69795462490956
C           57.99046375029523       68.46204270396636       42.99784699851040
C           59.14339677255672       68.44303782903641       42.23412155025403
C           59.24800927477754       67.58050948513650       41.15721941377294
C           58.19432235941638       66.73479357920576       40.86038097470779
C           55.64588138824200       67.75826383325219       43.50400217844719
C           54.76470419355216       68.83149500633489       42.85355839088375
C           54.85160426240670       66.45706768584679       43.63485136137835
C           55.66403256089221       65.31617228795550       44.26291298175047
C           56.00914780573182       65.65205719242618       45.69056022998470
C           55.01857938702653       65.84414767992175       46.64636827866716
C           55.34128237902816       66.23261048037539       47.93325323864055
C           56.66366821928218       66.43098418962684       48.28903865182448
C           57.66107377188133       66.22312204414568       47.35278811347550
C           57.33325746663358       65.83682417273096       46.06568611679834
C           54.88732075227708       64.00081651387781       44.13586542468077
C           55.71655050631241       62.76703591497429       44.51473138474636
C           57.01208422262981       62.72355265938874       43.74144289881009
C           57.01434164709251       62.65752715991484       42.35249356932611
C           58.20217140729298       62.58107446845959       41.64733359317734
C           59.41064575555883       62.57310795935300       42.32186149443497
C           59.42213914954958       62.65401122766943       43.70280133839135
C           58.23252231278602       62.72509405034499       44.40623109598258
C           54.91635715455920       61.48165792097774       44.23950544311524
C           53.81453715029253       61.19448714912973       45.27476820279506
C           52.69995651705027       60.41027581515617       44.62731328549881
C           52.90192902029019       59.12406040642917       44.13933894408245
C           51.86790063203875       58.42837060900313       43.53844488532758
C           50.61519773557153       59.00447492363951       43.41261004706178
C           50.40517196956401       60.28941300742752       43.88178771217193
C           51.44177382504596       60.98162068329035       44.48312857957909
C           54.38201432791002       60.45865026713802       46.49405776851313
C           53.30888134883175       60.16961351087143       47.55001347303106
C           52.72698705083939       61.43838156303666       48.12204258924208
C           53.51924483893309       62.35315393086083       48.80687135818601
C           52.95902673543463       63.47902529856061       49.38300988552775
C           51.59838994594896       63.71429210964156       49.28092091072770
C           50.80507817572103       62.82346544635034       48.57921917571817
C           51.36585395239981       61.69451557498118       48.00871463826076
C           53.87148988533282       59.31694285936486       48.69936215375856
C           54.08605788351324       57.83160877400952       48.36197250038308
C           54.88810295131215       57.19083018004819       49.46794140918398
C           56.16641078860402       56.70986799530097       49.21588409748609
C           56.91256758999388       56.11574668732440       50.21816336674574
C           56.38787992476392       56.00023624541420       51.49283726905606
C           55.11724227967159       56.47909217882940       51.75943334006788
C           54.37394044624401       57.07035202824549       50.75418505101907
C           52.75534113158846       57.09747534757604       48.15905603628553
C           52.92552304657425       55.58453109891911       47.93842001525525
C           53.83970921668916       55.31932179489378       46.76883028345836
C           53.51593055635517       55.75765417716977       45.48913363937996
C           54.36060613132581       55.51618027497241       44.41965994298926
C           55.55172045174216       54.83596168250531       44.60957997565632
C           55.89009931111509       54.40285256883767       45.88057736796240
C           55.04198289543336       54.64269405262408       46.94778545549796
C           51.53436479851400       54.94938294506571       47.76488635645599
C           51.41344214998671       53.45855631641220       48.15883176686314
C           51.76405306919838       53.36744166744445       49.62614718803066
C           50.79313244624970       53.67583266024451       50.57298638913402
C           51.08367574723486       53.68834208926113       51.92519630344663
C           52.37151103011771       53.41784634080583       52.35444922121314
C           53.34990995737420       53.12335741339929       51.42313691381041
C           53.04907069024959       53.08470822207995       50.07275431266255
C           52.21777152104167       52.47281998779471       47.29655681659289
C           51.50782774831061       51.94634259736713       46.03212317599456
C           52.45054829100000       51.01240075371746       45.31250684070615
C           52.17514128437401       49.65408575309704       45.22989829419583
C           53.02252895298498       48.79553000761108       44.54977080100459
C           54.16085349160503       49.29121835277731       43.93935857291461
C           54.45327821378283       50.64223100142910       44.02273841459726
C           53.60683027465717       51.49504730834311       44.70717891189243
C           51.03896578470975       53.08150704447731       45.11383326917063
C           50.68545187185595       52.65156574197383       43.68496900433628
C           49.55798010441570       51.65625518071705       43.59491459506430
C           48.30264571104895       51.93687745759612       44.12161340499069
C           47.25458749488429       51.04657703977521       43.97257403431994
C           47.43640912139793       49.86714889342861       43.27030867630200
C           48.67903165700373       49.58347536638007       42.73030848546721
C           49.73262676663219       50.46431901475684       42.90248748154132
C           50.33692841108883       53.89926374864218       42.85466971715856
C           50.68168841465836       53.70121335977178       41.37178004310035
C           49.85196012311744       54.61872789031080       40.51389496918670
C           49.77360852082669       55.97941214103108       40.78721736101041
C           48.93695970957793       56.79999951810166       40.05438709962385
C           48.17857920000828       56.27713694519273       39.02073014825528
C           48.27964402020904       54.93105598758130       38.71417750200532
C           49.10706495502247       54.11042099376655       39.45866992686295
C           52.18599863417715       53.92372033430261       41.15640784912280
C           52.71331371347389       53.28849193385783       39.86495697885697
C           52.37016911639845       51.81882034442015       39.80381237424094
C           51.59752295670810       51.31690712046717       38.76357972571425
C           51.28140322185747       49.97172036473294       38.69676986610538
C           51.73109163347604       49.10037265277074       39.67320454872295
C           52.50760910784437       49.58613915261803       40.71182066609617
C           52.82727372704485       50.93116814854383       40.77176251477253
C           54.23830471707564       53.44357941187257       39.75345183854403
C           54.73243501883548       54.88574470974969       39.55857305201473
C           56.19158606746868       54.95773058223340       39.93944189077686
C           57.14392416765844       54.18234660721237       39.28701133503369
C           58.47372275594633       54.22171507358082       39.66698971324957
C           58.87628950824394       55.03844632850996       40.71111917284043
C           57.93848384253877       55.81404156695050       41.37051136096560
C           56.60855659389233       55.76993079140416       40.98703418225573
C           54.48822574792545       55.36390103546688       38.12157282291708
C           54.89467293507793       56.82812276306673       37.92220559061743
C           54.14226703640313       57.74427389122956       38.85477810903551
C           54.83280685235371       58.51466076380525       39.78373745395673
C           54.16386965516464       59.36724193429320       40.64368494860651
C           52.78518369393062       59.46700677231770       40.58199852402023
C           52.08711327248386       58.70414567870962       39.66242723475600
C           52.75759494847125       57.84932296008898       38.80630182146495
C           54.68764791418859       57.27884322413925       36.46502973868967
C           55.71169839148286       56.69607179462946       35.47620662438630
C           55.34497734626930       57.06207443914776       34.06103155531767
C           55.08388533206357       56.06769875065810       33.12773082450352
C           54.78528775336713       56.38564040679965       31.81436779062461
C           54.73880935583664       57.70943649458597       31.41508858621497
C           54.98978464816740       58.70987764202879       32.33867097846370
C           55.29048573153156       58.38904588398096       33.64983049740632
C           57.12418487081737       57.19705086319815       35.80126154134346
C           58.21411859992487       56.70747043708838       34.83712405282523
C           58.12272270489186       55.21073155625520       34.66880504448827
C           58.09310812491513       54.36080292537284       35.76956372902951
C           57.88576701504687       53.00246681809705       35.60955409813979
C           57.73423254087214       52.46663769834922       34.34200930506836
C           57.82312847546503       53.29279088925590       33.23639484957886
C           58.01061305402455       54.65446878257446       33.40124424950313
C           59.60802325582259       57.12877199437618       35.34295969207772
C           60.15991298669000       58.44653828864422       34.75521972573156
C           60.50571676703782       58.18960591604455       33.30479573603058
C           59.65748912799253       58.49696095333571       32.24869164184621
C           60.00071835830553       58.17036831002490       30.94700034837755
C           61.19614096962373       57.52996611047496       30.67643673142968
C           62.05207993317249       57.21985460576515       31.71971246804959
C           61.70656238294750       57.54708482656017       33.01694262304088
C           59.25904111265606       59.67489142889563       34.93519718915977
C           58.98929666640014       60.08059508692109       36.39686677474697
C           57.73834978881278       60.92782209617384       36.45530631815667
C           57.64755327991092       62.12647951799105       35.75605621079318
C           56.48861872591412       62.88143677341125       35.79403052356725
C           55.39401474836895       62.44955161981283       36.52503432735261
C           55.47422114585927       61.26208396191052       37.23017053869701
C           56.64080578513370       60.51717771460999       37.20224668760047
C           60.16741381568232       60.80898245010376       37.07702559655996
C           60.94315027628959       59.92764000056740       38.07051039445582
H           55.91443743169110       68.09820291703424       44.51128439278730
H           53.97101856660059       66.65505154005101       44.25037793393470
H           54.49667848700012       66.14467858407738       42.65095923272715
H           56.59646724709202       65.21230039434914       43.69809584072521
H           53.99952556787630       64.04450293035096       44.76889114759764
H           54.55145502477141       63.89877618375906       43.10083784042044
H           55.95510626550210       62.82279799754500       45.58255553591510
H           54.45768341112563       61.56901310085782       43.25152163441541
H           55.60206161275402       60.63107614813090       44.20892719373242
H           53.39842982526569       62.14577022454475       45.62153503571935
H           55.17817264774948       61.06141335809547       46.93634806980389
H           52.49760467352510       59.61892025124091       47.06415876500704
H           54.82891416191146       59.74395433723314       49.00723140177128
H           53.19300421639457       59.38847467245823       49.55384745628020
H           54.66645569894573       57.75511731383465       47.43656151807883
H           52.13020312686771       57.24531142365941       49.04080446294032
H           52.22999013797057       57.52601564271760       47.30376127549572
H           53.38932135942299       55.17166679606269       48.83908240790264
H           50.83745369404700       55.49661838282685       48.40727978459701
H           51.20107904584522       55.09342736472946       46.73962537938959
H           50.35269169901542       53.20095029629515       48.05838204685462
H           50.62931022947942       51.36380920789437       46.33169468319444
H           50.16969411065172       53.56514017903771       45.56130477708938
H           51.84350627712141       53.81556696434908       45.03841676769751
H           51.57315661861807       52.18331802228770       43.25070329950982
H           49.27262603455667       54.11998652773438       42.95879384722980
H           50.89112861909778       54.75810296033951       43.23934519067507
H           50.43290230729357       52.66901372100633       41.10309949456484
H           52.37625535290275       54.99876467403203       41.13412944349445
H           52.73520213280915       53.50617183953653       42.00276393367241
H           52.23530087235473       53.78771536254632       39.01567291265642
H           54.69558634579145       53.03708478612901       40.65932580805045
H           54.58926655866225       52.83996517365568       38.91259087042581
H           54.18035658061563       55.54819640460146       40.23136248648618
H           55.05830031304652       54.73748190968838       37.43324914460263
H           53.43122794891672       55.25053228982167       37.87703957934894
H           55.95536933930408       56.91375892617585       38.17640306567319
H           53.68505099767377       56.99126006715344       36.13882405488860
H           54.74401479824403       58.36945754805404       36.42811875828490
H           55.69616887297831       55.60499357566076       35.55437330050649
H           57.10215426017611       58.28345927119243       35.79546793751243
H           57.39068090096601       56.87030640641512       36.80772545451103
H           58.04674207930231       57.15481377160473       33.85323953283879
H           59.59577616413473       57.19789041303120       36.43126451766150
H           60.32646264330113       56.34543171103657       35.08644633059045
H           61.10210452765606       58.64510268124056       35.28095553214683
H           59.72498966715207       60.51087962711374       34.40768430605667
H           58.29585874372648       59.49055754554630       34.45704287227134
H           56.22551147441802       66.10244052970366       41.35831596012105
H           58.26675662848928       66.05064510455281       40.02683050237284
H           60.14663669026375       67.56850632445051       40.55907121302266
H           59.96414091957138       69.10145408083906       42.47794599349539
H           57.91669412373452       69.13719640058768       43.83959058587757
H           53.97991687134377       65.71087313842855       46.38337566018659
H           54.55565300718600       66.40201867397629       48.65478992250465
H           56.91337901186919       66.75511135663935       49.28933013756318
H           58.69625734251728       66.37804894532796       47.61904553690424
H           58.11228699487773       65.68918189614510       45.33110991109085
H           56.08013321974984       62.66974614380107       41.81176760611001
H           58.17629140633926       62.52600720364660       40.56746039768544
H           60.34665477902669       62.50600207572900       41.78811688041272
H           60.36851506418004       62.65715760634274       44.22241760479569
H           58.24565947923729       62.77956729318428       45.48636359194686
H           53.87293712799964       58.65919994461366       44.22567557117640
H           52.04508350582203       57.43350112304806       43.15499038299358
H           49.80665680350496       58.46103524094074       42.94589088886056
H           49.43308392003310       60.75033074946322       43.78181318691988
H           51.27280682851952       61.98283382141990       44.85254775617749
H           54.81831026277361       59.51272160708985       46.16807947588160
H           54.58287984237230       62.18652304884731       48.90094641774191
H           53.59035803529348       64.17600834086741       49.91553565932688
H           51.15832108506671       64.58593548821391       49.74245220255206
H           49.74338790837155       63.00625185626275       48.48090944249349
H           50.73896980082076       60.99927675902784       47.46723448480581
H           56.57379972844659       56.78838382522865       48.21743608369704
H           57.90023824648613       55.73561441602910       50.00102072180283
H           56.96655804276046       55.53425922113203       52.27640008082066
H           54.70335309692013       56.38672464887972       52.75364796704881
H           53.38392294454545       57.43970448684575       50.97584240116361
H           52.59689276300226       56.30282888332776       45.32712693021036
H           54.08933828145165       55.85800548926668       43.43040934357015
H           56.20920759365786       54.64836032518168       43.77283201711781
H           56.81673574562952       53.87145409585131       46.04398583779874
H           55.31887381314852       54.30056668611061       47.93540735706490
H           49.79379266916823       53.91986937211549       50.23956250662305
H           50.30990313984076       53.91764078459618       52.64479491719029
H           52.61830275824762       53.43134420801271       53.40563499610117
H           54.35962239548547       52.93114952030309       51.74862035558264
H           53.82820118822785       52.83147182905071       49.36991231315355
H           53.16080512446940       52.92999308032409       46.99980956495693
H           52.45208333892786       51.59675897560090       47.90944307786660
H           51.28300220465385       49.26341214035347       45.69898243108058
H           52.78877874714234       47.74183280806137       44.48915355107289
H           54.82403798974424       48.63231194237212       43.39809877674897
H           55.34729556505132       51.03020207603826       43.55401810990517
H           53.84746005140168       52.54719770361540       44.76346887936419
H           48.12995786511315       52.86837580962417       44.63953304542206
H           46.28857062332686       51.28865101265477       44.39216490241436
H           46.61213966441307       49.18240177091109       43.13080867920288
H           48.82545466400269       48.68214719276016       42.15278321289191
H           50.69883408918609       50.22966913287988       42.47939204280342
H           50.36036436817614       56.40180444498512       41.58913472434094
H           48.87022232740232       57.85225049832098       40.29409618964240
H           47.50572765831152       56.91476069970523       38.46438422900725
H           47.71141113304036       54.51249905565248       37.89814910296072
H           49.15973604275092       53.05595267813560       39.22879823560520
H           51.23520631835105       51.98724930737516       37.99585369093785
H           50.67958296135689       49.60513785792046       37.88036625764988
H           51.47245871056385       48.05121708107803       39.62208454645427
H           52.86717083263753       48.92441859442273       41.48773453361226
H           53.43484807769808       51.28321425192830       41.59248625421699
H           56.83874648424460       53.53816539208112       38.47582255409889
H           59.20143406037916       53.61200255167729       39.14905962723488
H           59.91541241125900       55.07740222838882       41.00596480694711
H           58.24123007867951       56.45030386794719       42.19096741266179
H           55.88295908648445       56.37718465947761       41.50997823214451
H           55.91029236977611       58.44123952819990       39.84360055939653
H           54.72032317158082       59.94820065995837       41.36538434509249
H           52.25721249043807       60.12565166418026       41.25540483089532
H           51.01122188306756       58.76900469970283       39.61083503535054
H           52.19552507848657       57.26271250863343       38.09508063045367
H           55.12250898117544       55.03092603407815       33.43168735866384
H           54.59015033422975       55.59772554676533       31.10063596817765
H           54.50796576447625       57.96190452108728       30.39057252916422
H           54.95384537325148       59.74531896138273       32.03068108432022
H           55.48686667931773       59.18233861648000       34.35813052375106
H           58.21311817353975       54.76631052024948       36.76364511942208
H           57.83389256398716       52.35482677820006       36.47398876050407
H           57.54093914163491       51.41039853788858       34.22177088426711
H           57.72914284949647       52.87949722138738       32.24280205010383
H           58.05338346683253       55.29970180439236       32.53473072312748
H           58.71756926872746       58.99853459381207       32.42342314446707
H           59.32492401255948       58.41773660316252       30.14082182227089
H           61.46032621857742       57.27608864675391       29.66042077912900
H           62.99021663293203       56.72121022078756       31.52386713694768
H           62.38029446022934       57.29674382322049       33.82531194915165
H           56.69209105182217       59.60037722202635       37.77162296022146
H           54.62565384349341       60.90913921261531       37.79915885376991
H           54.48517929792012       63.03215377471979       36.54402628143109
H           56.43536836064941       63.81053741329364       35.24514894134299
H           58.49209694090709       62.47204407293908       35.17819748286568
H           55.29848114013546       69.77679479675940       42.78866884781797
H           54.48627858308367       68.52586248513217       41.84701342532711
H           53.85837370184218       68.98265724018461       43.43680536298503
H           58.78695252606834       59.16783788461485       36.95758261894581
H           60.86710411881250       61.17039851148118       36.31984889964166
H           59.78875718151597       61.68430329545093       37.61054992564756
C           60.07885230199506       59.49809963487249       39.26625872888278
C           62.18437142363970       60.64336201623570       38.54409826258629
C           63.44094076292915       60.20203316215800       38.15047159183512
C           64.58832913157674       60.82078188860932       38.61569145216905
C           64.49583908510586       61.88919221447455       39.49046043005345
C           63.24872256286730       62.34902509436336       39.87879389347523
C           62.10564684493344       61.73711971840481       39.39812369297329
H           63.52338282763653       59.35681317775658       37.48129728635797
H           65.55695840889223       60.45966118359102       38.30084832131186
H           65.38921458786538       62.36451572319458       39.86865300427848
H           63.16912483755662       63.17955514980341       40.56524706628211
H           61.13831005601376       62.11284667284427       39.69714375999457
C           60.86547572161848       58.65735600174554       40.28180202223593
H           59.67149790224315       60.37499039033890       39.77223226652622
H           59.23098288666823       58.91237894440273       38.90870098263733
C           61.66406924032155       57.57379510510597       39.61594773333685
C           61.04395753785628       56.64766580310976       38.78526372647065
C           61.78599723218030       55.71435669981123       38.08681668711819
C           63.16233224625723       55.67297501768563       38.23164294653393
C           63.78699559675431       56.56300684924292       39.08688583374678
C           63.04214154726544       57.51147949137379       39.76714995680317
H           59.96821343358282       56.66414409576105       38.68188109085720
H           61.29096753072658       55.02934301694857       37.41450497755073
H           63.74658353139312       54.95450379978174       37.67654380716968
H           64.86005888026651       56.52968040083939       39.20757219851004
H           63.53814699197643       58.22308478804754       40.41224312205008
H           61.26066789967140       59.02240396084005       37.54265728937065
H           61.54419993856075       59.30677047882787       40.83797026320715
H           60.15742668410184       58.21368424917760       40.98861866879856
C           63.41280332425354       66.77842295618714       43.49387715284850
C           62.17208223783306       66.37277743315559       43.96975279397288
C           61.30853360101621       65.72302579670027       43.09627957212344
C           61.68088365831147       65.47659518888109       41.78744594580970
C           62.91913446246507       65.88665796243264       41.32405934041020
C           63.78547672545227       66.54023910161000       42.18301363163989
C           61.77711981356028       66.66427313699067       45.39648212562512
C           60.67148486906059       67.72277041675744       45.42123537372434
C           61.34227683574013       65.39320234725551       46.13568230380153
C           62.46719544546291       64.35149023376631       46.20294769601139
C           63.66546112373481       64.89817374339380       46.93992683952094
C           63.60291831071910       65.19894687431753       48.29565113294536
C           64.71127102902970       65.67758536600876       48.96926048064767
C           65.90525423879461       65.86615858862940       48.29577462324388
C           65.97905046506345       65.57788375719494       46.94401090496845
C           64.86786843088076       65.09820035371604       46.27351210529545
C           61.96967187923304       63.06213173366582       46.86902970487007
C           63.08588495196972       62.01585387208458       46.98016947898275
C           63.52718591484692       61.54866262537127       45.61654768121645
C           64.82634918960564       61.78461364316688       45.18323975468075
C           65.23659905841760       61.39312690256121       43.92091328324700
C           64.35111375177539       60.75731007115433       43.06743075406729
C           63.05959985271159       60.50382947105834       43.49545994570623
C           62.65257726555134       60.89140804170952       44.75913743129158
C           62.64167337189430       60.84327747479099       47.86187339762841
C           63.80136151922536       59.89032740243271       48.17622202694285
C           65.02709083357630       60.63190095774677       48.65469890499648
C           64.95751815426640       61.53655410569734       49.70875478794518
C           66.08394034888362       62.21437736796109       50.13658645467914
C           67.30560087622426       61.98802965261999       49.52638671961925
C           67.39093990539565       61.08010775038560       48.48591393368990
C           66.25910550190754       60.41032608013732       48.05420438454606
C           63.42849571096519       58.85510198639178       49.25066044362114
C           62.14024204957931       58.06169078282698       48.98889730309124
C           61.81487551203346       57.19166306704163       50.18142416318747
C           62.75539461912049       56.33208830933057       50.74011472449217
C           62.44404091404834       55.55153545604495       51.83813154345189
C           61.17737897974074       55.60703724861452       52.39706745240755
C           60.22591319961780       56.44323616392607       51.84172694418884
C           60.54454019596808       57.22560198713427       50.74427366388807
C           62.24271217288265       57.20614398172320       47.71918823417423
C           60.88456509359487       56.61859846857276       47.30543036779326
C           60.12333299716379       57.57037811438547       46.41731299783471
C           60.56727295263293       57.86435416290030       45.13199931836620
C           59.83454064583315       58.69963826634447       44.30805877382257
C           58.64690743093013       59.25778613330337       44.75038080416161
C           58.20280865983143       58.98274830272361       46.03138562714080
C           58.93910183292237       58.14853937146052       46.85573374268753
C           61.05502720611803       55.26586913340353       46.59880887463588
C           61.35384886319033       54.12233632984479       47.57975667876968
C           61.89735380071073       52.93566530965024       46.82765787190755
C           63.15826287960220       52.43441464667607       47.12058232631303
C           63.65768794471977       51.33029503289515       46.45308347249046
C           62.90210087514458       50.70904438628479       45.47485148569095
C           61.64742240397946       51.20626981124246       45.16470620064977
C           61.15231199365051       52.30869855037444       45.83537970434485
C           60.10886633689548       53.73371497981432       48.39319072916355
C           60.29347811491103       52.43628132301647       49.19656304372729
C           58.96920240755168       52.02148187556478       49.78392568912240
C           58.28122799837156       50.94068607877309       49.24585392916438
C           57.05984319490830       50.54444505579028       49.76071095866887