      -----------------------------------------------------------      
     |                   =====================                   |     
     |                           x T B                           |     
     |                   =====================                   |     
     |                         S. Grimme                         |     
     |          Mulliken Center for Theoretical Chemistry        |     
     |                    University of Bonn                     |     
      -----------------------------------------------------------      

   * xtb version 6.6.1 (8d0f1dd) compiled by 'stahn@M-Bot' on 2023-08-01

   xtb is free software: you can redistribute it and/or modify it under
   the terms of the GNU Lesser General Public License as published by
   the Free Software Foundation, either version 3 of the License, or
   (at your option) any later version.
   
   xtb is distributed in the hope that it will be useful,
   but WITHOUT ANY WARRANTY; without even the implied warranty of
   MERCHANTABILITY or FITNESS FOR A PARTICULAR PURPOSE.  See the
   GNU Lesser General Public License for more details.
   
   Cite this work as:
   * C. Bannwarth, E. Caldeweyher, S. Ehlert, A. Hansen, P. Pracht,
     J. Seibert, S. Spicher, S. Grimme, WIREs Comput. Mol. Sci., 2020, 11,
     e01493. DOI: 10.1002/wcms.1493
   
   for GFN2-xTB:
   * C. Bannwarth, S. Ehlert and S. Grimme., J. Chem. Theory Comput., 2019,
     15, 1652-1671. DOI: 10.1021/acs.jctc.8b01176
   for GFN1-xTB:
   * S. Grimme, C. Bannwarth, P. Shushkov, J. Chem. Theory Comput., 2017,
     13, 1989-2009. DOI: 10.1021/acs.jctc.7b00118
   for GFN0-xTB:
   * P. Pracht, E. Caldeweyher, S. Ehlert, S. Grimme, ChemRxiv, 2019, preprint.
     DOI: 10.26434/chemrxiv.8326202.v1
   for GFN-FF:
   * S. Spicher and S. Grimme, Angew. Chem. Int. Ed., 2020, 59, 15665-15673.
     DOI: 10.1002/anie.202004239
   
   for ALPB and GBSA implicit solvation:
   * S. Ehlert, M. Stahn, S. Spicher, S. Grimme, J. Chem. Theory Comput.,
     2021, 17, 4250-4261. DOI: 10.1021/acs.jctc.1c00471
   
   for DFT-D4:
   * E. Caldeweyher, C. Bannwarth and S. Grimme, J. Chem. Phys., 2017,
     147, 034112. DOI: 10.1063/1.4993215
   * E. Caldeweyher, S. Ehlert, A. Hansen, H. Neugebauer, S. Spicher,
     C. Bannwarth and S. Grimme, J. Chem. Phys., 2019, 150, 154122.
     DOI: 10.1063/1.5090222
   * E. Caldeweyher, J.-M. Mewes, S. Ehlert and S. Grimme, Phys. Chem. Chem. Phys.
     2020, 22, 8499-8512. DOI: 10.1039/D0CP00502A
   
   for sTDA-xTB:
   * S. Grimme and C. Bannwarth, J. Chem. Phys., 2016, 145, 054103.
     DOI: 10.1063/1.4959605
   
   in the mass-spec context:
   * V. Asgeirsson, C. Bauer and S. Grimme, Chem. Sci., 2017, 8, 4879.
     DOI: 10.1039/c7sc00601b
   * J. Koopman and S. Grimme, ACS Omega 2019, 4, 12, 15120-15133.
     DOI: 10.1021/acsomega.9b02011
   
   for metadynamics refer to:
   * S. Grimme, J. Chem. Theory Comput., 2019, 155, 2847-2862
     DOI: 10.1021/acs.jctc.9b00143
   
   for SPH calculations refer to:
   * S. Spicher and S. Grimme, J. Chem. Theory Comput., 2021, 17, 1701-1714
     DOI: 10.1021/acs.jctc.0c01306
   
   with help from (in alphabetical order)
   P. Atkinson, C. Bannwarth, F. Bohle, G. Brandenburg, E. Caldeweyher
   M. Checinski, S. Dohm, S. Ehlert, S. Ehrlich, I. Gerasimov, C. Hölzer
   A. Katbashev, J. Koopman, C. Lavigne, S. Lehtola, F. März, M. Müller,
   F. Musil, H. Neugebauer, J. Pisarek, C. Plett, P. Pracht, F. Pultar,
   J. Seibert, P. Shushkov, S. Spicher, M. Stahn, M. Steiner, T. Strunk,
   J. Stückrath, T. Rose, and J. Unsleber
   
 * started run on 2024/10/04 at 21:06:14.272     

           -------------------------------------------------
          |                Calculation Setup                |
           -------------------------------------------------

          program call               : /home/abt-grimme/AK-bin/xtb input.xyz --input input.inp --opt
          hostname                   : boar085.thch.uni-bonn.de
          coordinate file            : input.xyz
          omp threads                :                     8

   ID    Z sym.   atoms
    1    6 C      1-146, 294-300, 306, 309-314, 323-468, 616-622, 628,
                  631-636, 645-790, 938-944, 950, 953-958, 967-1112,
                  1260-1266, 1272, 1275-1280, 1289-1434, 1582-1588, 1594,
                  1597-1602, 1611-1756, 1904-1910, 1916, 1919-1924,
                  1933-2078, 2226-2232, 2238, 2241-2246, 2255-2400,
                  2548-2554, 2560, 2563-2568, 2577-2722, 2870-2876, 2882,
                  2885-2890, 2899-3044, 3192-3198, 3204, 3207-3212,
                  3221-3366, 3514-3520, 3526, 3529-3534, 3543-3688,
                  3836-3842, 3848, 3851-3856
    2    1 H      147-293, 301-305, 307, 308, 315-322, 469-615, 623-627, 629,
                  630, 637-644, 791-937, 945-949, 951, 952, 959-966,
                  1113-1259, 1267-1271, 1273, 1274, 1281-1288, 1435-1581,
                  1589-1593, 1595, 1596, 1603-1610, 1757-1903, 1911-1915,
                  1917, 1918, 1925-1932, 2079-2225, 2233-2237, 2239, 2240,
                  2247-2254, 2401-2547, 2555-2559, 2561, 2562, 2569-2576,
                  2723-2869, 2877-2881, 2883, 2884, 2891-2898, 3045-3191,
                  3199-3203, 3205, 3206, 3213-3220, 3367-3513, 3521-3525,
                  3527, 3528, 3535-3542, 3689-3835, 3843-3847, 3849, 3850,
                  3857-3864

molecular fragmentation (1/2 indicates fragments):
111111111111111111111111111111111111111111111111111111111111111111111111
111111111111111111111111111111111111111111111111111111111111111111111111
111111111111111111111111111111111111111111111111111111111111111111111111
111111111111111111111111111111111111111111111111111111111111111111111111
111111111111111111111111111111111122222222222222222222222222222222222222
222222222222222222222222222222222222222222222222222222222222222222222222
222222222222222222222222222222222222222222222222222222222222222222222222
222222222222222222222222222222222222222222222222222222222222222222222222
222222222222222222222222222222222222222222222222222222222222222222222222
222222222222222222222222222222222222222222222222222222222222222222222222
222222222222222222222222222222222222222222222222222222222222222222222222
222222222222222222222222222222222222222222222222222222222222222222222222
222222222222222222222222222222222222222222222222222222222222222222222222
222222222222222222222222222222222222222222222222222222222222222222222222
222222222222222222222222222222222222222222222222222222222222222222222222
222222222222222222222222222222222222222222222222222222222222222222222222
222222222222222222222222222222222222222222222222222222222222222222222222
222222222222222222222222222222222222222222222222222222222222222222222222
222222222222222222222222222222222222222222222222222222222222222222222222
222222222222222222222222222222222222222222222222222222222222222222222222
222222222222222222222222222222222222222222222222222222222222222222222222
222222222222222222222222222222222222222222222222222222222222222222222222
222222222222222222222222222222222222222222222222222222222222222222222222
222222222222222222222222222222222222222222222222222222222222222222222222
222222222222222222222222222222222222222222222222222222222222222222222222
222222222222222222222222222222222222222222222222222222222222222222222222
222222222222222222222222222222222222222222222222222222222222222222222222
222222222222222222222222222222222222222222222222222222222222222222222222
222222222222222222222222222222222222222222222222222222222222222222222222
222222222222222222222222222222222222222222222222222222222222222222222222
222222222222222222222222222222222222222222222222222222222222222222222222
222222222222222222222222222222222222222222222222222222222222222222222222
222222222222222222222222222222222222222222222222222222222222222222222222
222222222222222222222222222222222222222222222222222222222222222222222222
222222222222222222222222222222222222222222222222222222222222222222222222
222222222222222222222222222222222222222222222222222222222222222222222222
222222222222222222222222222222222222222222222222222222222222222222222222
222222222222222222222222222222222222222222222222222222222222222222222222
222222222222222222222222222222222222222222222222222222222222222222222222
222222222222222222222222222222222222222222222222222222222222222222222222
222222222222222222222222222222222222222222222222222222222222222222222222
222222222222222222222222222222222222222222222222222222222222222222222222
222222222222222222222222222222222222222222222222222222222222222222222222
222222222222222222222222222222222222222222222222222222222222222222222222
222222222222222222222222222222222222222222222222222222222222222222222222
222222222222222222222222222222222222222222222222222222222222222222222222
222222222222222222222222222222222222222222222222222222222222222222222222
222222222222222222222222222222222222222222222222222222222222222222222222
222222222222222222222222222222222222222222222222222222222222222222222222
222222222222222222222222222222222222222222222222222222222222222222222222
222222222222222222222222222222222222222222222222222222222222222222222222
222222222222222222222222222222222222222222222222222222222222222222222222
222222222222222222222222222222222222222222222222222222222222222222222222
222222222222222222222222222222222222222222222222
# atoms in fragment 1/2:   322  3542
 fragment masses (1/2) :     2085.00    22935.05
CMA distance (Bohr)    :  25.507
constraining FC (au)   :  0.0500

           -------------------------------------------------
          |                 G F N 2 - x T B                 |
           -------------------------------------------------

        Reference                      10.1021/acs.jctc.8b01176
      * Hamiltonian:
        H0-scaling (s, p, d)           1.850000    2.230000    2.230000
        zeta-weighting                 0.500000
      * Dispersion:
        s8                             2.700000
        a1                             0.520000
        a2                             5.000000
        s9                             5.000000
      * Repulsion:
        kExp                           1.500000    1.000000
        rExp                           1.000000
      * Coulomb:
        alpha                          2.000000
        third order                    shell-resolved
        anisotropic                    true
        a3                             3.000000
        a5                             4.000000
        cn-shift                       1.200000
        cn-exp                         4.000000
        max-rad                        5.000000


          ...................................................
          :                      SETUP                      :
          :.................................................:
          :  # basis functions                9624          :
          :  # atomic orbitals                9624          :
          :  # shells                         5784          :
          :  # electrons                      9624          :
          :  max. iterations                   250          :
          :  Hamiltonian                  GFN2-xTB          :
          :  restarted?                      false          :
          :  GBSA solvation                  false          :
          :  PC potential                    false          :
          :  electronic temp.          300.0000000     K    :
          :  accuracy                    1.0000000          :
          :  -> integral cutoff          0.2500000E+02      :
          :  -> integral neglect         0.1000000E-07      :
          :  -> SCF convergence          0.1000000E-05 Eh   :
          :  -> wf. convergence          0.1000000E-03 e    :
          :  Broyden damping             0.4000000          :
          ...................................................

 iter      E             dE          RMSdq      gap      omega  full diag
   1  -5195.6223823 -0.519562E+04  0.372E+00    4.27       0.0  T
   2  -5198.2260762 -0.260369E+01  0.220E+00    4.24       1.0  T
   3  -5198.1608656  0.652105E-01  0.495E-01    4.08       1.0  T
   4  -5198.3610138 -0.200148E+00  0.242E-01    4.01       1.0  T
   5  -5198.5113597 -0.150346E+00  0.457E-02    4.08       1.0  T
   6  -5198.5130542 -0.169449E-02  0.281E-02    4.07       1.0  T
   7  -5198.5141656 -0.111143E-02  0.110E-02    4.09       1.0  T
   8  -5198.5144764 -0.310725E-03  0.289E-03    4.08       1.0  T
   9  -5198.5144941 -0.177490E-04  0.123E-03    4.08       1.3  T
  10  -5198.5144957 -0.158552E-05  0.525E-04    4.08       3.1  T
  11  -5198.5144959 -0.194053E-06  0.278E-04    4.08       5.8  T
  12  -5198.5144961 -0.171364E-06  0.100E-04    4.08      16.0  T

   *** convergence criteria satisfied after 12 iterations ***

         #    Occupation            Energy/Eh            Energy/eV
      -------------------------------------------------------------
         1        2.0000           -0.6512493             -17.7214
       ...           ...                  ...                  ...
      4806        2.0000           -0.3821871             -10.3998
      4807        2.0000           -0.3821585             -10.3991
      4808        2.0000           -0.3816635             -10.3856
      4809        2.0000           -0.3799852             -10.3399
      4810        2.0000           -0.3786548             -10.3037
      4811        2.0000           -0.3784913             -10.2993
      4812        2.0000           -0.3779714             -10.2851 (HOMO)
      4813                         -0.2279064              -6.2016 (LUMO)
      4814                         -0.2278724              -6.2007
      4815                         -0.2278001              -6.1988
      4816                         -0.2274144              -6.1883
      4817                         -0.2272083              -6.1827
       ...                                ...                  ...
      9624                          0.6819885              18.5579
      -------------------------------------------------------------
                  HL-Gap            0.1500650 Eh            4.0835 eV
             Fermi-level           -0.3029389 Eh           -8.2434 eV

 SCC (total)                   0 d,  0 h, 48 min, 27.423 sec
 SCC setup                      ...        0 min,  0.728 sec (  0.025%)
 Dispersion                     ...        0 min,  7.381 sec (  0.254%)
 classical contributions        ...        0 min,  0.184 sec (  0.006%)
 integral evaluation            ...        0 min, 11.873 sec (  0.408%)
 iterations                     ...       42 min,  7.163 sec ( 86.921%)
 molecular gradient             ...        5 min, 32.908 sec ( 11.450%)
 printout                       ...        0 min, 27.186 sec (  0.935%)

         :::::::::::::::::::::::::::::::::::::::::::::::::::::
         ::                     SUMMARY                     ::
         :::::::::::::::::::::::::::::::::::::::::::::::::::::
         :: total energy           -5104.034605185447 Eh    ::
         :: gradient norm              0.021735921287 Eh/a0 ::
         :: HOMO-LUMO gap              4.083475799177 eV    ::
         ::.................................................::
         :: SCC energy             -5198.514496070167 Eh    ::
         :: -> isotropic ES            0.266339204775 Eh    ::
         :: -> anisotropic ES          0.785815592974 Eh    ::
         :: -> anisotropic XC          3.252504521944 Eh    ::
         :: -> dispersion             -6.942908030527 Eh    ::
         :: repulsion energy          93.373462986696 Eh    ::
         :: add. restraining           0.000000000000 Eh    ::
         :: total charge              -0.000000000038 e     ::
         :::::::::::::::::::::::::::::::::::::::::::::::::::::

      ----------------------------------------------------------- 
     |              Fast Inertial Relaxation Engine              |
      ----------------------------------------------------------- 

          ...................................................
          :                      SETUP                      :
          :.................................................:
          :   energy convergence        0.5000000E-05 Eh    :
          :   grad. convergence         0.1000000E-02 Eh/a0 :
          :   optimization log               true           :
          :   writing optlog all                1     steps :
          :   Hessian reset                    20     steps :
          :   time step scaling                 5     steps :
          :   maximium step len.        1.0000000     a0    :
          :   initial time step         0.2500000     fs    :
          :   maximum time step         1.2500000     fs    :
          :   power reset thr           0.0000000     au    :
          :   alpha parameter           0.1000000           :
          :   BFGS update                   false           :
          :   preconditioning               false           :
          ...................................................

........................................................................
.............................. CYCLE    1 ..............................
........................................................................

 iter      E             dE          RMSdq      gap      omega  full diag
   1  -5198.5156404 -0.519852E+04  0.303E-04    4.08       0.0  T
   2  -5198.5156404 -0.139389E-07  0.187E-04    4.08       8.6  T
   3  -5198.5156404  0.280443E-07  0.814E-05    4.08      19.8  T
     SCC iter.                  ...       10 min, 36.118 sec
     gradient                   ...        5 min, 31.338 sec
 * total energy  : -5104.0346588 Eh     change    :  -0.5360230E-04 Eh
   gradient norm :     0.0203710 Eh/a0  converged?    E=F G=F D=F
   time step     :     0.2500000 fs     power     :   0.2751747E-08
   step length   :     0.0025474 a0     speed     :   0.2464750E-03

........................................................................
.............................. CYCLE    2 ..............................
........................................................................

 iter      E             dE          RMSdq      gap      omega  full diag
   1  -5198.5173356 -0.519852E+04  0.444E-04    4.08       0.0  T
   2  -5198.5173357 -0.271539E-07  0.273E-04    4.08       5.9  T
   3  -5198.5173356  0.409636E-07  0.100E-04    4.08      16.1  T
     SCC iter.                  ...       10 min, 35.692 sec
     gradient                   ...        5 min, 31.899 sec
 * total energy  : -5104.0347312 Eh     change    :  -0.7242055E-04 Eh
   gradient norm :     0.0184489 Eh/a0  converged?    E=F G=F D=F
   time step     :     0.2500000 fs     power     :   0.3646330E-08
   step length   :     0.0037403 a0     speed     :   0.3618914E-03

........................................................................
.............................. CYCLE    3 ..............................
........................................................................

 iter      E             dE          RMSdq      gap      omega  full diag
   1  -5198.5195660 -0.519852E+04  0.572E-04    4.08       0.0  T
   2  -5198.5195661 -0.420996E-07  0.351E-04    4.08       4.6  T
   3  -5198.5195660  0.634118E-07  0.122E-04    4.08      13.2  T
     SCC iter.                  ...       10 min, 35.243 sec
     gradient                   ...        5 min, 30.418 sec
 * total energy  : -5104.0348138 Eh     change    :  -0.8258263E-04 Eh
   gradient norm :     0.0161590 Eh/a0  converged?    E=F G=F D=F
   time step     :     0.2500000 fs     power     :   0.4071393E-08
   step length   :     0.0048168 a0     speed     :   0.4660556E-03

........................................................................
.............................. CYCLE    4 ..............................
........................................................................

 iter      E             dE          RMSdq      gap      omega  full diag
   1  -5198.5223153 -0.519852E+04  0.682E-04    4.08       0.0  T
   2  -5198.5223153 -0.558039E-07  0.419E-04    4.09       3.8  T
   3  -5198.5223152  0.961472E-07  0.145E-04    4.09      11.1  T
     SCC iter.                  ...       10 min, 37.934 sec
     gradient                   ...        5 min, 30.142 sec
 * total energy  : -5104.0348978 Eh     change    :  -0.8397854E-04 Eh
   gradient norm :     0.0137583 Eh/a0  converged?    E=F G=F D=F
   time step     :     0.2500000 fs     power     :   0.4031101E-08
   step length   :     0.0057481 a0     speed     :   0.5561625E-03

........................................................................
.............................. CYCLE    5 ..............................
........................................................................

 iter      E             dE          RMSdq      gap      omega  full diag
   1  -5198.5255641 -0.519853E+04  0.771E-04    4.09       0.0  T
   2  -5198.5255642 -0.657574E-07  0.476E-04    4.09       3.4  T
   3  -5198.5255640  0.141125E-06  0.169E-04    4.09       9.5  T
     SCC iter.                  ...       10 min, 36.370 sec
     gradient                   ...        5 min, 31.376 sec
 * total energy  : -5104.0349754 Eh     change    :  -0.7765641E-04 Eh
   gradient norm :     0.0115684 Eh/a0  converged?    E=F G=F D=F
   time step     :     0.2500000 fs     power     :   0.3614694E-08
   step length   :     0.0065110 a0     speed     :   0.6299702E-03

........................................................................
.............................. CYCLE    6 ..............................
........................................................................

 iter      E             dE          RMSdq      gap      omega  full diag
   1  -5198.5296967 -0.519853E+04  0.926E-04    4.09       0.0  T
   2  -5198.5296968 -0.881319E-07  0.577E-04    4.09       2.8  T
   3  -5198.5296965  0.265945E-06  0.223E-04    4.09       7.2  T
     SCC iter.                  ...       10 min, 36.346 sec
     gradient                   ...        5 min, 32.472 sec
 * total energy  : -5104.0350477 Eh     change    :  -0.7228072E-04 Eh
   gradient norm :     0.0097781 Eh/a0  converged?    E=F G=F D=F
   time step     :     0.2750000 fs     power     :   0.2894512E-08
   step length   :     0.0078625 a0     speed     :   0.6915792E-03

........................................................................
.............................. CYCLE    7 ..............................
........................................................................

 iter      E             dE          RMSdq      gap      omega  full diag
   1  -5198.5348031 -0.519853E+04  0.107E-03    4.09       0.0  T
   2  -5198.5348032 -0.107384E-06  0.676E-04    4.09       2.4  T
   3  -5198.5348027  0.457824E-06  0.286E-04    4.09       5.6  T
     SCC iter.                  ...       10 min, 40.005 sec
     gradient                   ...        5 min, 31.812 sec
 * total energy  : -5104.0351084 Eh     change    :  -0.6073698E-04 Eh
   gradient norm :     0.0087787 Eh/a0  converged?    E=F G=F D=F
   time step     :     0.3025000 fs     power     :   0.2033169E-08
   step length   :     0.0091766 a0     speed     :   0.7337898E-03

........................................................................
.............................. CYCLE    8 ..............................
........................................................................

 iter      E             dE          RMSdq      gap      omega  full diag
   1  -5198.5408325 -0.519854E+04  0.120E-03    4.09       0.0  T
   2  -5198.5408327 -0.124130E-06  0.761E-04    4.09       2.1  T
   3  -5198.5408320  0.680027E-06  0.348E-04    4.09       4.6  T
     SCC iter.                  ...       10 min, 33.756 sec
     gradient                   ...        5 min, 42.018 sec
 * total energy  : -5104.0351548 Eh     change    :  -0.4633846E-04 Eh
   gradient norm :     0.0084479 Eh/a0  converged?    E=F G=F D=F
   time step     :     0.3327500 fs     power     :   0.1237616E-08
   step length   :     0.0103163 a0     speed     :   0.7499287E-03

........................................................................
.............................. CYCLE    9 ..............................
........................................................................

 iter      E             dE          RMSdq      gap      omega  full diag
   1  -5198.5475201 -0.519855E+04  0.128E-03    4.09       0.0  T
   2  -5198.5475202 -0.144346E-06  0.819E-04    4.09       2.0  T
   3  -5198.5475194  0.807675E-06  0.389E-04    4.09       4.1  T
     SCC iter.                  ...       10 min, 38.404 sec
     gradient                   ...        5 min, 32.692 sec
 * total energy  : -5104.0351873 Eh     change    :  -0.3250491E-04 Eh
   gradient norm :     0.0082364 Eh/a0  converged?    E=F G=F D=F
   time step     :     0.3660250 fs     power     :   0.6102187E-09
   step length   :     0.0112006 a0     speed     :   0.7401908E-03

........................................................................
.............................. CYCLE   10 ..............................
........................................................................

 iter      E             dE          RMSdq      gap      omega  full diag
   1  -5198.5543807 -0.519855E+04  0.133E-03    4.09       0.0  T
   2  -5198.5543809 -0.165041E-06  0.844E-04    4.09       1.9  T
   3  -5198.5543801  0.780778E-06  0.400E-04    4.09       4.0  T
     SCC iter.                  ...       10 min, 36.540 sec
     gradient                   ...        5 min, 31.762 sec
 * total energy  : -5104.0352071 Eh     change    :  -0.1982626E-04 Eh
   gradient norm :     0.0079681 Eh/a0  converged?    E=F G=F D=F
   time step     :     0.4026275 fs     power     :   0.1132851E-09
   step length   :     0.0118264 a0     speed     :   0.7104996E-03

........................................................................
.............................. CYCLE   11 ..............................
........................................................................

 iter      E             dE          RMSdq      gap      omega  full diag
   1  -5198.5607061 -0.519856E+04  0.134E-03    4.09       0.0  T
   2  -5198.5607062 -0.170243E-06  0.829E-04    4.09       1.9  T
   3  -5198.5607056  0.612402E-06  0.367E-04    4.09       4.4  T
     SCC iter.                  ...       10 min, 35.733 sec
     gradient                   ...        5 min, 31.126 sec
 * total energy  : -5104.0352150 Eh     change    :  -0.7912075E-05 Eh
   gradient norm :     0.0080933 Eh/a0  converged?    E=F G=F D=F
   time step     :     0.4428903 fs     power     :  -0.2714379E-09
   step length   :     0.0121738 a0     speed     :   0.6648840E-03

........................................................................
.............................. CYCLE   12 ..............................
........................................................................
 * reset velocities

 iter      E             dE          RMSdq      gap      omega  full diag
   1  -5198.5605420 -0.519856E+04  0.582E-05    4.09       0.0  T
   2  -5198.5605420 -0.508044E-08  0.514E-05    4.09      31.3  T
   3  -5198.5605420 -0.105438E-07  0.188E-05    4.09      85.4  T
     SCC iter.                  ...       10 min, 36.950 sec
     gradient                   ...        5 min, 30.793 sec
 * total energy  : -5104.0352188 Eh     change    :  -0.3728997E-05 Eh
   gradient norm :     0.0079548 Eh/a0  converged?    E=T G=F D=T
   time step     :     0.2214451 fs     power     :   0.1773555E-09
   step length   :     0.0003721 a0     speed     :   0.4064602E-04

........................................................................
.............................. CYCLE   13 ..............................
........................................................................

 iter      E             dE          RMSdq      gap      omega  full diag
   1  -5198.5602052 -0.519856E+04  0.725E-05    4.09       0.0  T
   2  -5198.5602052 -0.111959E-08  0.506E-05    4.09      31.8  T
   3  -5198.5602052  0.248201E-08  0.220E-05    4.09      73.1  T
     SCC iter.                  ...       10 min, 35.670 sec
     gradient                   ...        5 min, 32.152 sec
 * total energy  : -5104.0352245 Eh     change    :  -0.5747765E-05 Eh
   gradient norm :     0.0076406 Eh/a0  converged?    E=F G=F D=T
   time step     :     0.2214451 fs     power     :   0.3376929E-09
   step length   :     0.0007378 a0     speed     :   0.8059445E-04

........................................................................
.............................. CYCLE   14 ..............................
........................................................................

 iter      E             dE          RMSdq      gap      omega  full diag
   1  -5198.5596992 -0.519856E+04  0.104E-04    4.09       0.0  T
   2  -5198.5596992 -0.244472E-08  0.733E-05    4.09      22.0  T
   3  -5198.5596992  0.453838E-08  0.318E-05    4.09      50.6  T
     SCC iter.                  ...       10 min, 37.268 sec
     gradient                   ...        5 min, 32.072 sec
 * total energy  : -5104.0352325 Eh     change    :  -0.8032753E-05 Eh
   gradient norm :     0.0071877 Eh/a0  converged?    E=F G=F D=F
   time step     :     0.2214451 fs     power     :   0.4683654E-09
   step length   :     0.0010890 a0     speed     :   0.1189570E-03

........................................................................
.............................. CYCLE   15 ..............................
........................................................................

 iter      E             dE          RMSdq      gap      omega  full diag
   1  -5198.5590297 -0.519856E+04  0.135E-04    4.09       0.0  T
   2  -5198.5590297 -0.409182E-08  0.950E-05    4.09      16.9  T
   3  -5198.5590297  0.761884E-08  0.410E-05    4.09      39.3  T
     SCC iter.                  ...       10 min, 34.627 sec
     gradient                   ...        5 min, 30.497 sec
 * total energy  : -5104.0352423 Eh     change    :  -0.9750597E-05 Eh
   gradient norm :     0.0066104 Eh/a0  converged?    E=F G=F D=F
   time step     :     0.2214451 fs     power     :   0.5600740E-09
   step length   :     0.0014191 a0     speed     :   0.1550064E-03

........................................................................
.............................. CYCLE   16 ..............................
........................................................................

 iter      E             dE          RMSdq      gap      omega  full diag
   1  -5198.5582032 -0.519856E+04  0.163E-04    4.09       0.0  T
   2  -5198.5582032 -0.549062E-08  0.115E-04    4.09      14.0  T
   3  -5198.5582032  0.114505E-07  0.493E-05    4.09      32.6  T
     SCC iter.                  ...       10 min, 37.542 sec
     gradient                   ...        5 min, 41.372 sec
 * total energy  : -5104.0352530 Eh     change    :  -0.1073649E-04 Eh
   gradient norm :     0.0059447 Eh/a0  converged?    E=F G=F D=F
   time step     :     0.2214451 fs     power     :   0.6079167E-09
   step length   :     0.0017218 a0     speed     :   0.1880745E-03

........................................................................
.............................. CYCLE   17 ..............................
........................................................................

 iter      E             dE          RMSdq      gap      omega  full diag
   1  -5198.5572280 -0.519856E+04  0.187E-04    4.09       0.0  T
   2  -5198.5572280 -0.714044E-08  0.131E-04    4.09      12.2  T
   3  -5198.5572280  0.158143E-07  0.566E-05    4.09      28.4  T
     SCC iter.                  ...       10 min, 36.900 sec
     gradient                   ...        5 min, 31.632 sec
 * total energy  : -5104.0352640 Eh     change    :  -0.1095705E-04 Eh
   gradient norm :     0.0052269 Eh/a0  converged?    E=F G=F D=F
   time step     :     0.2214451 fs     power     :   0.6114551E-09
   step length   :     0.0019921 a0     speed     :   0.2175954E-03

........................................................................
.............................. CYCLE   18 ..............................
........................................................................

 iter      E             dE          RMSdq      gap      omega  full diag
   1  -5198.5559883 -0.519856E+04  0.228E-04    4.09       0.0  T
   2  -5198.5559883 -0.101672E-07  0.161E-04    4.09      10.0  T
   3  -5198.5559882  0.250438E-07  0.701E-05    4.09      22.9  T
     SCC iter.                  ...       10 min, 34.865 sec
     gradient                   ...        5 min, 30.378 sec
 * total energy  : -5104.0352756 Eh     change    :  -0.1158454E-04 Eh
   gradient norm :     0.0044337 Eh/a0  converged?    E=F G=F D=F
   time step     :     0.2435896 fs     power     :   0.5690824E-09
   step length   :     0.0024739 a0     speed     :   0.2456652E-03

........................................................................
.............................. CYCLE   19 ..............................
........................................................................

 iter      E             dE          RMSdq      gap      omega  full diag
   1  -5198.5544441 -0.519855E+04  0.271E-04    4.09       0.0  T
   2  -5198.5544441 -0.136388E-07  0.192E-04    4.09       8.4  T
   3  -5198.5544441  0.379650E-07  0.841E-05    4.09      19.1  T
     SCC iter.                  ...       10 min, 34.584 sec
     gradient                   ...        5 min, 31.851 sec
 * total energy  : -5104.0352868 Eh     change    :  -0.1123681E-04 Eh
   gradient norm :     0.0036608 Eh/a0  converged?    E=F G=F D=F
   time step     :     0.2679486 fs     power     :   0.4793823E-09
   step length   :     0.0029978 a0     speed     :   0.2706201E-03

........................................................................
.............................. CYCLE   20 ..............................
........................................................................

 iter      E             dE          RMSdq      gap      omega  full diag
   1  -5198.5525674 -0.519855E+04  0.310E-04    4.09       0.0  T
   2  -5198.5525674 -0.165228E-07  0.220E-04    4.09       7.3  T
   3  -5198.5525673  0.547880E-07  0.976E-05    4.09      16.5  T
     SCC iter.                  ...       10 min, 35.623 sec
     gradient                   ...        5 min, 31.862 sec
 * total energy  : -5104.0352966 Eh     change    :  -0.9827128E-05 Eh
   gradient norm :     0.0030981 Eh/a0  converged?    E=F G=F D=F
   time step     :     0.2947435 fs     power     :   0.3539406E-09
   step length   :     0.0035346 a0     speed     :   0.2900740E-03
 * RMSD in coord.:     0.0011980 a0     energy gain  -0.6914420E-03 Eh

........................................................................
.............................. CYCLE   21 ..............................
........................................................................

 iter      E             dE          RMSdq      gap      omega  full diag
   1  -5198.5509005 -0.519855E+04  0.261E-04    4.09       0.0  T
   2  -5198.5509005 -0.971067E-08  0.182E-04    4.09       8.8  T
   3  -5198.5509005  0.411510E-07  0.814E-05    4.09      19.8  T
     SCC iter.                  ...       10 min, 34.296 sec
     gradient                   ...        5 min, 32.752 sec
 * total energy  : -5104.0353028 Eh     change    :  -0.6168379E-05 Eh
   gradient norm :     0.0029453 Eh/a0  converged?    E=F G=F D=F
   time step     :     0.2500000 fs     power     :   0.2583762E-09
   step length   :     0.0030622 a0     speed     :   0.2962818E-03

........................................................................
.............................. CYCLE   22 ..............................
........................................................................

 iter      E             dE          RMSdq      gap      omega  full diag
   1  -5198.5492316 -0.519855E+04  0.246E-04    4.09       0.0  T
   2  -5198.5492316 -0.729869E-08  0.170E-04    4.09       9.4  T
   3  -5198.5492316  0.390582E-07  0.782E-05    4.09      20.6  T
     SCC iter.                  ...       10 min, 35.837 sec
     gradient                   ...        5 min, 31.997 sec
 * total energy  : -5104.0353075 Eh     change    :  -0.4681850E-05 Eh
   gradient norm :     0.0030165 Eh/a0  converged?    E=T G=F D=F
   time step     :     0.2500000 fs     power     :   0.1936564E-09
   step length   :     0.0030412 a0     speed     :   0.2942541E-03

........................................................................
.............................. CYCLE   23 ..............................
........................................................................

 iter      E             dE          RMSdq      gap      omega  full diag
   1  -5198.5476361 -0.519855E+04  0.229E-04    4.09       0.0  T
   2  -5198.5476361 -0.501950E-08  0.154E-04    4.09      10.4  T
   3  -5198.5476360  0.307709E-07  0.697E-05    4.09      23.1  T
     SCC iter.                  ...       10 min, 36.208 sec
     gradient                   ...        5 min, 33.332 sec
 * total energy  : -5104.0353114 Eh     change    :  -0.3934553E-05 Eh
   gradient norm :     0.0031725 Eh/a0  converged?    E=T G=F D=F
   time step     :     0.2500000 fs     power     :   0.1654806E-09
   step length   :     0.0029614 a0     speed     :   0.2865315E-03

........................................................................
.............................. CYCLE   24 ..............................
........................................................................

 iter      E             dE          RMSdq      gap      omega  full diag
   1  -5198.5461744 -0.519855E+04  0.213E-04    4.09       0.0  T
   2  -5198.5461744 -0.319778E-08  0.138E-04    4.09      11.7  T
   3  -5198.5461744  0.176851E-07  0.542E-05    4.09      29.7  T
     SCC iter.                  ...       10 min, 36.205 sec
     gradient                   ...        5 min, 30.859 sec
 * total energy  : -5104.0353152 Eh     change    :  -0.3786321E-05 Eh
   gradient norm :     0.0033091 Eh/a0  converged?    E=T G=F D=F
   time step     :     0.2500000 fs     power     :   0.1681011E-09
   step length   :     0.0028616 a0     speed     :   0.2768738E-03

........................................................................
.............................. CYCLE   25 ..............................
........................................................................

 iter      E             dE          RMSdq      gap      omega  full diag
   1  -5198.5448877 -0.519854E+04  0.202E-04    4.09       0.0  T
   2  -5198.5448877 -0.220552E-08  0.125E-04    4.09      12.9  T
   3  -5198.5448877  0.520231E-08  0.320E-05    4.09      50.3  T
     SCC iter.                  ...       10 min, 34.160 sec
     gradient                   ...        5 min, 33.074 sec
 * total energy  : -5104.0353192 Eh     change    :  -0.4024536E-05 Eh
   gradient norm :     0.0033759 Eh/a0  converged?    E=T G=F D=F
   time step     :     0.2500000 fs     power     :   0.1903908E-09
   step length   :     0.0027731 a0     speed     :   0.2683165E-03

........................................................................
.............................. CYCLE   26 ..............................
........................................................................

 iter      E             dE          RMSdq      gap      omega  full diag
   1  -5198.5436948 -0.519854E+04  0.218E-04    4.09       0.0  T
   2  -5198.5436948 -0.191540E-08  0.130E-04    4.09      12.4  T
   3  -5198.5436948  0.116688E-08  0.215E-05    4.09      74.7  T
     SCC iter.                  ...       10 min, 36.520 sec
     gradient                   ...        5 min, 31.358 sec
 * total energy  : -5104.0353242 Eh     change    :  -0.4989736E-05 Eh
   gradient norm :     0.0033525 Eh/a0  converged?    E=T G=F D=F
   time step     :     0.2750000 fs     power     :   0.2208233E-09
   step length   :     0.0029965 a0     speed     :   0.2635704E-03

........................................................................
.............................. CYCLE   27 ..............................
........................................................................

 iter      E             dE          RMSdq      gap      omega  full diag
   1  -5198.5426516 -0.519854E+04  0.241E-04    4.09       0.0  T
   2  -5198.5426516 -0.205637E-08  0.142E-04    4.09      11.3  T
   3  -5198.5426516  0.301679E-08  0.287E-05    4.09      56.0  T
     SCC iter.                  ...       10 min, 37.097 sec
     gradient                   ...        5 min, 31.490 sec
 * total energy  : -5104.0353304 Eh     change    :  -0.6144147E-05 Eh
   gradient norm :     0.0032270 Eh/a0  converged?    E=F G=F D=F
   time step     :     0.3025000 fs     power     :   0.2500342E-09
   step length   :     0.0032952 a0     speed     :   0.2634909E-03

........................................................................
.............................. CYCLE   28 ..............................
........................................................................

 iter      E             dE          RMSdq      gap      omega  full diag
   1  -5198.5418204 -0.519854E+04  0.275E-04    4.09       0.0  T
   2  -5198.5418204 -0.307864E-08  0.162E-04    4.09       9.9  T
   3  -5198.5418204  0.119990E-07  0.502E-05    4.09      32.0  T
     SCC iter.                  ...       10 min, 39.179 sec
     gradient                   ...        5 min, 32.342 sec
 * total energy  : -5104.0353377 Eh     change    :  -0.7297641E-05 Eh
   gradient norm :     0.0030075 Eh/a0  converged?    E=F G=F D=F
   time step     :     0.3327500 fs     power     :   0.2694509E-09
   step length   :     0.0036858 a0     speed     :   0.2679326E-03

........................................................................
.............................. CYCLE   29 ..............................
........................................................................

 iter      E             dE          RMSdq      gap      omega  full diag
   1  -5198.5412692 -0.519854E+04  0.316E-04    4.09       0.0  T
   2  -5198.5412693 -0.471573E-08  0.189E-04    4.09       8.5  T
   3  -5198.5412692  0.302280E-07  0.778E-05    4.09      20.7  T
     SCC iter.                  ...       10 min, 34.795 sec
     gradient                   ...        5 min, 31.079 sec
 * total energy  : -5104.0353459 Eh     change    :  -0.8214257E-05 Eh
   gradient norm :     0.0027260 Eh/a0  converged?    E=F G=F D=F
   time step     :     0.3660250 fs     power     :   0.2725357E-09
   step length   :     0.0041760 a0     speed     :   0.2759728E-03

........................................................................
.............................. CYCLE   30 ..............................
........................................................................

 iter      E             dE          RMSdq      gap      omega  full diag
   1  -5198.5410662 -0.519854E+04  0.360E-04    4.09       0.0  T
   2  -5198.5410663 -0.682030E-08  0.219E-04    4.09       7.3  T
   3  -5198.5410662  0.519458E-07  0.101E-04    4.09      15.9  T
     SCC iter.                  ...       10 min, 36.329 sec
     gradient                   ...        5 min, 32.220 sec
 * total energy  : -5104.0353547 Eh     change    :  -0.8782256E-05 Eh
   gradient norm :     0.0024468 Eh/a0  converged?    E=F G=F D=F
   time step     :     0.4026275 fs     power     :   0.2571960E-09
   step length   :     0.0047609 a0     speed     :   0.2860237E-03

........................................................................
.............................. CYCLE   31 ..............................
........................................................................

 iter      E             dE          RMSdq      gap      omega  full diag
   1  -5198.5412631 -0.519854E+04  0.399E-04    4.09       0.0  T
   2  -5198.5412632 -0.825003E-08  0.245E-04    4.09       6.6  T
   3  -5198.5412631  0.683476E-07  0.115E-04    4.09      14.0  T
     SCC iter.                  ...       10 min, 36.128 sec
     gradient                   ...        5 min, 29.692 sec
 * total energy  : -5104.0353634 Eh     change    :  -0.8758300E-05 Eh
   gradient norm :     0.0022537 Eh/a0  converged?    E=F G=F D=F
   time step     :     0.4428903 fs     power     :   0.2283447E-09
   step length   :     0.0054200 a0     speed     :   0.2960163E-03

........................................................................
.............................. CYCLE   32 ..............................
........................................................................

 iter      E             dE          RMSdq      gap      omega  full diag
   1  -5198.5418655 -0.519854E+04  0.427E-04    4.09       0.0  T
   2  -5198.5418656 -0.905402E-08  0.261E-04    4.09       6.2  T
   3  -5198.5418655  0.695090E-07  0.115E-04    4.09      14.0  T
     SCC iter.                  ...       10 min, 38.788 sec
     gradient                   ...        5 min, 30.516 sec
 * total energy  : -5104.0353720 Eh     change    :  -0.8584426E-05 Eh
   gradient norm :     0.0021951 Eh/a0  converged?    E=F G=F D=F
   time step     :     0.4871793 fs     power     :   0.1975576E-09
   step length   :     0.0061204 a0     speed     :   0.3038833E-03

........................................................................
.............................. CYCLE   33 ..............................
........................................................................

 iter      E             dE          RMSdq      gap      omega  full diag
   1  -5198.5428063 -0.519854E+04  0.438E-04    4.09       0.0  T
   2  -5198.5428063 -0.863565E-08  0.264E-04    4.09       6.1  T
   3  -5198.5428063  0.447144E-07  0.921E-05    4.09      17.5  T
     SCC iter.                  ...       10 min, 35.150 sec
     gradient                   ...        5 min, 33.058 sec
 * total energy  : -5104.0353806 Eh     change    :  -0.8570139E-05 Eh
   gradient norm :     0.0022459 Eh/a0  converged?    E=F G=F D=F
   time step     :     0.5358972 fs     power     :   0.1776764E-09
   step length   :     0.0068402 a0     speed     :   0.3087448E-03

........................................................................
.............................. CYCLE   34 ..............................
........................................................................

 iter      E             dE          RMSdq      gap      omega  full diag
   1  -5198.5439475 -0.519854E+04  0.431E-04    4.09       0.0  T
   2  -5198.5439475 -0.809541E-08  0.256E-04    4.09       6.3  T
   3  -5198.5439475  0.992532E-08  0.499E-05    4.09      32.3  T
     SCC iter.                  ...       10 min, 37.137 sec
     gradient                   ...        5 min, 31.194 sec
 * total energy  : -5104.0353897 Eh     change    :  -0.9144793E-05 Eh
   gradient norm :     0.0023313 Eh/a0  converged?    E=F G=F D=F
   time step     :     0.5894869 fs     power     :   0.1765961E-09
   step length   :     0.0076013 a0     speed     :   0.3119082E-03

........................................................................
.............................. CYCLE   35 ..............................
........................................................................

 iter      E             dE          RMSdq      gap      omega  full diag
   1  -5198.5451030 -0.519855E+04  0.414E-04    4.09       0.0  T
   2  -5198.5451031 -0.679029E-08  0.250E-04    4.09       6.4  T
   3  -5198.5451030  0.114960E-07  0.504E-05    4.09      31.9  T
     SCC iter.                  ...       10 min, 37.572 sec
     gradient                   ...        5 min, 28.997 sec
 * total energy  : -5104.0354003 Eh     change    :  -0.1054362E-04 Eh
   gradient norm :     0.0023328 Eh/a0  converged?    E=F G=F D=F
   time step     :     0.6484356 fs     power     :   0.1925801E-09
   step length   :     0.0084780 a0     speed     :   0.3162566E-03

........................................................................
.............................. CYCLE   36 ..............................
........................................................................

 iter      E             dE          RMSdq      gap      omega  full diag
   1  -5198.5460530 -0.519855E+04  0.407E-04    4.09       0.0  T
   2  -5198.5460530 -0.613636E-08  0.251E-04    4.09       6.4  T
   3  -5198.5460530  0.211821E-07  0.629E-05    4.09      25.6  T
     SCC iter.                  ...       10 min, 33.564 sec
     gradient                   ...        5 min, 32.465 sec
 * total energy  : -5104.0354129 Eh     change    :  -0.1260921E-04 Eh
   gradient norm :     0.0021767 Eh/a0  converged?    E=F G=F D=F
   time step     :     0.7132792 fs     power     :   0.2093448E-09
   step length   :     0.0095691 a0     speed     :   0.3245093E-03

........................................................................
.............................. CYCLE   37 ..............................
........................................................................

 iter      E             dE          RMSdq      gap      omega  full diag
   1  -5198.5465611 -0.519855E+04  0.413E-04    4.09       0.0  T
   2  -5198.5465611 -0.915134E-08  0.262E-04    4.09       6.1  T
   3  -5198.5465611  0.528653E-07  0.941E-05    4.09      17.1  T
     SCC iter.                  ...       10 min, 33.844 sec
     gradient                   ...        5 min, 30.593 sec
 * total energy  : -5104.0354272 Eh     change    :  -0.1433426E-04 Eh
   gradient norm :     0.0020840 Eh/a0  converged?    E=F G=F D=F
   time step     :     0.7846071 fs     power     :   0.2114501E-09
   step length   :     0.0109293 a0     speed     :   0.3369406E-03

........................................................................
.............................. CYCLE   38 ..............................
........................................................................

 iter      E             dE          RMSdq      gap      omega  full diag
   1  -5198.5464387 -0.519855E+04  0.437E-04    4.09       0.0  T
   2  -5198.5464387 -0.118280E-07  0.272E-04    4.09       5.9  T
   3  -5198.5464387  0.452210E-07  0.903E-05    4.09      17.8  T
     SCC iter.                  ...       10 min, 37.670 sec
     gradient                   ...        5 min, 32.325 sec
 * total energy  : -5104.0354433 Eh     change    :  -0.1607089E-04 Eh
   gradient norm :     0.0022276 Eh/a0  converged?    E=F G=F D=F
   time step     :     0.8630678 fs     power     :   0.2214961E-09
   step length   :     0.0125191 a0     speed     :   0.3508670E-03

........................................................................
.............................. CYCLE   39 ..............................
........................................................................

 iter      E             dE          RMSdq      gap      omega  full diag
   1  -5198.5457840 -0.519855E+04  0.503E-04    4.09       0.0  T
   2  -5198.5457841 -0.118343E-07  0.302E-04    4.09       5.3  T
   3  -5198.5457840  0.187993E-07  0.653E-05    4.09      24.6  T
     SCC iter.                  ...       10 min, 36.170 sec
     gradient                   ...        5 min, 32.397 sec
 * total energy  : -5104.0354632 Eh     change    :  -0.1993410E-04 Eh
   gradient norm :     0.0021711 Eh/a0  converged?    E=F G=F D=F
   time step     :     0.9493746 fs     power     :   0.2579113E-09
   step length   :     0.0144045 a0     speed     :   0.3670075E-03

........................................................................
.............................. CYCLE   40 ..............................
........................................................................

 iter      E             dE          RMSdq      gap      omega  full diag
   1  -5198.5451799 -0.519855E+04  0.585E-04    4.09       0.0  T
   2  -5198.5451799 -0.153559E-07  0.356E-04    4.09       4.5  T
   3  -5198.5451799  0.440714E-07  0.932E-05    4.09      17.3  T
     SCC iter.                  ...       10 min, 34.209 sec
     gradient                   ...        5 min, 31.460 sec
 * total energy  : -5104.0354872 Eh     change    :  -0.2396358E-04 Eh
   gradient norm :     0.0018997 Eh/a0  converged?    E=F G=F D=F
   time step     :     1.0443120 fs     power     :   0.2747113E-09
   step length   :     0.0168426 a0     speed     :   0.3901173E-03

........................................................................
.............................. CYCLE   41 ..............................
........................................................................

 iter      E             dE          RMSdq      gap      omega  full diag
   1  -5198.5456690 -0.519855E+04  0.620E-04    4.09       0.0  T
   2  -5198.5456691 -0.172249E-07  0.382E-04    4.09       4.2  T
   3  -5198.5456690  0.635127E-07  0.110E-04    4.09      14.6  T
     SCC iter.                  ...       10 min, 34.407 sec
     gradient                   ...        5 min, 31.997 sec
 * total energy  : -5104.0355133 Eh     change    :  -0.2614037E-04 Eh
   gradient norm :     0.0020296 Eh/a0  converged?    E=F G=F D=F
   time step     :     1.1487432 fs     power     :   0.2668351E-09
   step length   :     0.0198128 a0     speed     :   0.4171942E-03

........................................................................
.............................. CYCLE   42 ..............................
........................................................................

 iter      E             dE          RMSdq      gap      omega  full diag
   1  -5198.5475447 -0.519855E+04  0.669E-04    4.09       0.0  T
   2  -5198.5475447 -0.123100E-07  0.397E-04    4.09       4.1  T
   3  -5198.5475447  0.122782E-07  0.598E-05    4.09      26.9  T
     SCC iter.                  ...       10 min, 36.220 sec
     gradient                   ...        5 min, 31.490 sec
 * total energy  : -5104.0355443 Eh     change    :  -0.3095523E-04 Eh
   gradient norm :     0.0020808 Eh/a0  converged?    E=F G=F D=F
   time step     :     1.2500000 fs     power     :   0.3082127E-09
   step length   :     0.0228280 a0     speed     :   0.4417469E-03
 * RMSD in coord.:     0.0025005 a0     energy gain  -0.2476326E-03 Eh

........................................................................
.............................. CYCLE   43 ..............................
........................................................................

 iter      E             dE          RMSdq      gap      omega  full diag
   1  -5198.5478900 -0.519855E+04  0.132E-04    4.09       0.0  T
   2  -5198.5478900 -0.489308E-09  0.780E-05    4.09      20.6  T
   3  -5198.5478900  0.139244E-08  0.192E-05    4.09      83.8  T
     SCC iter.                  ...       10 min, 34.172 sec
     gradient                   ...        5 min, 32.211 sec
 * total energy  : -5104.0355506 Eh     change    :  -0.6380435E-05 Eh
   gradient norm :     0.0020047 Eh/a0  converged?    E=F G=F D=F
   time step     :     0.2500000 fs     power     :   0.3340452E-09
   step length   :     0.0044861 a0     speed     :   0.4340508E-03

........................................................................
.............................. CYCLE   44 ..............................
........................................................................

 iter      E             dE          RMSdq      gap      omega  full diag
   1  -5198.5481851 -0.519855E+04  0.142E-04    4.09       0.0  T
   2  -5198.5481851 -0.834916E-09  0.850E-05    4.09      18.9  T
   3  -5198.5481851  0.333421E-08  0.265E-05    4.09      60.7  T
     SCC iter.                  ...       10 min, 35.714 sec
     gradient                   ...        5 min, 31.559 sec
 * total energy  : -5104.0355573 Eh     change    :  -0.6674078E-05 Eh
   gradient norm :     0.0018279 Eh/a0  converged?    E=F G=F D=F
   time step     :     0.2500000 fs     power     :   0.3473586E-09
   step length   :     0.0044520 a0     speed     :   0.4307556E-03

........................................................................
.............................. CYCLE   45 ..............................
........................................................................

 iter      E             dE          RMSdq      gap      omega  full diag
   1  -5198.5484180 -0.519855E+04  0.157E-04    4.09       0.0  T
   2  -5198.5484180 -0.119780E-08  0.951E-05    4.09      16.9  T
   3  -5198.5484180  0.468299E-08  0.310E-05    4.09      51.9  T
     SCC iter.                  ...       10 min, 36.348 sec
     gradient                   ...        5 min, 33.158 sec
 * total energy  : -5104.0355640 Eh     change    :  -0.6692538E-05 Eh
   gradient norm :     0.0016232 Eh/a0  converged?    E=F G=F D=F
   time step     :     0.2500000 fs     power     :   0.3439257E-09
   step length   :     0.0044631 a0     speed     :   0.4318241E-03

........................................................................
.............................. CYCLE   46 ..............................
........................................................................

 iter      E             dE          RMSdq      gap      omega  full diag
   1  -5198.5485867 -0.519855E+04  0.168E-04    4.09       0.0  T
   2  -5198.5485867 -0.154978E-08  0.103E-04    4.09      15.7  T
   3  -5198.5485867  0.566979E-08  0.331E-05    4.09      48.5  T
     SCC iter.                  ...       10 min, 35.582 sec
     gradient                   ...        5 min, 31.387 sec
 * total energy  : -5104.0355704 Eh     change    :  -0.6411056E-05 Eh
   gradient norm :     0.0014859 Eh/a0  converged?    E=F G=F D=F
   time step     :     0.2500000 fs     power     :   0.3281044E-09
   step length   :     0.0045075 a0     speed     :   0.4361268E-03

........................................................................
.............................. CYCLE   47 ..............................
........................................................................

 iter      E             dE          RMSdq      gap      omega  full diag
   1  -5198.5486994 -0.519855E+04  0.169E-04    4.09       0.0  T
   2  -5198.5486994 -0.140335E-08  0.103E-04    4.09      15.6  T
   3  -5198.5486994  0.520777E-08  0.310E-05    4.09      51.8  T
     SCC iter.                  ...       10 min, 34.593 sec
     gradient                   ...        5 min, 31.996 sec
 * total energy  : -5104.0355765 Eh     change    :  -0.6118611E-05 Eh
   gradient norm :     0.0014727 Eh/a0  converged?    E=F G=F D=F
   time step     :     0.2500000 fs     power     :   0.3108415E-09
   step length   :     0.0045579 a0     speed     :   0.4409966E-03

........................................................................
.............................. CYCLE   48 ..............................
........................................................................

 iter      E             dE          RMSdq      gap      omega  full diag
   1  -5198.5487790 -0.519855E+04  0.176E-04    4.09       0.0  T
   2  -5198.5487790 -0.136424E-08  0.107E-04    4.09      15.1  T
   3  -5198.5487790  0.427281E-08  0.281E-05    4.09      57.2  T
     SCC iter.                  ...       10 min, 36.073 sec
     gradient                   ...        5 min, 29.502 sec
 * total energy  : -5104.0355830 Eh     change    :  -0.6455879E-05 Eh
   gradient norm :     0.0015545 Eh/a0  converged?    E=F G=F D=F
   time step     :     0.2750000 fs     power     :   0.3012900E-09
   step length   :     0.0050495 a0     speed     :   0.4441505E-03

........................................................................
.............................. CYCLE   49 ..............................
........................................................................

 iter      E             dE          RMSdq      gap      omega  full diag
   1  -5198.5488365 -0.519855E+04  0.174E-04    4.09       0.0  T
   2  -5198.5488365 -0.876753E-09  0.104E-04    4.09      15.5  T
   3  -5198.5488365  0.214368E-08  0.208E-05    4.09      77.5  T
     SCC iter.                  ...       10 min, 33.679 sec
     gradient                   ...        5 min, 37.074 sec
 * total energy  : -5104.0355901 Eh     change    :  -0.7125699E-05 Eh
   gradient norm :     0.0016476 Eh/a0  converged?    E=F G=F D=F
   time step     :     0.3025000 fs     power     :   0.3046865E-09
   step length   :     0.0055635 a0     speed     :   0.4448745E-03

........................................................................
.............................. CYCLE   50 ..............................
........................................................................

 iter      E             dE          RMSdq      gap      omega  full diag
   1  -5198.5488753 -0.519855E+04  0.172E-04    4.09       0.0  T
   2  -5198.5488753 -0.622094E-09  0.102E-04    4.09      15.8  T
   3  -5198.5488753  0.735781E-09  0.143E-05    4.09     112.2  T
     SCC iter.                  ...       10 min, 35.456 sec
     gradient                   ...        5 min, 34.663 sec
 * total energy  : -5104.0355982 Eh     change    :  -0.8066187E-05 Eh
   gradient norm :     0.0016733 Eh/a0  converged?    E=F G=F D=F
   time step     :     0.3327500 fs     power     :   0.3175401E-09
   step length   :     0.0061248 a0     speed     :   0.4452367E-03

........................................................................
.............................. CYCLE   51 ..............................
........................................................................

 iter      E             dE          RMSdq      gap      omega  full diag
   1  -5198.5488830 -0.519855E+04  0.179E-04    4.09       0.0  T
   2  -5198.5488830 -0.532054E-09  0.106E-04    4.09      15.1  T
   3  -5198.5488830  0.125783E-08  0.177E-05    4.09      91.1  T
     SCC iter.                  ...       10 min, 37.352 sec
     gradient                   ...        5 min, 32.789 sec
 * total energy  : -5104.0356075 Eh     change    :  -0.9266069E-05 Eh
   gradient norm :     0.0016027 Eh/a0  converged?    E=F G=F D=F
   time step     :     0.3660250 fs     power     :   0.3304005E-09
   step length   :     0.0067767 a0     speed     :   0.4478369E-03

........................................................................
.............................. CYCLE   52 ..............................
........................................................................

 iter      E             dE          RMSdq      gap      omega  full diag
   1  -5198.5488251 -0.519855E+04  0.200E-04    4.09       0.0  T
   2  -5198.5488251 -0.119780E-08  0.121E-04    4.09      13.3  T
   3  -5198.5488251  0.465297E-08  0.300E-05    4.09      53.7  T
     SCC iter.                  ...       10 min, 31.954 sec
     gradient                   ...        5 min, 32.212 sec
 * total energy  : -5104.0356178 Eh     change    :  -0.1034567E-04 Eh
   gradient norm :     0.0014815 Eh/a0  converged?    E=F G=F D=F
   time step     :     0.4026275 fs     power     :   0.3345616E-09
   step length   :     0.0075616 a0     speed     :   0.4542810E-03

........................................................................
.............................. CYCLE   53 ..............................
........................................................................

 iter      E             dE          RMSdq      gap      omega  full diag
   1  -5198.5486501 -0.519855E+04  0.228E-04    4.09       0.0  T
   2  -5198.5486501 -0.199543E-08  0.140E-04    4.09      11.5  T
   3  -5198.5486501  0.885666E-08  0.404E-05    4.09      39.8  T
     SCC iter.                  ...       10 min, 36.074 sec
     gradient                   ...        5 min, 31.110 sec
 * total energy  : -5104.0356292 Eh     change    :  -0.1136706E-04 Eh
   gradient norm :     0.0014205 Eh/a0  converged?    E=F G=F D=F
   time step     :     0.4428903 fs     power     :   0.3297749E-09
   step length   :     0.0085023 a0     speed     :   0.4643615E-03

........................................................................
.............................. CYCLE   54 ..............................
........................................................................

 iter      E             dE          RMSdq      gap      omega  full diag
   1  -5198.5483238 -0.519855E+04  0.252E-04    4.09       0.0  T
   2  -5198.5483238 -0.220189E-08  0.154E-04    4.09      10.5  T
   3  -5198.5483238  0.862201E-08  0.401E-05    4.09      40.1  T
     SCC iter.                  ...       10 min, 38.343 sec
     gradient                   ...        5 min, 31.771 sec
 * total energy  : -5104.0356415 Eh     change    :  -0.1232228E-04 Eh
   gradient norm :     0.0014646 Eh/a0  converged?    E=F G=F D=F
   time step     :     0.4871793 fs     power     :   0.3264331E-09
   step length   :     0.0095752 a0     speed     :   0.4754187E-03

........................................................................
.............................. CYCLE   55 ..............................
........................................................................

 iter      E             dE          RMSdq      gap      omega  full diag
   1  -5198.5478911 -0.519855E+04  0.268E-04    4.09       0.0  T
   2  -5198.5478911 -0.167165E-08  0.160E-04    4.09      10.1  T
   3  -5198.5478910  0.350519E-08  0.285E-05    4.09      56.5  T
     SCC iter.                  ...       10 min, 33.965 sec
     gradient                   ...        5 min, 32.415 sec
 * total energy  : -5104.0356552 Eh     change    :  -0.1372918E-04 Eh
   gradient norm :     0.0015233 Eh/a0  converged?    E=F G=F D=F
   time step     :     0.5358972 fs     power     :   0.3334088E-09
   step length   :     0.0107508 a0     speed     :   0.4852609E-03

........................................................................
.............................. CYCLE   56 ..............................
........................................................................

 iter      E             dE          RMSdq      gap      omega  full diag
   1  -5198.5475007 -0.519855E+04  0.285E-04    4.09       0.0  T
   2  -5198.5475007 -0.158070E-08  0.168E-04    4.09       9.6  T
   3  -5198.5475007  0.348336E-08  0.284E-05    4.09      56.7  T
     SCC iter.                  ...       10 min, 34.764 sec
     gradient                   ...        5 min, 35.864 sec
 * total energy  : -5104.0356709 Eh     change    :  -0.1568426E-04 Eh
   gradient norm :     0.0015152 Eh/a0  converged?    E=F G=F D=F
   time step     :     0.5894869 fs     power     :   0.3477050E-09
   step length   :     0.0120738 a0     speed     :   0.4954335E-03

........................................................................
.............................. CYCLE   57 ..............................
........................................................................

 iter      E             dE          RMSdq      gap      omega  full diag
   1  -5198.5473771 -0.519855E+04  0.317E-04    4.09       0.0  T
   2  -5198.5473771 -0.206182E-08  0.190E-04    4.09       8.5  T
   3  -5198.5473771  0.113723E-07  0.455E-05    4.09      35.4  T
     SCC iter.                  ...       10 min, 37.452 sec
     gradient                   ...        5 min, 32.174 sec
 * total energy  : -5104.0356889 Eh     change    :  -0.1795274E-04 Eh
   gradient norm :     0.0014279 Eh/a0  converged?    E=F G=F D=F
   time step     :     0.6484356 fs     power     :   0.3593226E-09
   step length   :     0.0136313 a0     speed     :   0.5084925E-03

........................................................................
.............................. CYCLE   58 ..............................
........................................................................

 iter      E             dE          RMSdq      gap      omega  full diag
   1  -5198.5477188 -0.519855E+04  0.363E-04    4.09       0.0  T
   2  -5198.5477188 -0.315049E-08  0.219E-04    4.09       7.3  T
   3  -5198.5477188  0.209957E-07  0.615E-05    4.09      26.2  T
     SCC iter.                  ...       10 min, 36.975 sec
     gradient                   ...        5 min, 32.487 sec
 * total energy  : -5104.0357088 Eh     change    :  -0.1998995E-04 Eh
   gradient norm :     0.0013963 Eh/a0  converged?    E=F G=F D=F
   time step     :     0.7132792 fs     power     :   0.3623749E-09
   step length   :     0.0155011 a0     speed     :   0.5256755E-03

........................................................................
.............................. CYCLE   59 ..............................
........................................................................

 iter      E             dE          RMSdq      gap      omega  full diag
   1  -5198.5484809 -0.519855E+04  0.394E-04    4.09       0.0  T
   2  -5198.5484809 -0.283308E-08  0.234E-04    4.09       6.9  T
   3  -5198.5484809  0.784439E-08  0.408E-05    4.09      39.4  T
     SCC iter.                  ...       10 min, 35.108 sec
     gradient                   ...        5 min, 33.310 sec
 * total energy  : -5104.0357312 Eh     change    :  -0.2237150E-04 Eh
   gradient norm :     0.0014723 Eh/a0  converged?    E=F G=F D=F
   time step     :     0.7846071 fs     power     :   0.3714293E-09
   step length   :     0.0176531 a0     speed     :   0.5442315E-03

........................................................................
.............................. CYCLE   60 ..............................
........................................................................

 iter      E             dE          RMSdq      gap      omega  full diag
   1  -5198.5493184 -0.519855E+04  0.427E-04    4.09       0.0  T
   2  -5198.5493184 -0.299951E-08  0.252E-04    4.09       6.4  T
   3  -5198.5493184  0.122927E-07  0.502E-05    4.09      32.0  T
     SCC iter.                  ...       10 min, 36.443 sec
     gradient                   ...        5 min, 33.614 sec
 * total energy  : -5104.0357570 Eh     change    :  -0.2579019E-04 Eh
   gradient norm :     0.0014222 Eh/a0  converged?    E=F G=F D=F
   time step     :     0.8630678 fs     power     :   0.3900430E-09
   step length   :     0.0200744 a0     speed     :   0.5626169E-03

........................................................................
.............................. CYCLE   61 ..............................
........................................................................

 iter      E             dE          RMSdq      gap      omega  full diag
   1  -5198.5498579 -0.519855E+04  0.490E-04    4.09       0.0  T
   2  -5198.5498579 -0.484397E-08  0.291E-04    4.09       5.5  T
   3  -5198.5498579  0.217060E-07  0.636E-05    4.09      25.3  T
     SCC iter.                  ...       10 min, 38.364 sec
     gradient                   ...        5 min, 33.838 sec
 * total energy  : -5104.0357863 Eh     change    :  -0.2929726E-04 Eh
   gradient norm :     0.0014130 Eh/a0  converged?    E=F G=F D=F
   time step     :     0.9493746 fs     power     :   0.3991186E-09
   step length   :     0.0229791 a0     speed     :   0.5854768E-03

........................................................................
.............................. CYCLE   62 ..............................
........................................................................

 iter      E             dE          RMSdq      gap      omega  full diag
   1  -5198.5499822 -0.519855E+04  0.548E-04    4.09       0.0  T
   2  -5198.5499822 -0.625460E-08  0.324E-04    4.09       5.0  T
   3  -5198.5499822  0.162127E-07  0.602E-05    4.09      26.7  T
     SCC iter.                  ...       10 min, 34.780 sec
     gradient                   ...        5 min, 32.785 sec
 * total energy  : -5104.0358190 Eh     change    :  -0.3273101E-04 Eh
   gradient norm :     0.0015429 Eh/a0  converged?    E=F G=F D=F
   time step     :     1.0443120 fs     power     :   0.4058498E-09
   step length   :     0.0263399 a0     speed     :   0.6100981E-03

........................................................................
.............................. CYCLE   63 ..............................
........................................................................

 iter      E             dE          RMSdq      gap      omega  full diag
   1  -5198.5497388 -0.519855E+04  0.601E-04    4.09       0.0  T
   2  -5198.5497388 -0.744876E-08  0.356E-04    4.09       4.5  T
   3  -5198.5497387  0.269101E-07  0.736E-05    4.09      21.9  T
     SCC iter.                  ...       10 min, 37.264 sec
     gradient                   ...        5 min, 32.088 sec
 * total energy  : -5104.0358571 Eh     change    :  -0.3804836E-04 Eh
   gradient norm :     0.0013818 Eh/a0  converged?    E=F G=F D=F
   time step     :     1.1487432 fs     power     :   0.4310199E-09
   step length   :     0.0300642 a0     speed     :   0.6330562E-03

........................................................................
.............................. CYCLE   64 ..............................
........................................................................

 iter      E             dE          RMSdq      gap      omega  full diag
   1  -5198.5495305 -0.519855E+04  0.698E-04    4.09       0.0  T
   2  -5198.5495306 -0.110058E-07  0.416E-04    4.09       3.9  T
   3  -5198.5495305  0.554392E-07  0.101E-04    4.09      16.0  T
     SCC iter.                  ...       10 min, 36.297 sec
     gradient                   ...        5 min, 31.727 sec
 * total energy  : -5104.0358994 Eh     change    :  -0.4234834E-04 Eh
   gradient norm :     0.0014720 Eh/a0  converged?    E=F G=F D=F
   time step     :     1.2500000 fs     power     :   0.4373869E-09
   step length   :     0.0343141 a0     speed     :   0.6640147E-03

........................................................................
.............................. CYCLE   65 ..............................
........................................................................

 iter      E             dE          RMSdq      gap      omega  full diag
   1  -5198.5500880 -0.519855E+04  0.715E-04    4.09       0.0  T
   2  -5198.5500880 -0.103300E-07  0.421E-04    4.09       3.8  T
   3  -5198.5500880  0.244763E-07  0.756E-05    4.09      21.3  T
     SCC iter.                  ...       10 min, 36.278 sec
     gradient                   ...        5 min, 31.418 sec
 * total energy  : -5104.0359437 Eh     change    :  -0.4426087E-04 Eh
   gradient norm :     0.0014165 Eh/a0  converged?    E=F G=F D=F
   time step     :     1.2500000 fs     power     :   0.4578221E-09
   step length   :     0.0356600 a0     speed     :   0.6900586E-03

........................................................................
.............................. CYCLE   66 ..............................
........................................................................

 iter      E             dE          RMSdq      gap      omega  full diag
   1  -5198.5507397 -0.519855E+04  0.741E-04    4.09       0.0  T
   2  -5198.5507397 -0.108312E-07  0.440E-04    4.09       3.7  T
   3  -5198.5507397  0.443015E-07  0.931E-05    4.09      17.3  T
     SCC iter.                  ...       10 min, 37.913 sec
     gradient                   ...        5 min, 33.472 sec
 * total energy  : -5104.0359892 Eh     change    :  -0.4548365E-04 Eh
   gradient norm :     0.0013655 Eh/a0  converged?    E=F G=F D=F
   time step     :     1.2500000 fs     power     :   0.4711951E-09
   step length   :     0.0370900 a0     speed     :   0.7177314E-03

........................................................................
.............................. CYCLE   67 ..............................
........................................................................

 iter      E             dE          RMSdq      gap      omega  full diag
   1  -5198.5509039 -0.519855E+04  0.760E-04    4.09       0.0  T
   2  -5198.5509039 -0.127402E-07  0.448E-04    4.09       3.6  T
   3  -5198.5509039  0.264999E-07  0.807E-05    4.09      19.9  T
     SCC iter.                  ...       10 min, 35.879 sec
     gradient                   ...        5 min, 31.824 sec
 * total energy  : -5104.0360356 Eh     change    :  -0.4645251E-04 Eh
   gradient norm :     0.0014846 Eh/a0  converged?    E=F G=F D=F
   time step     :     1.2500000 fs     power     :   0.4814028E-09
   step length   :     0.0385417 a0     speed     :   0.7458241E-03
 * RMSD in coord.:     0.0061482 a0     energy gain  -0.4913654E-03 Eh

........................................................................
.............................. CYCLE   68 ..............................
........................................................................

 iter      E             dE          RMSdq      gap      omega  full diag
   1  -5198.5509569 -0.519855E+04  0.149E-04    4.09       0.0  T
   2  -5198.5509569 -0.343789E-09  0.878E-05    4.09      18.3  T
   3  -5198.5509569  0.167347E-08  0.201E-05    4.09      80.2  T
     SCC iter.                  ...       10 min, 36.897 sec
     gradient                   ...        5 min, 32.762 sec
 * total energy  : -5104.0360451 Eh     change    :  -0.9441157E-05 Eh
   gradient norm :     0.0014058 Eh/a0  converged?    E=F G=F D=F
   time step     :     0.2500000 fs     power     :   0.4970474E-09
   step length   :     0.0076353 a0     speed     :   0.7387576E-03

........................................................................
.............................. CYCLE   69 ..............................
........................................................................

 iter      E             dE          RMSdq      gap      omega  full diag
   1  -5198.5510399 -0.519855E+04  0.160E-04    4.09       0.0  T
   2  -5198.5510399 -0.140608E-08  0.956E-05    4.09      16.8  T
   3  -5198.5510399  0.397085E-08  0.303E-05    4.09      53.1  T
     SCC iter.                  ...       10 min, 34.494 sec
     gradient                   ...        5 min, 31.609 sec
 * total energy  : -5104.0360544 Eh     change    :  -0.9377352E-05 Eh
   gradient norm :     0.0012824 Eh/a0  converged?    E=F G=F D=F
   time step     :     0.2500000 fs     power     :   0.4962207E-09
   step length   :     0.0076210 a0     speed     :   0.7373716E-03

........................................................................
.............................. CYCLE   70 ..............................
........................................................................

 iter      E             dE          RMSdq      gap      omega  full diag
   1  -5198.5511334 -0.519855E+04  0.166E-04    4.09       0.0  T
   2  -5198.5511334 -0.153250E-08  0.995E-05    4.09      16.2  T
   3  -5198.5511334  0.296950E-08  0.263E-05    4.09      61.1  T
     SCC iter.                  ...       10 min, 34.321 sec
     gradient                   ...        5 min, 32.795 sec
 * total energy  : -5104.0360637 Eh     change    :  -0.9295304E-05 Eh
   gradient norm :     0.0012745 Eh/a0  converged?    E=F G=F D=F
   time step     :     0.2500000 fs     power     :   0.4860153E-09
   step length   :     0.0076637 a0     speed     :   0.7415021E-03

........................................................................
.............................. CYCLE   71 ..............................
........................................................................

 iter      E             dE          RMSdq      gap      omega  full diag
   1  -5198.5512143 -0.519855E+04  0.160E-04    4.09       0.0  T
   2  -5198.5512143 -0.969521E-09  0.955E-05    4.09      16.8  T
[...]
  3613   6 C     3614   6 C                                       1.3842554
  3615   6 C     3616   6 C                                       1.5352586
  3617   6 C     3618   6 C                                       1.3905464
  3618   6 C     3619   6 C                                       1.3828067
  3619   6 C     3620   6 C                                       1.3842573
  3620   6 C     3621   6 C                                       1.3832717
  3617   6 C     3622   6 C                                       1.3893716
  3621   6 C     3622   6 C                                       1.3832527
  3616   6 C     3623   6 C                                       1.5373979
  3623   6 C     3624   6 C                                       1.5384117
  3625   6 C     3626   6 C                                       1.3891677
  3626   6 C     3627   6 C                                       1.3832095
  3627   6 C     3628   6 C                                       1.3833148
  3628   6 C     3629   6 C                                       1.3839965
  3625   6 C     3630   6 C                                       1.3893872
  3629   6 C     3630   6 C                                       1.3834137
  3624   6 C     3631   6 C                                       1.5356361
  3631   6 C     3632   6 C                                       1.5374039
  3633   6 C     3634   6 C                                       1.3894750
  3634   6 C     3635   6 C                                       1.3840657
  3635   6 C     3636   6 C                                       1.3843700
  3636   6 C     3637   6 C                                       1.3838156
  3633   6 C     3638   6 C                                       1.3905846
  3637   6 C     3638   6 C                                       1.3832490
  3632   6 C     3639   6 C                                       1.5374743
  3639   6 C     3640   6 C                                       1.5376740
  3641   6 C     3642   6 C                                       1.3897655
  3642   6 C     3643   6 C                                       1.3847326
  3643   6 C     3644   6 C                                       1.3837484
  3644   6 C     3645   6 C                                       1.3856707
  3641   6 C     3646   6 C                                       1.3921524
  3645   6 C     3646   6 C                                       1.3833298
  3649   6 C     3650   6 C                                       1.3881308
  3650   6 C     3651   6 C                                       1.3844820
  3651   6 C     3652   6 C                                       1.3827849
  3652   6 C     3653   6 C                                       1.3850026
  3649   6 C     3654   6 C                                       1.3904682
  3653   6 C     3654   6 C                                       1.3822224
  3648   6 C     3655   6 C                                       1.5397830
  3655   6 C     3656   6 C                                       1.5395400
  3657   6 C     3658   6 C                                       1.3909122
  3658   6 C     3659   6 C                                       1.3827150
  3659   6 C     3660   6 C                                       1.3848187
  3660   6 C     3661   6 C                                       1.3834083
  3657   6 C     3662   6 C                                       1.3894712
  3661   6 C     3662   6 C                                       1.3842089
  3656   6 C     3663   6 C                                       1.5339116
  3665   6 C     3666   6 C                                       1.3901071
  3666   6 C     3667   6 C                                       1.3825394
  3667   6 C     3668   6 C                                       1.3843480
  3668   6 C     3669   6 C                                       1.3835663
  3665   6 C     3670   6 C                                       1.3891859
  3669   6 C     3670   6 C                                       1.3833711
  3664   6 C     3671   6 C                                       1.5316609
  3671   6 C     3672   6 C                                       1.5352164
  3673   6 C     3674   6 C                                       1.3898324
  3674   6 C     3675   6 C                                       1.3842982
  3675   6 C     3676   6 C                                       1.3837582
  3676   6 C     3677   6 C                                       1.3850229
  3673   6 C     3678   6 C                                       1.3909797
  3677   6 C     3678   6 C                                       1.3825357
  3672   6 C     3679   6 C                                       1.5367573
  3679   6 C     3680   6 C                                       1.5403125
  3681   6 C     3682   6 C                                       1.3900789
  3682   6 C     3683   6 C                                       1.3833597
  3683   6 C     3684   6 C                                       1.3842064
  3684   6 C     3685   6 C                                       1.3839097
  3681   6 C     3686   6 C                                       1.3891266
  3685   6 C     3686   6 C                                       1.3838094
  3680   6 C     3687   6 C                                       1.5314505
  3687   6 C     3688   6 C                                       1.5352448
  3549   6 C     3689   1 H                                       1.0958502
  3551   6 C     3690   1 H                                       1.0926387
  3551   6 C     3691   1 H                                       1.0928889
  3552   6 C     3692   1 H                                       1.0953498
  3559   6 C     3693   1 H                                       1.0911934
  3559   6 C     3694   1 H                                       1.0895697
  3560   6 C     3695   1 H                                       1.0949504
  3567   6 C     3696   1 H                                       1.0925150
  3567   6 C     3697   1 H                                       1.0923383
  3568   6 C     3698   1 H                                       1.0943597
  3575   6 C     3699   1 H                                       1.0908919
  3576   6 C     3700   1 H                                       1.0953537
  3583   6 C     3701   1 H                                       1.0907310
  3583   6 C     3702   1 H                                       1.0901617
  3584   6 C     3703   1 H                                       1.0952809
  3591   6 C     3704   1 H                                       1.0923864
  3591   6 C     3705   1 H                                       1.0932305
  3592   6 C     3706   1 H                                       1.0940737
  3599   6 C     3707   1 H                                       1.0901394
  3599   6 C     3708   1 H                                       1.0923629
  3600   6 C     3709   1 H                                       1.0928002
  3608   6 C     3710   1 H                                       1.0949346
  3615   6 C     3711   1 H                                       1.0896583
  3615   6 C     3712   1 H                                       1.0924302
  3616   6 C     3713   1 H                                       1.0940809
  3623   6 C     3714   1 H                                       1.0937454
  3623   6 C     3715   1 H                                       1.0927747
  3624   6 C     3716   1 H                                       1.0951617
  3631   6 C     3717   1 H                                       1.0924684
  3631   6 C     3718   1 H                                       1.0906079
  3632   6 C     3719   1 H                                       1.0928455
  3639   6 C     3720   1 H                                       1.0922971
  3639   6 C     3721   1 H                                       1.0932312
  3640   6 C     3722   1 H                                       1.0941340
  3647   6 C     3723   1 H                                       1.0923504
  3647   6 C     3724   1 H                                       1.0914914
  3648   6 C     3725   1 H                                       1.0945172
  3655   6 C     3726   1 H                                       1.0922326
  3655   6 C     3727   1 H                                       1.0925758
  3656   6 C     3728   1 H                                       1.0953567
  3663   6 C     3729   1 H                                       1.0914705
  3663   6 C     3730   1 H                                       1.0927892
  3664   6 C     3731   1 H                                       1.0954377
  3671   6 C     3732   1 H                                       1.0911663
  3671   6 C     3733   1 H                                       1.0909921
  3672   6 C     3734   1 H                                       1.0943872
  3679   6 C     3735   1 H                                       1.0929785
  3679   6 C     3736   1 H                                       1.0916550
  3543   6 C     3737   1 H                                       1.0809357
  3548   6 C     3738   1 H                                       1.0799188
  3547   6 C     3739   1 H                                       1.0798353
  3546   6 C     3740   1 H                                       1.0808897
  3545   6 C     3741   1 H                                       1.0799779
  3554   6 C     3742   1 H                                       1.0807503
  3555   6 C     3743   1 H                                       1.0803895
  3556   6 C     3744   1 H                                       1.0808151
  3557   6 C     3745   1 H                                       1.0785520
  3558   6 C     3746   1 H                                       1.0806849
  3562   6 C     3747   1 H                                       1.0804618
  3563   6 C     3748   1 H                                       1.0798198
  3564   6 C     3749   1 H                                       1.0802339
  3565   6 C     3750   1 H                                       1.0804607
  3566   6 C     3751   1 H                                       1.0816029
  3570   6 C     3752   1 H                                       1.0797578
  3571   6 C     3753   1 H                                       1.0806281
  3572   6 C     3754   1 H                                       1.0793092
  3573   6 C     3755   1 H                                       1.0807725
  3574   6 C     3756   1 H                                       1.0809452
  3575   6 C     3757   1 H                                       1.0919191
  3578   6 C     3758   1 H                                       1.0804585
  3579   6 C     3759   1 H                                       1.0799900
  3580   6 C     3760   1 H                                       1.0808396
  3581   6 C     3761   1 H                                       1.0818774
  3582   6 C     3762   1 H                                       1.0807930
  3586   6 C     3763   1 H                                       1.0803681
  3587   6 C     3764   1 H                                       1.0804638
  3588   6 C     3765   1 H                                       1.0804285
  3589   6 C     3766   1 H                                       1.0800860
  3590   6 C     3767   1 H                                       1.0795304
  3594   6 C     3768   1 H                                       1.0795878
  3595   6 C     3769   1 H                                       1.0801175
  3596   6 C     3770   1 H                                       1.0793193
  3597   6 C     3771   1 H                                       1.0801836
  3598   6 C     3772   1 H                                       1.0806592
  3602   6 C     3773   1 H                                       1.0801774
  3603   6 C     3774   1 H                                       1.0798035
  3604   6 C     3775   1 H                                       1.0774474 (min)
  3605   6 C     3776   1 H                                       1.0806991
  3606   6 C     3777   1 H                                       1.0806252
  3607   6 C     3778   1 H                                       1.0903641
  3607   6 C     3779   1 H                                       1.0924681
  3610   6 C     3780   1 H                                       1.0799353
  3611   6 C     3781   1 H                                       1.0798820
  3612   6 C     3782   1 H                                       1.0794254
  3613   6 C     3783   1 H                                       1.0806544
  3614   6 C     3784   1 H                                       1.0786132
  3618   6 C     3785   1 H                                       1.0810746
  3619   6 C     3786   1 H                                       1.0802814
  3620   6 C     3787   1 H                                       1.0807092
  3621   6 C     3788   1 H                                       1.0815816
  3622   6 C     3789   1 H                                       1.0812954
  3626   6 C     3790   1 H                                       1.0816738
  3627   6 C     3791   1 H                                       1.0806396
  3628   6 C     3792   1 H                                       1.0802766
  3629   6 C     3793   1 H                                       1.0811145
  3630   6 C     3794   1 H                                       1.0815526
  3634   6 C     3795   1 H                                       1.0822479
  3635   6 C     3796   1 H                                       1.0806347
  3636   6 C     3797   1 H                                       1.0798008
  3637   6 C     3798   1 H                                       1.0802304
  3638   6 C     3799   1 H                                       1.0802608
  3642   6 C     3800   1 H                                       1.0817053
  3643   6 C     3801   1 H                                       1.0805163
  3644   6 C     3802   1 H                                       1.0802324
  3645   6 C     3803   1 H                                       1.0805526
  3646   6 C     3804   1 H                                       1.0799558
  3650   6 C     3805   1 H                                       1.0807043
  3651   6 C     3806   1 H                                       1.0806207
  3652   6 C     3807   1 H                                       1.0796341
  3653   6 C     3808   1 H                                       1.0807452
  3654   6 C     3809   1 H                                       1.0799430
  3658   6 C     3810   1 H                                       1.0801979
  3659   6 C     3811   1 H                                       1.0804551
  3660   6 C     3812   1 H                                       1.0810346
  3661   6 C     3813   1 H                                       1.0795114
  3662   6 C     3814   1 H                                       1.0813906
  3666   6 C     3815   1 H                                       1.0796908
  3667   6 C     3816   1 H                                       1.0787826
  3668   6 C     3817   1 H                                       1.0814358
  3669   6 C     3818   1 H                                       1.0796118
  3670   6 C     3819   1 H                                       1.0814117
  3674   6 C     3820   1 H                                       1.0817963
  3675   6 C     3821   1 H                                       1.0805004
  3676   6 C     3822   1 H                                       1.0802492
  3677   6 C     3823   1 H                                       1.0798245
  3678   6 C     3824   1 H                                       1.0800086
  3686   6 C     3825   1 H                                       1.0813171
  3685   6 C     3826   1 H                                       1.0805291
  3684   6 C     3827   1 H                                       1.0800711
  3683   6 C     3828   1 H                                       1.0809836
  3682   6 C     3829   1 H                                       1.0803359
  3550   6 C     3830   1 H                                       1.0890676
  3550   6 C     3831   1 H                                       1.0873564
  3550   6 C     3832   1 H                                       1.0884118
  3680   6 C     3833   1 H                                       1.0943486
  3687   6 C     3834   1 H                                       1.0902809
  3687   6 C     3835   1 H                                       1.0922051
  3688   6 C     3836   6 C                                       1.5355657
  3837   6 C     3838   6 C                                       1.3890438
  3838   6 C     3839   6 C                                       1.3840890
  3839   6 C     3840   6 C                                       1.3834801
  3840   6 C     3841   6 C                                       1.3839426
  3837   6 C     3842   6 C                                       1.3907593
  3841   6 C     3842   6 C                                       1.3834791
  3838   6 C     3843   1 H                                       1.0813499
  3839   6 C     3844   1 H                                       1.0806426
  3840   6 C     3845   1 H                                       1.0791464
  3841   6 C     3846   1 H                                       1.0811024
  3842   6 C     3847   1 H                                       1.0801681
  3836   6 C     3848   6 C                                       1.5327118
  3836   6 C     3849   1 H                                       1.0916689
  3836   6 C     3850   1 H                                       1.0930707
  3851   6 C     3852   6 C                                       1.3897951
  3852   6 C     3853   6 C                                       1.3833487
  3853   6 C     3854   6 C                                       1.3846250
  3854   6 C     3855   6 C                                       1.3841866
  3851   6 C     3856   6 C                                       1.3888590
  3855   6 C     3856   6 C                                       1.3840660
  3852   6 C     3857   1 H                                       1.0811777
  3853   6 C     3858   1 H                                       1.0807765
  3854   6 C     3859   1 H                                       1.0801799
  3855   6 C     3860   1 H                                       1.0812105
  3856   6 C     3861   1 H                                       1.0809351
  3688   6 C     3862   1 H                                       1.0959836
  3848   6 C     3863   1 H                                       1.0925048
  3848   6 C     3864   1 H                                       1.0920262

 * 2 distinct bonds (by element types)

   Z      Z             #   av. dist./Å        max./Å        min./Å
   1 H    6 C        1944     1.0850934     1.0987432     1.0774474
   6 C    6 C        1859     1.4194686     1.5406310     1.3802509


optimized geometry written to: xtbopt.xyz


           -------------------------------------------------
          | TOTAL ENERGY            -5104.042626944568 Eh   |
          | GRADIENT NORM               0.000946233436 Eh/α |
          | HOMO-LUMO GAP               4.075775938164 eV   |
           -------------------------------------------------

------------------------------------------------------------------------
 * finished run on 2024/10/09 at 04:03:44.217     
------------------------------------------------------------------------
 total:
 * wall-time:     4 d,  6 h, 57 min, 29.942 sec
 *  cpu-time:    26 d,  9 h, 49 min, 14.236 sec
 * ratio c/w:     6.156 speedup
 SCF:
 * wall-time:     0 d,  0 h, 48 min, 27.605 sec
 *  cpu-time:     0 d,  5 h, 45 min, 50.120 sec
 * ratio c/w:     7.136 speedup
 ANC optimizer:
 * wall-time:     4 d,  6 h,  7 min, 51.570 sec
 *  cpu-time:    26 d,  4 h,  1 min, 52.004 sec
 * ratio c/w:     6.149 speedup

