      -----------------------------------------------------------      
     |                   =====================                   |     
     |                           x T B                           |     
     |                   =====================                   |     
     |                         S. Grimme                         |     
     |          Mulliken Center for Theoretical Chemistry        |     
     |                    University of Bonn                     |     
      -----------------------------------------------------------      

   * xtb version 6.6.1 (8d0f1dd) compiled by 'stahn@M-Bot' on 2023-08-01

   xtb is free software: you can redistribute it and/or modify it under
   the terms of the GNU Lesser General Public License as published by
   the Free Software Foundation, either version 3 of the License, or
   (at your option) any later version.
   
   xtb is distributed in the hope that it will be useful,
   but WITHOUT ANY WARRANTY; without even the implied warranty of
   MERCHANTABILITY or FITNESS FOR A PARTICULAR PURPOSE.  See the
   GNU Lesser General Public License for more details.
   
   Cite this work as:
   * C. Bannwarth, E. Caldeweyher, S. Ehlert, A. Hansen, P. Pracht,
     J. Seibert, S. Spicher, S. Grimme, WIREs Comput. Mol. Sci., 2020, 11,
     e01493. DOI: 10.1002/wcms.1493
   
   for GFN2-xTB:
   * C. Bannwarth, S. Ehlert and S. Grimme., J. Chem. Theory Comput., 2019,
     15, 1652-1671. DOI: 10.1021/acs.jctc.8b01176
   for GFN1-xTB:
   * S. Grimme, C. Bannwarth, P. Shushkov, J. Chem. Theory Comput., 2017,
     13, 1989-2009. DOI: 10.1021/acs.jctc.7b00118
   for GFN0-xTB:
   * P. Pracht, E. Caldeweyher, S. Ehlert, S. Grimme, ChemRxiv, 2019, preprint.
     DOI: 10.26434/chemrxiv.8326202.v1
   for GFN-FF:
   * S. Spicher and S. Grimme, Angew. Chem. Int. Ed., 2020, 59, 15665-15673.
     DOI: 10.1002/anie.202004239
   
   for ALPB and GBSA implicit solvation:
   * S. Ehlert, M. Stahn, S. Spicher, S. Grimme, J. Chem. Theory Comput.,
     2021, 17, 4250-4261. DOI: 10.1021/acs.jctc.1c00471
   
   for DFT-D4:
   * E. Caldeweyher, C. Bannwarth and S. Grimme, J. Chem. Phys., 2017,
     147, 034112. DOI: 10.1063/1.4993215
   * E. Caldeweyher, S. Ehlert, A. Hansen, H. Neugebauer, S. Spicher,
     C. Bannwarth and S. Grimme, J. Chem. Phys., 2019, 150, 154122.
     DOI: 10.1063/1.5090222
   * E. Caldeweyher, J.-M. Mewes, S. Ehlert and S. Grimme, Phys. Chem. Chem. Phys.
     2020, 22, 8499-8512. DOI: 10.1039/D0CP00502A
   
   for sTDA-xTB:
   * S. Grimme and C. Bannwarth, J. Chem. Phys., 2016, 145, 054103.
     DOI: 10.1063/1.4959605
   
   in the mass-spec context:
   * V. Asgeirsson, C. Bauer and S. Grimme, Chem. Sci., 2017, 8, 4879.
     DOI: 10.1039/c7sc00601b
   * J. Koopman and S. Grimme, ACS Omega 2019, 4, 12, 15120-15133.
     DOI: 10.1021/acsomega.9b02011
   
   for metadynamics refer to:
   * S. Grimme, J. Chem. Theory Comput., 2019, 155, 2847-2862
     DOI: 10.1021/acs.jctc.9b00143
   
   for SPH calculations refer to:
   * S. Spicher and S. Grimme, J. Chem. Theory Comput., 2021, 17, 1701-1714
     DOI: 10.1021/acs.jctc.0c01306
   
   with help from (in alphabetical order)
   P. Atkinson, C. Bannwarth, F. Bohle, G. Brandenburg, E. Caldeweyher
   M. Checinski, S. Dohm, S. Ehlert, S. Ehrlich, I. Gerasimov, C. Hölzer
   A. Katbashev, J. Koopman, C. Lavigne, S. Lehtola, F. März, M. Müller,
   F. Musil, H. Neugebauer, J. Pisarek, C. Plett, P. Pracht, F. Pultar,
   J. Seibert, P. Shushkov, S. Spicher, M. Stahn, M. Steiner, T. Strunk,
   J. Stückrath, T. Rose, and J. Unsleber
   
 * started run on 2024/06/24 at 13:47:33.418     

           -------------------------------------------------
          |                Calculation Setup                |
           -------------------------------------------------

          program call               : /home/abt-grimme/AK-bin/xtb input.xyz --input input.inp --opt --gbsa water
          hostname                   : boar038.thch.uni-bonn.de
          coordinate file            : input.xyz
          omp threads                :                     8

   ID    Z sym.   atoms
    1    6 C      1-4, 7, 10, 19, 21, 24, 27, 30, 33, 39, 42, 43, 46, 49, 52,
                  56, 59, 62, 65, 68, 71, 75, 78, 79, 82, 85, 88, 92, 98,
                  101, 104, 107, 110, 116, 118, 119, 122, 125, 128, 132, 135,
                  138, 141, 144, 147, 154, 156, 157, 160, 163, 166, 171, 173,
                  176, 179, 182, 185, 191, 194, 195, 198, 201, 204, 208, 211,
                  214, 217, 220, 223, 229, 232, 233, 236, 239, 242, 247, 249,
                  252, 255, 258, 261, 267, 270, 271, 274, 277, 280, 284, 287,
                  290, 293, 296, 299, 305, 308, 309, 312, 315, 318, 323, 325,
                  328, 331, 334, 337, 346-349, 352, 355, 364, 366, 369, 372,
                  375, 378, 384, 387, 388, 391, 394, 397, 401, 404, 407, 410,
                  413, 416, 420, 423, 424, 427, 430, 433, 437, 443, 446, 449,
                  452, 455, 461, 463, 464, 467, 470, 473, 477, 480, 483, 486,
                  489, 492, 499, 501, 502, 505, 508, 511, 516, 518, 521, 524,
                  527, 530, 536, 539, 540, 543, 546, 549, 553, 556, 559, 562,
                  565, 568, 574, 577, 578, 581, 584, 587, 592, 594, 597, 600,
                  603, 606, 612, 615, 616, 619, 622, 625, 629, 632, 635, 638,
                  641, 644, 650, 653, 654, 657, 660, 663, 668, 670, 673, 676,
                  679, 682, 691-694, 697, 700, 709, 711, 714, 717, 720, 723,
                  729, 732, 733, 736, 739, 742, 746, 749, 752, 755, 758, 761,
                  765, 768, 769, 772, 775, 778, 782, 788, 791, 794, 797, 800,
                  806, 808, 809, 812, 815, 818, 822, 825, 828, 831, 834, 837,
                  844, 846, 847, 850, 853, 856, 861, 863, 866, 869, 872, 875,
                  881, 884, 885, 888, 891, 894, 898, 901, 904, 907, 910, 913,
                  919, 922, 923, 926, 929, 932, 937, 939, 942, 945, 948, 951,
                  957, 960, 961, 964, 967, 970, 974, 977, 980, 983, 986, 989,
                  995, 998, 999, 1002, 1005, 1008, 1013, 1015, 1018, 1021,
                  1024, 1027, 1036-1039, 1042, 1045, 1054, 1056, 1059, 1062,
                  1065, 1068, 1074, 1077, 1078, 1081, 1084, 1087, 1091, 1094,
                  1097, 1100, 1103, 1106, 1110, 1113, 1114, 1117, 1120, 1123,
                  1127, 1133, 1136, 1139, 1142, 1145, 1151, 1153, 1154, 1157,
                  1160, 1163, 1167, 1170, 1173, 1176, 1179, 1182, 1189, 1191,
                  1192, 1195, 1198, 1201, 1206, 1208, 1211, 1214, 1217, 1220,
                  1226, 1229, 1230, 1233, 1236, 1239, 1243, 1246, 1249, 1252,
                  1255, 1258, 1264, 1267, 1268, 1271, 1274, 1277, 1282, 1284,
                  1287, 1290, 1293, 1296, 1302, 1305, 1306, 1309, 1312, 1315,
                  1319, 1322, 1325, 1328, 1331, 1334, 1340, 1343, 1344, 1347,
                  1350, 1353, 1358, 1360, 1363, 1366, 1369, 1372, 1381-1384,
                  1387, 1390, 1399, 1401, 1404, 1407, 1410, 1413, 1419, 1422,
                  1423, 1426, 1429, 1432, 1436, 1439, 1442, 1445, 1448, 1451,
                  1455, 1458, 1459, 1462, 1465, 1468, 1472, 1478, 1481, 1484,
                  1487, 1490, 1496, 1498, 1499, 1502, 1505, 1508, 1512, 1515,
                  1518, 1521, 1524, 1527, 1534, 1536, 1537, 1540, 1543, 1546,
                  1551, 1553, 1556, 1559, 1562, 1565, 1571, 1574, 1575, 1578,
                  1581, 1584, 1588, 1591, 1594, 1597, 1600, 1603, 1609, 1612,
                  1613, 1616, 1619, 1622, 1627, 1629, 1632, 1635, 1638, 1641,
                  1647, 1650, 1651, 1654, 1657, 1660, 1664, 1667, 1670, 1673,
                  1676, 1679, 1685, 1688, 1689, 1692, 1695, 1698, 1703, 1705,
                  1708, 1711, 1714, 1717, 1726-1729, 1732, 1735, 1744, 1746,
                  1749, 1752, 1755, 1758, 1764, 1767, 1768, 1771, 1774, 1777,
                  1781, 1784, 1787, 1790, 1793, 1796, 1800, 1803, 1804, 1807,
                  1810, 1813, 1817, 1823, 1826, 1829, 1832, 1835, 1841, 1843,
                  1844, 1847, 1850, 1853, 1857, 1860, 1863, 1866, 1869, 1872,
                  1879, 1881, 1882, 1885, 1888, 1891, 1896, 1898, 1901, 1904,
                  1907, 1910, 1916, 1919, 1920, 1923, 1926, 1929, 1933, 1936,
                  1939, 1942, 1945, 1948, 1954, 1957, 1958, 1961, 1964, 1967,
                  1972, 1974, 1977, 1980, 1983, 1986, 1992, 1995, 1996, 1999,
                  2002, 2005, 2009, 2012, 2015, 2018, 2021, 2024, 2030, 2033,
                  2034, 2037, 2040, 2043, 2048, 2050, 2053, 2056, 2059, 2062,
                  2071-2074, 2077, 2080, 2089, 2091, 2094, 2097, 2100, 2103,
                  2109, 2112, 2113, 2116, 2119, 2122, 2126, 2129, 2132, 2135,
                  2138, 2141, 2145, 2148, 2149, 2152, 2155, 2158, 2162, 2168,
                  2171, 2174, 2177, 2180, 2186, 2188, 2189, 2192, 2195, 2198,
                  2202, 2205, 2208, 2211, 2214, 2217, 2224, 2226, 2227, 2230,
                  2233, 2236, 2241, 2243, 2246, 2249, 2252, 2255, 2261, 2264,
                  2265, 2268, 2271, 2274, 2278, 2281, 2284, 2287, 2290, 2293,
                  2299, 2302, 2303, 2306, 2309, 2312, 2317, 2319, 2322, 2325,
                  2328, 2331, 2337, 2340, 2341, 2344, 2347, 2350, 2354, 2357,
                  2360, 2363, 2366, 2369, 2375, 2378, 2379, 2382, 2385, 2388,
                  2393, 2395, 2398, 2401, 2404, 2407, 2416-2419, 2422, 2425,
                  2434, 2436, 2439, 2442, 2445, 2448, 2454, 2457, 2458, 2461,
                  2464, 2467, 2471, 2474, 2477, 2480, 2483, 2486, 2490, 2493,
                  2494, 2497, 2500, 2503, 2507, 2513, 2516, 2519, 2522, 2525,
                  2531, 2533, 2534, 2537, 2540, 2543, 2547, 2550, 2553, 2556,
                  2559, 2562, 2569, 2571, 2572, 2575, 2578, 2581, 2586, 2588,
                  2591, 2594, 2597, 2600, 2606, 2609, 2610, 2613, 2616, 2619,
                  2623, 2626, 2629, 2632, 2635, 2638, 2644, 2647, 2648, 2651,
                  2654, 2657, 2662, 2664, 2667, 2670, 2673, 2676, 2682, 2685,
                  2686, 2689, 2692, 2695, 2699, 2702, 2705, 2708, 2711, 2714,
                  2720, 2723, 2724, 2727, 2730, 2733, 2738, 2740, 2743, 2746,
                  2749, 2752, 2761-2764, 2767, 2770, 2779, 2781, 2784, 2787,
                  2790, 2793, 2799, 2802, 2803, 2806, 2809, 2812, 2816, 2819,
                  2822, 2825, 2828, 2831, 2835, 2838, 2839, 2842, 2845, 2848,
                  2852, 2858, 2861, 2864, 2867, 2870, 2876, 2878, 2879, 2882,
                  2885, 2888, 2892, 2895, 2898, 2901, 2904, 2907, 2914, 2916,
                  2917, 2920, 2923, 2926, 2931, 2933, 2936, 2939, 2942, 2945,
                  2951, 2954, 2955, 2958, 2961, 2964, 2968, 2971, 2974, 2977,
                  2980, 2983, 2989, 2992, 2993, 2996, 2999, 3002, 3007, 3009,
                  3012, 3015, 3018, 3021, 3027, 3030, 3031, 3034, 3037, 3040,
                  3044, 3047, 3050, 3053, 3056, 3059, 3065, 3068, 3069, 3072,
                  3075, 3078, 3083, 3085, 3088, 3091, 3094, 3097, 3106-3109,
                  3112, 3115, 3124, 3126, 3129, 3132, 3135, 3138, 3144, 3147,
                  3148, 3151, 3154, 3157, 3161, 3164, 3167, 3170, 3173, 3176,
                  3180, 3183, 3184, 3187, 3190, 3193, 3197, 3203, 3206, 3209,
                  3212, 3215, 3221, 3223, 3224, 3227, 3230, 3233, 3237, 3240,
                  3243, 3246, 3249, 3252, 3259, 3261, 3262, 3265, 3268, 3271,
                  3276, 3278, 3281, 3284, 3287, 3290, 3296, 3299, 3300, 3303,
                  3306, 3309, 3313, 3316, 3319, 3322, 3325, 3328, 3334, 3337,
                  3338, 3341, 3344, 3347, 3352, 3354, 3357, 3360, 3363, 3366,
                  3372, 3375, 3376, 3379, 3382, 3385, 3389, 3392, 3395, 3398,
                  3401, 3404, 3410, 3413, 3414, 3417, 3420, 3423, 3428, 3430,
                  3433, 3436, 3439, 3442, 3451-3454, 3457, 3460, 3469, 3471,
                  3474, 3477, 3480, 3483, 3489, 3492, 3493, 3496, 3499, 3502,
                  3506, 3509, 3512, 3515, 3518, 3521, 3525, 3528, 3529, 3532,
                  3535, 3538, 3542, 3548, 3551, 3554, 3557, 3560, 3566, 3568,
                  3569, 3572, 3575, 3578, 3582, 3585, 3588, 3591, 3594, 3597,
                  3604, 3606, 3607, 3610, 3613, 3616, 3621, 3623, 3626, 3629,
                  3632, 3635, 3641, 3644, 3645, 3648, 3651, 3654, 3658, 3661,
                  3664, 3667, 3670, 3673, 3679, 3682, 3683, 3686, 3689, 3692,
                  3697, 3699, 3702, 3705, 3708, 3711, 3717, 3720, 3721, 3724,
                  3727, 3730, 3734, 3737, 3740, 3743, 3746, 3749, 3755, 3758,
                  3759, 3762, 3765, 3768, 3773, 3775, 3778, 3781, 3784, 3787
    2    1 H      5, 6, 8, 9, 11, 12, 16-18, 20, 22, 23, 25, 26, 28, 29, 31,
                  32, 34, 35, 37, 38, 40, 44, 45, 47, 48, 50, 51, 53, 54, 57,
                  60, 61, 63, 64, 66, 67, 69, 70, 73, 74, 76, 80, 81, 83, 84,
                  86, 87, 89, 90, 93-95, 99, 100, 102, 103, 105, 106, 108,
                  109, 111, 112, 114, 115, 117, 120, 121, 123, 124, 126, 127,
                  129, 130, 133, 136, 137, 139, 140, 142, 143, 145, 146, 148,
                  149, 151, 152, 155, 158, 159, 161, 162, 164, 165, 167, 168,
                  172, 174, 175, 177, 178, 180, 181, 183, 184, 186, 187, 189,
                  190, 192, 196, 197, 199, 200, 202, 203, 205, 206, 209, 212,
                  213, 215, 216, 218, 219, 221, 222, 224, 225, 227, 228, 230,
                  234, 235, 237, 238, 240, 241, 243, 244, 248, 250, 251, 253,
                  254, 256, 257, 259, 260, 262, 263, 265, 266, 268, 272, 273,
                  275, 276, 278, 279, 281, 282, 285, 288, 289, 291, 292, 294,
                  295, 297, 298, 300, 301, 303, 304, 306, 310, 311, 313, 314,
                  316, 317, 319, 320, 324, 326, 327, 329, 330, 332, 333, 335,
                  336, 338, 339, 341-344, 350, 351, 353, 354, 356, 357,
                  361-363, 365, 367, 368, 370, 371, 373, 374, 376, 377, 379,
                  380, 382, 383, 385, 389, 390, 392, 393, 395, 396, 398, 399,
                  402, 405, 406, 408, 409, 411, 412, 414, 415, 418, 419, 421,
                  425, 426, 428, 429, 431, 432, 434, 435, 438-440, 444, 445,
                  447, 448, 450, 451, 453, 454, 456, 457, 459, 460, 462, 465,
                  466, 468, 469, 471, 472, 474, 475, 478, 481, 482, 484, 485,
                  487, 488, 490, 491, 493, 494, 496, 497, 500, 503, 504, 506,
                  507, 509, 510, 512, 513, 517, 519, 520, 522, 523, 525, 526,
                  528, 529, 531, 532, 534, 535, 537, 541, 542, 544, 545, 547,
                  548, 550, 551, 554, 557, 558, 560, 561, 563, 564, 566, 567,
                  569, 570, 572, 573, 575, 579, 580, 582, 583, 585, 586, 588,
                  589, 593, 595, 596, 598, 599, 601, 602, 604, 605, 607, 608,
                  610, 611, 613, 617, 618, 620, 621, 623, 624, 626, 627, 630,
                  633, 634, 636, 637, 639, 640, 642, 643, 645, 646, 648, 649,
                  651, 655, 656, 658, 659, 661, 662, 664, 665, 669, 671, 672,
                  674, 675, 677, 678, 680, 681, 683, 684, 686-689, 695, 696,
                  698, 699, 701, 702, 706-708, 710, 712, 713, 715, 716, 718,
                  719, 721, 722, 724, 725, 727, 728, 730, 734, 735, 737, 738,
                  740, 741, 743, 744, 747, 750, 751, 753, 754, 756, 757, 759,
                  760, 763, 764, 766, 770, 771, 773, 774, 776, 777, 779, 780,
                  783-785, 789, 790, 792, 793, 795, 796, 798, 799, 801, 802,
                  804, 805, 807, 810, 811, 813, 814, 816, 817, 819, 820, 823,
                  826, 827, 829, 830, 832, 833, 835, 836, 838, 839, 841, 842,
                  845, 848, 849, 851, 852, 854, 855, 857, 858, 862, 864, 865,
                  867, 868, 870, 871, 873, 874, 876, 877, 879, 880, 882, 886,
                  887, 889, 890, 892, 893, 895, 896, 899, 902, 903, 905, 906,
                  908, 909, 911, 912, 914, 915, 917, 918, 920, 924, 925, 927,
                  928, 930, 931, 933, 934, 938, 940, 941, 943, 944, 946, 947,
                  949, 950, 952, 953, 955, 956, 958, 962, 963, 965, 966, 968,
                  969, 971, 972, 975, 978, 979, 981, 982, 984, 985, 987, 988,
                  990, 991, 993, 994, 996, 1000, 1001, 1003, 1004, 1006,
                  1007, 1009, 1010, 1014, 1016, 1017, 1019, 1020, 1022, 1023,
                  1025, 1026, 1028, 1029, 1031-1034, 1040, 1041, 1043, 1044,
                  1046, 1047, 1051-1053, 1055, 1057, 1058, 1060, 1061, 1063,
                  1064, 1066, 1067, 1069, 1070, 1072, 1073, 1075, 1079, 1080,
                  1082, 1083, 1085, 1086, 1088, 1089, 1092, 1095, 1096, 1098,
                  1099, 1101, 1102, 1104, 1105, 1108, 1109, 1111, 1115, 1116,
                  1118, 1119, 1121, 1122, 1124, 1125, 1128-1130, 1134, 1135,
                  1137, 1138, 1140, 1141, 1143, 1144, 1146, 1147, 1149, 1150,
                  1152, 1155, 1156, 1158, 1159, 1161, 1162, 1164, 1165, 1168,
                  1171, 1172, 1174, 1175, 1177, 1178, 1180, 1181, 1183, 1184,
                  1186, 1187, 1190, 1193, 1194, 1196, 1197, 1199, 1200, 1202,
                  1203, 1207, 1209, 1210, 1212, 1213, 1215, 1216, 1218, 1219,
                  1221, 1222, 1224, 1225, 1227, 1231, 1232, 1234, 1235, 1237,
                  1238, 1240, 1241, 1244, 1247, 1248, 1250, 1251, 1253, 1254,
                  1256, 1257, 1259, 1260, 1262, 1263, 1265, 1269, 1270, 1272,
                  1273, 1275, 1276, 1278, 1279, 1283, 1285, 1286, 1288, 1289,
                  1291, 1292, 1294, 1295, 1297, 1298, 1300, 1301, 1303, 1307,
                  1308, 1310, 1311, 1313, 1314, 1316, 1317, 1320, 1323, 1324,
                  1326, 1327, 1329, 1330, 1332, 1333, 1335, 1336, 1338, 1339,
                  1341, 1345, 1346, 1348, 1349, 1351, 1352, 1354, 1355, 1359,
                  1361, 1362, 1364, 1365, 1367, 1368, 1370, 1371, 1373, 1374,
                  1376-1379, 1385, 1386, 1388, 1389, 1391, 1392, 1396-1398,
                  1400, 1402, 1403, 1405, 1406, 1408, 1409, 1411, 1412, 1414,
                  1415, 1417, 1418, 1420, 1424, 1425, 1427, 1428, 1430, 1431,
                  1433, 1434, 1437, 1440, 1441, 1443, 1444, 1446, 1447, 1449,
                  1450, 1453, 1454, 1456, 1460, 1461, 1463, 1464, 1466, 1467,
                  1469, 1470, 1473-1475, 1479, 1480, 1482, 1483, 1485, 1486,
                  1488, 1489, 1491, 1492, 1494, 1495, 1497, 1500, 1501, 1503,
                  1504, 1506, 1507, 1509, 1510, 1513, 1516, 1517, 1519, 1520,
                  1522, 1523, 1525, 1526, 1528, 1529, 1531, 1532, 1535, 1538,
                  1539, 1541, 1542, 1544, 1545, 1547, 1548, 1552, 1554, 1555,
                  1557, 1558, 1560, 1561, 1563, 1564, 1566, 1567, 1569, 1570,
                  1572, 1576, 1577, 1579, 1580, 1582, 1583, 1585, 1586, 1589,
                  1592, 1593, 1595, 1596, 1598, 1599, 1601, 1602, 1604, 1605,
                  1607, 1608, 1610, 1614, 1615, 1617, 1618, 1620, 1621, 1623,
                  1624, 1628, 1630, 1631, 1633, 1634, 1636, 1637, 1639, 1640,
                  1642, 1643, 1645, 1646, 1648, 1652, 1653, 1655, 1656, 1658,
                  1659, 1661, 1662, 1665, 1668, 1669, 1671, 1672, 1674, 1675,
                  1677, 1678, 1680, 1681, 1683, 1684, 1686, 1690, 1691, 1693,
                  1694, 1696, 1697, 1699, 1700, 1704, 1706, 1707, 1709, 1710,
                  1712, 1713, 1715, 1716, 1718, 1719, 1721-1724, 1730, 1731,
                  1733, 1734, 1736, 1737, 1741-1743, 1745, 1747, 1748, 1750,
                  1751, 1753, 1754, 1756, 1757, 1759, 1760, 1762, 1763, 1765,
                  1769, 1770, 1772, 1773, 1775, 1776, 1778, 1779, 1782, 1785,
                  1786, 1788, 1789, 1791, 1792, 1794, 1795, 1798, 1799, 1801,
                  1805, 1806, 1808, 1809, 1811, 1812, 1814, 1815, 1818-1820,
                  1824, 1825, 1827, 1828, 1830, 1831, 1833, 1834, 1836, 1837,
                  1839, 1840, 1842, 1845, 1846, 1848, 1849, 1851, 1852, 1854,
                  1855, 1858, 1861, 1862, 1864, 1865, 1867, 1868, 1870, 1871,
                  1873, 1874, 1876, 1877, 1880, 1883, 1884, 1886, 1887, 1889,
                  1890, 1892, 1893, 1897, 1899, 1900, 1902, 1903, 1905, 1906,
                  1908, 1909, 1911, 1912, 1914, 1915, 1917, 1921, 1922, 1924,
                  1925, 1927, 1928, 1930, 1931, 1934, 1937, 1938, 1940, 1941,
                  1943, 1944, 1946, 1947, 1949, 1950, 1952, 1953, 1955, 1959,
                  1960, 1962, 1963, 1965, 1966, 1968, 1969, 1973, 1975, 1976,
                  1978, 1979, 1981, 1982, 1984, 1985, 1987, 1988, 1990, 1991,
                  1993, 1997, 1998, 2000, 2001, 2003, 2004, 2006, 2007, 2010,
                  2013, 2014, 2016, 2017, 2019, 2020, 2022, 2023, 2025, 2026,
                  2028, 2029, 2031, 2035, 2036, 2038, 2039, 2041, 2042, 2044,
                  2045, 2049, 2051, 2052, 2054, 2055, 2057, 2058, 2060, 2061,
                  2063, 2064, 2066-2069, 2075, 2076, 2078, 2079, 2081, 2082,
                  2086-2088, 2090, 2092, 2093, 2095, 2096, 2098, 2099, 2101,
                  2102, 2104, 2105, 2107, 2108, 2110, 2114, 2115, 2117, 2118,
                  2120, 2121, 2123, 2124, 2127, 2130, 2131, 2133, 2134, 2136,
                  2137, 2139, 2140, 2143, 2144, 2146, 2150, 2151, 2153, 2154,
                  2156, 2157, 2159, 2160, 2163-2165, 2169, 2170, 2172, 2173,
                  2175, 2176, 2178, 2179, 2181, 2182, 2184, 2185, 2187, 2190,
                  2191, 2193, 2194, 2196, 2197, 2199, 2200, 2203, 2206, 2207,
                  2209, 2210, 2212, 2213, 2215, 2216, 2218, 2219, 2221, 2222,
                  2225, 2228, 2229, 2231, 2232, 2234, 2235, 2237, 2238, 2242,
                  2244, 2245, 2247, 2248, 2250, 2251, 2253, 2254, 2256, 2257,
                  2259, 2260, 2262, 2266, 2267, 2269, 2270, 2272, 2273, 2275,
                  2276, 2279, 2282, 2283, 2285, 2286, 2288, 2289, 2291, 2292,
                  2294, 2295, 2297, 2298, 2300, 2304, 2305, 2307, 2308, 2310,
                  2311, 2313, 2314, 2318, 2320, 2321, 2323, 2324, 2326, 2327,
                  2329, 2330, 2332, 2333, 2335, 2336, 2338, 2342, 2343, 2345,
                  2346, 2348, 2349, 2351, 2352, 2355, 2358, 2359, 2361, 2362,
                  2364, 2365, 2367, 2368, 2370, 2371, 2373, 2374, 2376, 2380,
                  2381, 2383, 2384, 2386, 2387, 2389, 2390, 2394, 2396, 2397,
                  2399, 2400, 2402, 2403, 2405, 2406, 2408, 2409, 2411-2414,
                  2420, 2421, 2423, 2424, 2426, 2427, 2431-2433, 2435, 2437,
                  2438, 2440, 2441, 2443, 2444, 2446, 2447, 2449, 2450, 2452,
                  2453, 2455, 2459, 2460, 2462, 2463, 2465, 2466, 2468, 2469,
                  2472, 2475, 2476, 2478, 2479, 2481, 2482, 2484, 2485, 2488,
                  2489, 2491, 2495, 2496, 2498, 2499, 2501, 2502, 2504, 2505,
                  2508-2510, 2514, 2515, 2517, 2518, 2520, 2521, 2523, 2524,
                  2526, 2527, 2529, 2530, 2532, 2535, 2536, 2538, 2539, 2541,
                  2542, 2544, 2545, 2548, 2551, 2552, 2554, 2555, 2557, 2558,
                  2560, 2561, 2563, 2564, 2566, 2567, 2570, 2573, 2574, 2576,
                  2577, 2579, 2580, 2582, 2583, 2587, 2589, 2590, 2592, 2593,
                  2595, 2596, 2598, 2599, 2601, 2602, 2604, 2605, 2607, 2611,
                  2612, 2614, 2615, 2617, 2618, 2620, 2621, 2624, 2627, 2628,
                  2630, 2631, 2633, 2634, 2636, 2637, 2639, 2640, 2642, 2643,
                  2645, 2649, 2650, 2652, 2653, 2655, 2656, 2658, 2659, 2663,
                  2665, 2666, 2668, 2669, 2671, 2672, 2674, 2675, 2677, 2678,
                  2680, 2681, 2683, 2687, 2688, 2690, 2691, 2693, 2694, 2696,
                  2697, 2700, 2703, 2704, 2706, 2707, 2709, 2710, 2712, 2713,
                  2715, 2716, 2718, 2719, 2721, 2725, 2726, 2728, 2729, 2731,
                  2732, 2734, 2735, 2739, 2741, 2742, 2744, 2745, 2747, 2748,
                  2750, 2751, 2753, 2754, 2756-2759, 2765, 2766, 2768, 2769,
                  2771, 2772, 2776-2778, 2780, 2782, 2783, 2785, 2786, 2788,
                  2789, 2791, 2792, 2794, 2795, 2797, 2798, 2800, 2804, 2805,
                  2807, 2808, 2810, 2811, 2813, 2814, 2817, 2820, 2821, 2823,
                  2824, 2826, 2827, 2829, 2830, 2833, 2834, 2836, 2840, 2841,
                  2843, 2844, 2846, 2847, 2849, 2850, 2853-2855, 2859, 2860,
                  2862, 2863, 2865, 2866, 2868, 2869, 2871, 2872, 2874, 2875,
                  2877, 2880, 2881, 2883, 2884, 2886, 2887, 2889, 2890, 2893,
                  2896, 2897, 2899, 2900, 2902, 2903, 2905, 2906, 2908, 2909,
                  2911, 2912, 2915, 2918, 2919, 2921, 2922, 2924, 2925, 2927,
                  2928, 2932, 2934, 2935, 2937, 2938, 2940, 2941, 2943, 2944,
                  2946, 2947, 2949, 2950, 2952, 2956, 2957, 2959, 2960, 2962,
                  2963, 2965, 2966, 2969, 2972, 2973, 2975, 2976, 2978, 2979,
                  2981, 2982, 2984, 2985, 2987, 2988, 2990, 2994, 2995, 2997,
                  2998, 3000, 3001, 3003, 3004, 3008, 3010, 3011, 3013, 3014,
                  3016, 3017, 3019, 3020, 3022, 3023, 3025, 3026, 3028, 3032,
                  3033, 3035, 3036, 3038, 3039, 3041, 3042, 3045, 3048, 3049,
                  3051, 3052, 3054, 3055, 3057, 3058, 3060, 3061, 3063, 3064,
                  3066, 3070, 3071, 3073, 3074, 3076, 3077, 3079, 3080, 3084,
                  3086, 3087, 3089, 3090, 3092, 3093, 3095, 3096, 3098, 3099,
                  3101-3104, 3110, 3111, 3113, 3114, 3116, 3117, 3121-3123,
                  3125, 3127, 3128, 3130, 3131, 3133, 3134, 3136, 3137, 3139,
                  3140, 3142, 3143, 3145, 3149, 3150, 3152, 3153, 3155, 3156,
                  3158, 3159, 3162, 3165, 3166, 3168, 3169, 3171, 3172, 3174,
                  3175, 3178, 3179, 3181, 3185, 3186, 3188, 3189, 3191, 3192,
                  3194, 3195, 3198-3200, 3204, 3205, 3207, 3208, 3210, 3211,
                  3213, 3214, 3216, 3217, 3219, 3220, 3222, 3225, 3226, 3228,
                  3229, 3231, 3232, 3234, 3235, 3238, 3241, 3242, 3244, 3245,
                  3247, 3248, 3250, 3251, 3253, 3254, 3256, 3257, 3260, 3263,
                  3264, 3266, 3267, 3269, 3270, 3272, 3273, 3277, 3279, 3280,
                  3282, 3283, 3285, 3286, 3288, 3289, 3291, 3292, 3294, 3295,
                  3297, 3301, 3302, 3304, 3305, 3307, 3308, 3310, 3311, 3314,
                  3317, 3318, 3320, 3321, 3323, 3324, 3326, 3327, 3329, 3330,
                  3332, 3333, 3335, 3339, 3340, 3342, 3343, 3345, 3346, 3348,
                  3349, 3353, 3355, 3356, 3358, 3359, 3361, 3362, 3364, 3365,
                  3367, 3368, 3370, 3371, 3373, 3377, 3378, 3380, 3381, 3383,
                  3384, 3386, 3387, 3390, 3393, 3394, 3396, 3397, 3399, 3400,
                  3402, 3403, 3405, 3406, 3408, 3409, 3411, 3415, 3416, 3418,
                  3419, 3421, 3422, 3424, 3425, 3429, 3431, 3432, 3434, 3435,
                  3437, 3438, 3440, 3441, 3443, 3444, 3446-3449, 3455, 3456,
                  3458, 3459, 3461, 3462, 3466-3468, 3470, 3472, 3473, 3475,
                  3476, 3478, 3479, 3481, 3482, 3484, 3485, 3487, 3488, 3490,
                  3494, 3495, 3497, 3498, 3500, 3501, 3503, 3504, 3507, 3510,
                  3511, 3513, 3514, 3516, 3517, 3519, 3520, 3523, 3524, 3526,
                  3530, 3531, 3533, 3534, 3536, 3537, 3539, 3540, 3543-3545,
                  3549, 3550, 3552, 3553, 3555, 3556, 3558, 3559, 3561, 3562,
                  3564, 3565, 3567, 3570, 3571, 3573, 3574, 3576, 3577, 3579,
                  3580, 3583, 3586, 3587, 3589, 3590, 3592, 3593, 3595, 3596,
                  3598, 3599, 3601, 3602, 3605, 3608, 3609, 3611, 3612, 3614,
                  3615, 3617, 3618, 3622, 3624, 3625, 3627, 3628, 3630, 3631,
                  3633, 3634, 3636, 3637, 3639, 3640, 3642, 3646, 3647, 3649,
                  3650, 3652, 3653, 3655, 3656, 3659, 3662, 3663, 3665, 3666,
                  3668, 3669, 3671, 3672, 3674, 3675, 3677, 3678, 3680, 3684,
                  3685, 3687, 3688, 3690, 3691, 3693, 3694, 3698, 3700, 3701,
                  3703, 3704, 3706, 3707, 3709, 3710, 3712, 3713, 3715, 3716,
                  3718, 3722, 3723, 3725, 3726, 3728, 3729, 3731, 3732, 3735,
                  3738, 3739, 3741, 3742, 3744, 3745, 3747, 3748, 3750, 3751,
                  3753, 3754, 3756, 3760, 3761, 3763, 3764, 3766, 3767, 3769,
                  3770, 3774, 3776, 3777, 3779, 3780, 3782, 3783, 3785, 3786,
                  3788, 3789, 3791-3794
    3    7 N      13, 36, 55, 72, 91, 113, 131, 150, 169, 188, 207, 226, 245,
                  264, 283, 302, 321, 340, 358, 381, 400, 417, 436, 458, 476,
                  495, 514, 533, 552, 571, 590, 609, 628, 647, 666, 685, 703,
                  726, 745, 762, 781, 803, 821, 840, 859, 878, 897, 916, 935,
                  954, 973, 992, 1011, 1030, 1048, 1071, 1090, 1107, 1126,
                  1148, 1166, 1185, 1204, 1223, 1242, 1261, 1280, 1299, 1318,
                  1337, 1356, 1375, 1393, 1416, 1435, 1452, 1471, 1493, 1511,
                  1530, 1549, 1568, 1587, 1606, 1625, 1644, 1663, 1682, 1701,
                  1720, 1738, 1761, 1780, 1797, 1816, 1838, 1856, 1875, 1894,
                  1913, 1932, 1951, 1970, 1989, 2008, 2027, 2046, 2065, 2083,
                  2106, 2125, 2142, 2161, 2183, 2201, 2220, 2239, 2258, 2277,
                  2296, 2315, 2334, 2353, 2372, 2391, 2410, 2428, 2451, 2470,
                  2487, 2506, 2528, 2546, 2565, 2584, 2603, 2622, 2641, 2660,
                  2679, 2698, 2717, 2736, 2755, 2773, 2796, 2815, 2832, 2851,
                  2873, 2891, 2910, 2929, 2948, 2967, 2986, 3005, 3024, 3043,
                  3062, 3081, 3100, 3118, 3141, 3160, 3177, 3196, 3218, 3236,
                  3255, 3274, 3293, 3312, 3331, 3350, 3369, 3388, 3407, 3426,
                  3445, 3463, 3486, 3505, 3522, 3541, 3563, 3581, 3600, 3619,
                  3638, 3657, 3676, 3695, 3714, 3733, 3752, 3771, 3790
    4    8 O      14, 15, 41, 58, 77, 96, 97, 134, 153, 170, 193, 210, 231,
                  246, 269, 286, 307, 322, 345, 359, 360, 386, 403, 422, 441,
                  442, 479, 498, 515, 538, 555, 576, 591, 614, 631, 652, 667,
                  690, 704, 705, 731, 748, 767, 786, 787, 824, 843, 860, 883,
                  900, 921, 936, 959, 976, 997, 1012, 1035, 1049, 1050, 1076,
                  1093, 1112, 1131, 1132, 1169, 1188, 1205, 1228, 1245, 1266,
                  1281, 1304, 1321, 1342, 1357, 1380, 1394, 1395, 1421, 1438,
                  1457, 1476, 1477, 1514, 1533, 1550, 1573, 1590, 1611, 1626,
                  1649, 1666, 1687, 1702, 1725, 1739, 1740, 1766, 1783, 1802,
                  1821, 1822, 1859, 1878, 1895, 1918, 1935, 1956, 1971, 1994,
                  2011, 2032, 2047, 2070, 2084, 2085, 2111, 2128, 2147, 2166,
                  2167, 2204, 2223, 2240, 2263, 2280, 2301, 2316, 2339, 2356,
                  2377, 2392, 2415, 2429, 2430, 2456, 2473, 2492, 2511, 2512,
                  2549, 2568, 2585, 2608, 2625, 2646, 2661, 2684, 2701, 2722,
                  2737, 2760, 2774, 2775, 2801, 2818, 2837, 2856, 2857, 2894,
                  2913, 2930, 2953, 2970, 2991, 3006, 3029, 3046, 3067, 3082,
                  3105, 3119, 3120, 3146, 3163, 3182, 3201, 3202, 3239, 3258,
                  3275, 3298, 3315, 3336, 3351, 3374, 3391, 3412, 3427, 3450,
                  3464, 3465, 3491, 3508, 3527, 3546, 3547, 3584, 3603, 3620,
                  3643, 3660, 3681, 3696, 3719, 3736, 3757, 3772, 3795

molecular fragmentation (1/2 indicates fragments):
111111111111111111111111111111111111111111111111111111111111111111111111
111111111111111111111111111111111111111111111111111111111111111111111111
111111111111111111111111111111111111111111111111111111111111111111111111
111111111111111111111111111111111111111111111111111111111111111111111111
111111111111111111111111111111111111111111111111111111111222222222222222
222222222222222222222222222222222222222222222222222222222222222222222222
222222222222222222222222222222222222222222222222222222222222222222222222
222222222222222222222222222222222222222222222222222222222222222222222222
222222222222222222222222222222222222222222222222222222222222222222222222
222222222222222222222222222222222222222222222222222222222222222222222222
222222222222222222222222222222222222222222222222222222222222222222222222
222222222222222222222222222222222222222222222222222222222222222222222222
222222222222222222222222222222222222222222222222222222222222222222222222
222222222222222222222222222222222222222222222222222222222222222222222222
222222222222222222222222222222222222222222222222222222222222222222222222
222222222222222222222222222222222222222222222222222222222222222222222222
222222222222222222222222222222222222222222222222222222222222222222222222
222222222222222222222222222222222222222222222222222222222222222222222222
222222222222222222222222222222222222222222222222222222222222222222222222
222222222222222222222222222222222222222222222222222222222222222222222222
222222222222222222222222222222222222222222222222222222222222222222222222
222222222222222222222222222222222222222222222222222222222222222222222222
222222222222222222222222222222222222222222222222222222222222222222222222
222222222222222222222222222222222222222222222222222222222222222222222222
222222222222222222222222222222222222222222222222222222222222222222222222
222222222222222222222222222222222222222222222222222222222222222222222222
222222222222222222222222222222222222222222222222222222222222222222222222
222222222222222222222222222222222222222222222222222222222222222222222222
222222222222222222222222222222222222222222222222222222222222222222222222
222222222222222222222222222222222222222222222222222222222222222222222222
222222222222222222222222222222222222222222222222222222222222222222222222
222222222222222222222222222222222222222222222222222222222222222222222222
222222222222222222222222222222222222222222222222222222222222222222222222
222222222222222222222222222222222222222222222222222222222222222222222222
222222222222222222222222222222222222222222222222222222222222222222222222
222222222222222222222222222222222222222222222222222222222222222222222222
222222222222222222222222222222222222222222222222222222222222222222222222
222222222222222222222222222222222222222222222222222222222222222222222222
222222222222222222222222222222222222222222222222222222222222222222222222
222222222222222222222222222222222222222222222222222222222222222222222222
222222222222222222222222222222222222222222222222222222222222222222222222
222222222222222222222222222222222222222222222222222222222222222222222222
222222222222222222222222222222222222222222222222222222222222222222222222
222222222222222222222222222222222222222222222222222222222222222222222222
222222222222222222222222222222222222222222222222222222222222222222222222
222222222222222222222222222222222222222222222222222222222222222222222222
222222222222222222222222222222222222222222222222222222222222222222222222
222222222222222222222222222222222222222222222222222222222222222222222222
222222222222222222222222222222222222222222222222222222222222222222222222
222222222222222222222222222222222222222222222222222222222222222222222222
222222222222222222222222222222222222222222222222222222222222222222222222
222222222222222222222222222222222222222222222222222222222222222222222222
222222222222222222222222222222222222222222222222222
# atoms in fragment 1/2:   345  3450
 fragment masses (1/2) :     2054.86    20548.57
CMA distance (Bohr)    :  17.573
constraining FC (au)   :  0.0500

           -------------------------------------------------
          |                 G F N 2 - x T B                 |
           -------------------------------------------------

        Reference                      10.1021/acs.jctc.8b01176
      * Hamiltonian:
        H0-scaling (s, p, d)           1.850000    2.230000    2.230000
        zeta-weighting                 0.500000
      * Dispersion:
        s8                             2.700000
        a1                             0.520000
        a2                             5.000000
        s9                             5.000000
      * Repulsion:
        kExp                           1.500000    1.000000
        rExp                           1.000000
      * Coulomb:
        alpha                          2.000000
        third order                    shell-resolved
        anisotropic                    true
        a3                             3.000000
        a5                             4.000000
        cn-shift                       1.200000
        cn-exp                         4.000000
        max-rad                        5.000000

      * Solvation model:               GBSA
        Solvent                        water
        Parameter file                 internal GFN2-xTB/GBSA
        Dielectric constant                8.0200E+01
        Reference state                gsolv [1 M gas/solution]
        Free energy shift                  1.8574E-03 Eh       1.1656E+00 kcal/mol
        Temperature                        2.9815E+02 K
        Density                            1.0000E+00 kg/L
        Solvent mass                       1.8000E+01 g/mol
        Interaction kernel             Still
        Born radius scaling (c1)           1.5524E+00
        Born radii integrator          GBOBC
        Born offset                        2.4628E-02 a0       4.6540E-02 AA
        H-bond correction              true
        Ion screening                  false
        Surface tension                    1.0000E-05 Eh       1.5569E+01 dyn/cm
        Grid points                               230 per atom
q/qsh data taken from xtbrestart
CAMM data taken from xtbrestart

          ...................................................
          :                      SETUP                      :
          :.................................................:
          :  # basis functions                8580          :
          :  # atomic orbitals                8580          :
          :  # shells                         5390          :
          :  # electrons                      9196          :
          :  max. iterations                   250          :
          :  Hamiltonian                  GFN2-xTB          :
          :  restarted?                       true          :
          :  GBSA solvation                   true          :
          :  PC potential                    false          :
          :  electronic temp.          300.0000000     K    :
          :  accuracy                    1.0000000          :
          :  -> integral cutoff          0.2500000E+02      :
          :  -> integral neglect         0.1000000E-07      :
          :  -> SCF convergence          0.1000000E-05 Eh   :
          :  -> wf. convergence          0.1000000E-03 e    :
          :  Broyden damping             0.4000000          :
          ...................................................

 iter      E             dE          RMSdq      gap      omega  full diag
   1  -5162.9857648 -0.516299E+04  0.510E-05    2.24       0.0  T
   2  -5162.9857648 -0.242926E-08  0.391E-05    2.24      41.5  T
   3  -5162.9857648 -0.170348E-08  0.276E-05    2.24      58.8  T

   *** convergence criteria satisfied after 3 iterations ***

         #    Occupation            Energy/Eh            Energy/eV
      -------------------------------------------------------------
         1        2.0000           -0.7449603             -20.2714
       ...           ...                  ...                  ...
      4592        2.0000           -0.3616984              -9.8423
      4593        2.0000           -0.3611428              -9.8272
      4594        2.0000           -0.3606510              -9.8138
      4595        2.0000           -0.3605056              -9.8099
      4596        2.0000           -0.3584748              -9.7546
      4597        2.0000           -0.3581394              -9.7455
      4598        2.0000           -0.3427183              -9.3258 (HOMO)
      4599                         -0.2605060              -7.0887 (LUMO)
      4600                         -0.2515896              -6.8461
      4601                         -0.2511154              -6.8332
      4602                         -0.2501624              -6.8073
      4603                         -0.2493441              -6.7850
       ...                                ...                  ...
      8580                          0.6700768              18.2337
      -------------------------------------------------------------
                  HL-Gap            0.0822123 Eh            2.2371 eV
             Fermi-level           -0.3016122 Eh           -8.2073 eV

 SCC (total)                   0 d,  0 h, 13 min,  6.093 sec
 SCC setup                      ...        0 min,  2.280 sec (  0.290%)
 Dispersion                     ...        0 min,  5.654 sec (  0.719%)
 classical contributions        ...        0 min,  0.157 sec (  0.020%)
 integral evaluation            ...        0 min,  9.946 sec (  1.265%)
 iterations                     ...        7 min, 37.980 sec ( 58.260%)
 molecular gradient             ...        4 min, 50.640 sec ( 36.973%)
 printout                       ...        0 min, 19.435 sec (  2.472%)

         :::::::::::::::::::::::::::::::::::::::::::::::::::::
         ::                     SUMMARY                     ::
         :::::::::::::::::::::::::::::::::::::::::::::::::::::
         :: total energy           -5102.515917534024 Eh    ::
         :: total w/o Gsasa/hb     -5102.347216093882 Eh    ::
         :: gradient norm              0.817167029962 Eh/a0 ::
         :: HOMO-LUMO gap              2.237110051533 eV    ::
         ::.................................................::
         :: SCC energy             -5162.985764806093 Eh    ::
         :: -> isotropic ES            9.193984636508 Eh    ::
         :: -> anisotropic ES          0.102119226027 Eh    ::
         :: -> anisotropic XC          2.007699025283 Eh    ::
         :: -> dispersion             -5.434601028652 Eh    ::
         :: -> Gsolv                  -0.751851105398 Eh    ::
         ::    -> Gelec               -0.583149665256 Eh    ::
         ::    -> Gsasa               -0.096443649758 Eh    ::
         ::    -> Ghb                 -0.074115233511 Eh    ::
         ::    -> Gshift               0.001857443127 Eh    ::
         :: repulsion energy          59.528380297061 Eh    ::
         :: add. restraining           0.000000000000 Eh    ::
         :: total charge              -0.000000000020 e     ::
         :::::::::::::::::::::::::::::::::::::::::::::::::::::

      ----------------------------------------------------------- 
     |              Fast Inertial Relaxation Engine              |
      ----------------------------------------------------------- 

          ...................................................
          :                      SETUP                      :
          :.................................................:
          :   energy convergence        0.5000000E-05 Eh    :
          :   grad. convergence         0.1000000E-02 Eh/a0 :
          :   optimization log               true           :
          :   writing optlog all                1     steps :
          :   Hessian reset                    20     steps :
          :   time step scaling                 5     steps :
          :   maximium step len.        1.0000000     a0    :
          :   initial time step         0.2500000     fs    :
          :   maximum time step         1.2500000     fs    :
          :   power reset thr           0.0000000     au    :
          :   alpha parameter           0.1000000           :
          :   BFGS update                   false           :
          :   preconditioning               false           :
          ...................................................

........................................................................
.............................. CYCLE    1 ..............................
........................................................................

 iter      E             dE          RMSdq      gap      omega  full diag
   1  -5163.1992258 -0.516320E+04  0.114E-02    2.27       0.0  T
   2  -5163.1993894 -0.163628E-03  0.598E-03    2.27       1.0  T
   3  -5163.1993978 -0.841341E-05  0.322E-03    2.27       1.0  T
   4  -5163.1993989 -0.115306E-05  0.804E-04    2.27       2.0  T
   5  -5163.1993998 -0.808076E-06  0.291E-04    2.27       5.6  T
   6  -5163.1993998 -0.655209E-07  0.133E-04    2.27      12.2  T
     SCC iter.                  ...       15 min,  8.910 sec
     gradient                   ...        4 min, 52.019 sec
 * total energy  : -5102.5913082 Eh     change    :  -0.7539064E-01 Eh
   gradient norm :     0.7622411 Eh/a0  converged?    E=F G=F D=F
   time step     :     0.2500000 fs     power     :   0.3860959E-05
   step length   :     0.0957702 a0     speed     :   0.9266285E-02

........................................................................
.............................. CYCLE    2 ..............................
........................................................................

 iter      E             dE          RMSdq      gap      omega  full diag
   1  -5163.5117012 -0.516351E+04  0.165E-02    2.32       0.0  T
   2  -5163.5120368 -0.335663E-03  0.871E-03    2.31       1.0  T
   3  -5163.5120541 -0.172306E-04  0.467E-03    2.31       1.0  T
   4  -5163.5120567 -0.262852E-05  0.116E-03    2.31       1.4  T
   5  -5163.5120584 -0.168266E-05  0.430E-04    2.31       3.8  T
   6  -5163.5120585 -0.144194E-06  0.204E-04    2.31       8.0  T
   7  -5163.5120586 -0.324389E-07  0.113E-04    2.31      14.4  T
     SCC iter.                  ...       17 min, 37.600 sec
     gradient                   ...        5 min,  3.327 sec
 * total energy  : -5102.6925137 Eh     change    :  -0.1012055E+00 Eh
   gradient norm :     0.6844456 Eh/a0  converged?    E=F G=F D=F
   time step     :     0.2500000 fs     power     :   0.5073127E-05
   step length   :     0.1403186 a0     speed     :   0.1357658E-01

........................................................................
.............................. CYCLE    3 ..............................
........................................................................

 iter      E             dE          RMSdq      gap      omega  full diag
   1  -5163.9124754 -0.516391E+04  0.208E-02    2.38       0.0  T
   2  -5163.9129866 -0.511206E-03  0.111E-02    2.37       1.0  T
   3  -5163.9130125 -0.259432E-04  0.589E-03    2.37       1.0  T
   4  -5163.9130171 -0.454288E-05  0.145E-03    2.36       1.1  T
   5  -5163.9130197 -0.260038E-05  0.534E-04    2.36       3.0  T
   6  -5163.9130199 -0.215801E-06  0.254E-04    2.36       6.4  T
   7  -5163.9130199 -0.495183E-07  0.138E-04    2.36      11.8  T
     SCC iter.                  ...       17 min, 40.386 sec
     gradient                   ...        5 min,  0.715 sec
 * total energy  : -5102.8065341 Eh     change    :  -0.1140204E+00 Eh
   gradient norm :     0.5896604 Eh/a0  converged?    E=F G=F D=F
   time step     :     0.2500000 fs     power     :   0.5569410E-05
   step length   :     0.1802441 a0     speed     :   0.1743959E-01

........................................................................
.............................. CYCLE    4 ..............................
........................................................................

 iter      E             dE          RMSdq      gap      omega  full diag
   1  -5164.3883966 -0.516439E+04  0.241E-02    2.44       0.0  T
   2  -5164.3890399 -0.643225E-03  0.129E-02    2.43       1.0  T
   3  -5164.3890720 -0.320886E-04  0.680E-03    2.43       1.0  T
   4  -5164.3890789 -0.698722E-05  0.166E-03    2.43       1.0  T
   5  -5164.3890823 -0.337923E-05  0.613E-04    2.43       2.6  T
   6  -5164.3890826 -0.273559E-06  0.295E-04    2.43       5.5  T
   7  -5164.3890827 -0.672089E-07  0.158E-04    2.43      10.3  T
     SCC iter.                  ...       17 min, 43.769 sec
     gradient                   ...        4 min, 54.595 sec
 * total energy  : -5102.9195842 Eh     change    :  -0.1130501E+00 Eh
   gradient norm :     0.4866744 Eh/a0  converged?    E=F G=F D=F
   time step     :     0.2500000 fs     power     :   0.5339845E-05
   step length   :     0.2142911 a0     speed     :   0.2073381E-01

........................................................................
.............................. CYCLE    5 ..............................
........................................................................

 iter      E             dE          RMSdq      gap      omega  full diag
   1  -5164.9241162 -0.516492E+04  0.262E-02    2.51       0.0  T
   2  -5164.9248128 -0.696567E-03  0.142E-02    2.50       1.0  T
   3  -5164.9248464 -0.336732E-04  0.734E-03    2.50       1.0  T
   4  -5164.9248564 -0.992358E-05  0.178E-03    2.50       1.0  T
   5  -5164.9248602 -0.382822E-05  0.659E-04    2.50       2.5  T
   6  -5164.9248605 -0.296674E-06  0.320E-04    2.50       5.1  T
   7  -5164.9248606 -0.792952E-07  0.168E-04    2.50       9.6  T
     SCC iter.                  ...       17 min, 42.801 sec
     gradient                   ...        4 min, 55.150 sec
 * total energy  : -5103.0194405 Eh     change    :  -0.9985628E-01 Eh
   gradient norm :     0.3881088 Eh/a0  converged?    E=F G=F D=F
   time step     :     0.2500000 fs     power     :   0.4499817E-05
   step length   :     0.2414033 a0     speed     :   0.2335706E-01

........................................................................
.............................. CYCLE    6 ..............................
........................................................................

 iter      E             dE          RMSdq      gap      omega  full diag
   1  -5165.5636919 -0.516556E+04  0.299E-02    2.59       0.0  T
   2  -5165.5644995 -0.807637E-03  0.165E-02    2.58       1.0  T
   3  -5165.5645362 -0.366426E-04  0.825E-03    2.59       1.0  T
   4  -5165.5645524 -0.162554E-04  0.199E-03    2.58       1.0  T
   5  -5165.5645571 -0.465831E-05  0.739E-04    2.58       2.2  T
   6  -5165.5645574 -0.337538E-06  0.357E-04    2.58       4.5  T
   7  -5165.5645575 -0.977798E-07  0.184E-04    2.58       8.8  T
     SCC iter.                  ...       17 min, 44.541 sec
     gradient                   ...        4 min, 56.855 sec
 * total energy  : -5103.1043617 Eh     change    :  -0.8492121E-01 Eh
   gradient norm :     0.3059410 Eh/a0  converged?    E=F G=F D=F
   time step     :     0.2750000 fs     power     :   0.3126478E-05
   step length   :     0.2888367 a0     speed     :   0.2540592E-01

........................................................................
.............................. CYCLE    7 ..............................
........................................................................

 iter      E             dE          RMSdq      gap      omega  full diag
   1  -5166.2897269 -0.516629E+04  0.324E-02    2.67       0.0  T
   2  -5166.2905595 -0.832559E-03  0.182E-02    2.66       1.0  T
   3  -5166.2905936 -0.341628E-04  0.871E-03    2.67       1.0  T
   4  -5166.2906172 -0.235936E-04  0.207E-03    2.66       1.0  T
   5  -5166.2906221 -0.487691E-05  0.790E-04    2.66       2.1  T
   6  -5166.2906224 -0.333459E-06  0.369E-04    2.66       4.4  T
   7  -5166.2906225 -0.101943E-06  0.187E-04    2.66       8.7  T
     SCC iter.                  ...       17 min, 42.438 sec
     gradient                   ...        4 min, 56.227 sec
 * total energy  : -5103.1627194 Eh     change    :  -0.5835771E-01 Eh
   gradient norm :     0.2757322 Eh/a0  converged?    E=F G=F D=F
   time step     :     0.3025000 fs     power     :   0.1520623E-05
   step length   :     0.3309099 a0     speed     :   0.2646059E-01

........................................................................
.............................. CYCLE    8 ..............................
........................................................................

 iter      E             dE          RMSdq      gap      omega  full diag
   1  -5167.0504533 -0.516705E+04  0.333E-02    2.74       0.0  T
   2  -5167.0512771 -0.823731E-03  0.189E-02    2.73       1.0  T
   3  -5167.0513105 -0.334406E-04  0.885E-03    2.75       1.0  T
   4  -5167.0513356 -0.251281E-04  0.198E-03    2.74       1.0  T
   5  -5167.0513401 -0.442985E-05  0.814E-04    2.74       2.0  T
   6  -5167.0513404 -0.306166E-06  0.365E-04    2.74       4.5  T
   7  -5167.0513405 -0.884565E-07  0.171E-04    2.74       9.5  T
     SCC iter.                  ...       17 min, 47.320 sec
     gradient                   ...        4 min, 55.216 sec
 * total energy  : -5103.1914429 Eh     change    :  -0.2872344E-01 Eh
   gradient norm :     0.3042174 Eh/a0  converged?    E=F G=F D=F
   time step     :     0.3327500 fs     power     :   0.2051800E-06
   step length   :     0.3577334 a0     speed     :   0.2600498E-01

........................................................................
.............................. CYCLE    9 ..............................
........................................................................

 iter      E             dE          RMSdq      gap      omega  full diag
   1  -5167.7732966 -0.516777E+04  0.332E-02    2.79       0.0  T
   2  -5167.7741357 -0.839039E-03  0.188E-02    2.79       1.0  T
   3  -5167.7741734 -0.377831E-04  0.896E-03    2.80       1.0  T
   4  -5167.7741927 -0.192987E-04  0.179E-03    2.79       1.0  T
   5  -5167.7741966 -0.382370E-05  0.811E-04    2.80       2.0  T
   6  -5167.7741968 -0.261260E-06  0.314E-04    2.79       5.2  T
   7  -5167.7741969 -0.526679E-07  0.138E-04    2.79      11.8  T
     SCC iter.                  ...       17 min, 41.941 sec
     gradient                   ...        4 min, 55.364 sec
 * total energy  : -5103.1996275 Eh     change    :  -0.8184684E-02 Eh
   gradient norm :     0.3490459 Eh/a0  converged?    E=F G=F D=F
   time step     :     0.3660250 fs     power     :  -0.4386543E-06
   step length   :     0.3669587 a0     speed     :   0.2425055E-01

........................................................................
.............................. CYCLE   10 ..............................
........................................................................
 * reset velocities

 iter      E             dE          RMSdq      gap      omega  full diag
   1  -5167.7643066 -0.516776E+04  0.136E-03    2.79       0.0  T
   2  -5167.7643085 -0.189786E-05  0.743E-04    2.79       2.2  T
   3  -5167.7643085 -0.722712E-07  0.386E-04    2.79       4.2  T
   4  -5167.7643086 -0.186819E-07  0.883E-05    2.79      18.4  T
     SCC iter.                  ...       10 min, 10.944 sec
     gradient                   ...        4 min, 55.154 sec
 * total energy  : -5103.2034129 Eh     change    :  -0.3785344E-02 Eh
   gradient norm :     0.3416441 Eh/a0  converged?    E=F G=F D=F
   time step     :     0.1830125 fs     power     :   0.2715098E-06
   step length   :     0.0109611 a0     speed     :   0.1448732E-02

........................................................................
.............................. CYCLE   11 ..............................
........................................................................

 iter      E             dE          RMSdq      gap      omega  full diag
   1  -5167.7447973 -0.516774E+04  0.269E-03    2.78       0.0  T
   2  -5167.7448047 -0.739185E-05  0.147E-03    2.78       1.1  T
   3  -5167.7448050 -0.291911E-06  0.765E-04    2.78       2.1  T
   4  -5167.7448051 -0.766177E-07  0.174E-04    2.78       9.3  T
     SCC iter.                  ...       10 min,  8.633 sec
     gradient                   ...        4 min, 54.540 sec
 * total energy  : -5103.2106652 Eh     change    :  -0.7252349E-02 Eh
   gradient norm :     0.3271518 Eh/a0  converged?    E=F G=F D=F
   time step     :     0.1830125 fs     power     :   0.5143636E-06
   step length   :     0.0216895 a0     speed     :   0.2866716E-02

........................................................................
.............................. CYCLE   12 ..............................
........................................................................

 iter      E             dE          RMSdq      gap      omega  full diag
   1  -5167.7162309 -0.516772E+04  0.395E-03    2.77       0.0  T
   2  -5167.7162466 -0.156831E-04  0.216E-03    2.77       1.0  T
   3  -5167.7162472 -0.622525E-06  0.112E-03    2.77       1.4  T
   4  -5167.7162474 -0.176401E-06  0.257E-04    2.77       6.3  T
   5  -5167.7162474 -0.934806E-07  0.865E-05    2.77      18.8  T
     SCC iter.                  ...       12 min, 40.174 sec
     gradient                   ...        4 min, 51.706 sec
 * total energy  : -5103.2207812 Eh     change    :  -0.1011592E-01 Eh
   gradient norm :     0.3061284 Eh/a0  converged?    E=F G=F D=F
   time step     :     0.1830125 fs     power     :   0.7087855E-06
   step length   :     0.0319613 a0     speed     :   0.4224336E-02

........................................................................
.............................. CYCLE   13 ..............................
........................................................................

 iter      E             dE          RMSdq      gap      omega  full diag
   1  -5167.6794947 -0.516768E+04  0.510E-03    2.76       0.0  T
   2  -5167.6795203 -0.256539E-04  0.279E-03    2.76       1.0  T
   3  -5167.6795213 -0.998128E-06  0.144E-03    2.76       1.1  T
   4  -5167.6795216 -0.297677E-06  0.329E-04    2.76       4.9  T
   5  -5167.6795218 -0.154861E-06  0.112E-04    2.76      14.5  T
     SCC iter.                  ...       12 min, 33.881 sec
     gradient                   ...        4 min, 54.049 sec
 * total energy  : -5103.2329327 Eh     change    :  -0.1215155E-01 Eh
   gradient norm :     0.2793794 Eh/a0  converged?    E=F G=F D=F
   time step     :     0.1830125 fs     power     :   0.8398089E-06
   step length   :     0.0415667 a0     speed     :   0.5493893E-02

........................................................................
.............................. CYCLE   14 ..............................
........................................................................

 iter      E             dE          RMSdq      gap      omega  full diag
   1  -5167.6358478 -0.516764E+04  0.612E-03    2.74       0.0  T
   2  -5167.6358836 -0.357587E-04  0.336E-03    2.75       1.0  T
   3  -5167.6358849 -0.137310E-05  0.172E-03    2.74       1.0  T
   4  -5167.6358854 -0.451651E-06  0.391E-04    2.75       4.1  T
   5  -5167.6358856 -0.221761E-06  0.134E-04    2.75      12.1  T
     SCC iter.                  ...       12 min, 37.758 sec
     gradient                   ...        4 min, 55.700 sec
 * total energy  : -5103.2461516 Eh     change    :  -0.1321890E-01 Eh
   gradient norm :     0.2481029 Eh/a0  converged?    E=F G=F D=F
   time step     :     0.1830125 fs     power     :   0.8990248E-06
   step length   :     0.0503150 a0     speed     :   0.6650158E-02

........................................................................
.............................. CYCLE   15 ..............................
........................................................................

 iter      E             dE          RMSdq      gap      omega  full diag
   1  -5167.5869904 -0.516759E+04  0.697E-03    2.73       0.0  T
   2  -5167.5870349 -0.444471E-04  0.386E-03    2.73       1.0  T
   3  -5167.5870365 -0.167336E-05  0.195E-03    2.73       1.0  T
   4  -5167.5870372 -0.628395E-06  0.439E-04    2.73       3.7  T
   5  -5167.5870374 -0.285151E-06  0.153E-04    2.73      10.6  T
     SCC iter.                  ...       12 min, 35.512 sec
     gradient                   ...        4 min, 53.243 sec
 * total energy  : -5103.2594298 Eh     change    :  -0.1327814E-01 Eh
   gradient norm :     0.2139277 Eh/a0  converged?    E=F G=F D=F
   time step     :     0.1830125 fs     power     :   0.8855212E-06
   step length   :     0.0580389 a0     speed     :   0.7671029E-02

........................................................................
.............................. CYCLE   16 ..............................
........................................................................

 iter      E             dE          RMSdq      gap      omega  full diag
   1  -5167.5295075 -0.516753E+04  0.847E-03    2.71       0.0  T
   2  -5167.5295693 -0.617364E-04  0.472E-03    2.71       1.0  T
   3  -5167.5295715 -0.224562E-05  0.235E-03    2.71       1.0  T
   4  -5167.5295725 -0.101661E-05  0.522E-04    2.71       3.1  T
   5  -5167.5295729 -0.412944E-06  0.184E-04    2.71       8.8  T
   6  -5167.5295730 -0.243053E-07  0.105E-04    2.71      15.4  T
     SCC iter.                  ...       15 min,  9.166 sec
     gradient                   ...        4 min, 52.223 sec
 * total energy  : -5103.2730551 Eh     change    :  -0.1362530E-01 Eh
   gradient norm :     0.1755502 Eh/a0  converged?    E=F G=F D=F
   time step     :     0.2013138 fs     power     :   0.7944435E-06
   step length   :     0.0717818 a0     speed     :   0.8624939E-02

........................................................................
.............................. CYCLE   17 ..............................
........................................................................

 iter      E             dE          RMSdq      gap      omega  full diag
   1  -5167.4661340 -0.516747E+04  0.994E-03    2.69       0.0  T
   2  -5167.4662117 -0.776390E-04  0.561E-03    2.69       1.0  T
   3  -5167.4662143 -0.263691E-05  0.271E-03    2.69       1.0  T
   4  -5167.4662159 -0.158591E-05  0.590E-04    2.69       2.8  T
   5  -5167.4662164 -0.546032E-06  0.207E-04    2.69       7.8  T
   6  -5167.4662165 -0.298160E-07  0.115E-04    2.69      14.1  T
     SCC iter.                  ...       15 min,  7.135 sec
     gradient                   ...        4 min, 53.611 sec
 * total energy  : -5103.2856297 Eh     change    :  -0.1257468E-01 Eh
   gradient norm :     0.1380540 Eh/a0  converged?    E=F G=F D=F
   time step     :     0.2214451 fs     power     :   0.6239449E-06
   step length   :     0.0864639 a0     speed     :   0.9444607E-02

........................................................................
.............................. CYCLE   18 ..............................
........................................................................

 iter      E             dE          RMSdq      gap      omega  full diag
   1  -5167.4039557 -0.516740E+04  0.112E-02    2.66       0.0  T
   2  -5167.4040408 -0.851446E-04  0.640E-03    2.67       1.0  T
   3  -5167.4040433 -0.250963E-05  0.295E-03    2.66       1.0  T
   4  -5167.4040457 -0.241881E-05  0.626E-04    2.67       2.6  T
   5  -5167.4040464 -0.638129E-06  0.227E-04    2.67       7.2  T
   6  -5167.4040464 -0.351847E-07  0.124E-04    2.67      13.1  T
     SCC iter.                  ...       15 min,  6.016 sec
     gradient                   ...        4 min, 53.169 sec
 * total energy  : -5103.2956174 Eh     change    :  -0.9987698E-02 Eh
   gradient norm :     0.1138637 Eh/a0  converged?    E=F G=F D=F
   time step     :     0.2435896 fs     power     :   0.3973681E-06
   step length   :     0.1009625 a0     speed     :   0.1002574E-01

........................................................................
.............................. CYCLE   19 ..............................
........................................................................

 iter      E             dE          RMSdq      gap      omega  full diag
   1  -5167.3569825 -0.516736E+04  0.118E-02    2.64       0.0  T
   2  -5167.3570582 -0.757542E-04  0.689E-03    2.65       1.0  T
   3  -5167.3570597 -0.146346E-05  0.292E-03    2.64       1.0  T
   4  -5167.3570631 -0.344590E-05  0.595E-04    2.65       2.7  T
   5  -5167.3570637 -0.598518E-06  0.229E-04    2.65       7.1  T
   6  -5167.3570638 -0.348318E-07  0.121E-04    2.65      13.4  T
     SCC iter.                  ...       15 min,  9.823 sec
     gradient                   ...        4 min, 50.413 sec
 * total energy  : -5103.3020956 Eh     change    :  -0.6478217E-02 Eh
   gradient norm :     0.1174864 Eh/a0  converged?    E=F G=F D=F
   time step     :     0.2679486 fs     power     :   0.1787233E-06
   step length   :     0.1128873 a0     speed     :   0.1019081E-01

........................................................................
.............................. CYCLE   20 ..............................
........................................................................

 iter      E             dE          RMSdq      gap      omega  full diag
   1  -5167.3423787 -0.516734E+04  0.115E-02    2.63       0.0  T
   2  -5167.3424325 -0.538390E-04  0.689E-03    2.63       1.0  T
   3  -5167.3424325  0.308464E-07  0.258E-03    2.63       1.0  T
   4  -5167.3424366 -0.413861E-05  0.493E-04    2.63       3.3  T
   5  -5167.3424370 -0.414563E-06  0.210E-04    2.63       7.7  T
   6  -5167.3424371 -0.279124E-07  0.107E-04    2.63      15.2  T
     SCC iter.                  ...       15 min,  6.853 sec
     gradient                   ...        4 min, 52.797 sec
 * total energy  : -5103.3057281 Eh     change    :  -0.3632433E-02 Eh
   gradient norm :     0.1411707 Eh/a0  converged?    E=F G=F D=F
   time step     :     0.2947435 fs     power     :   0.5170411E-07
   step length   :     0.1198956 a0     speed     :   0.9839524E-02
 * RMSD in coord.:     0.0329525 a0     energy gain  -0.7898105E+00 Eh

........................................................................
.............................. CYCLE   21 ..............................
........................................................................

 iter      E             dE          RMSdq      gap      omega  full diag
   1  -5167.3633038 -0.516736E+04  0.837E-03    2.62       0.0  T
   2  -5167.3633258 -0.219510E-04  0.504E-03    2.63       1.0  T
   3  -5167.3633255  0.333766E-06  0.170E-03    2.62       1.0  T
   4  -5167.3633276 -0.218536E-05  0.298E-04    2.63       5.5  T
   5  -5167.3633278 -0.149802E-06  0.142E-04    2.63      11.4  T
   6  -5167.3633278 -0.122491E-07  0.658E-05    2.63      24.7  T
     SCC iter.                  ...       15 min,  9.783 sec
     gradient                   ...        4 min, 56.757 sec
 * total energy  : -5103.3081315 Eh     change    :  -0.2403431E-02 Eh
   gradient norm :     0.1595030 Eh/a0  converged?    E=F G=F D=F
   time step     :     0.2500000 fs     power     :   0.7037544E-07
   step length   :     0.0945836 a0     speed     :   0.9151471E-02

........................................................................
.............................. CYCLE   22 ..............................
........................................................................

 iter      E             dE          RMSdq      gap      omega  full diag
   1  -5167.4153896 -0.516742E+04  0.730E-03    2.62       0.0  T
   2  -5167.4154068 -0.171632E-04  0.436E-03    2.63       1.0  T
   3  -5167.4154068 -0.497121E-07  0.149E-03    2.63       1.1  T
   4  -5167.4154080 -0.116520E-05  0.231E-04    2.63       7.0  T
   5  -5167.4154081 -0.967257E-07  0.113E-04    2.63      14.3  T
   6  -5167.4154081 -0.582895E-08  0.381E-05    2.63      42.6  T
     SCC iter.                  ...       15 min, 14.567 sec
     gradient                   ...        4 min, 56.092 sec
 * total energy  : -5103.3117014 Eh     change    :  -0.3569903E-02 Eh
   gradient norm :     0.1687381 Eh/a0  converged?    E=F G=F D=F
   time step     :     0.2500000 fs     power     :   0.1564151E-06
   step length   :     0.0887767 a0     speed     :   0.8589627E-02

........................................................................
.............................. CYCLE   23 ..............................
........................................................................

 iter      E             dE          RMSdq      gap      omega  full diag
   1  -5167.4947412 -0.516749E+04  0.677E-03    2.63       0.0  T
   2  -5167.4947615 -0.203350E-04  0.394E-03    2.63       1.0  T
   3  -5167.4947620 -0.416576E-06  0.153E-03    2.63       1.1  T
   4  -5167.4947625 -0.594215E-06  0.214E-04    2.63       7.6  T
   5  -5167.4947626 -0.844466E-07  0.102E-04    2.63      15.9  T
     SCC iter.                  ...       12 min, 40.403 sec
     gradient                   ...        4 min, 54.094 sec
 * total energy  : -5103.3170863 Eh     change    :  -0.5384933E-02 Eh
   gradient norm :     0.1677318 Eh/a0  converged?    E=F G=F D=F
   time step     :     0.2500000 fs     power     :   0.2627445E-06
   step length   :     0.0855916 a0     speed     :   0.8281443E-02

........................................................................
.............................. CYCLE   24 ..............................
........................................................................

 iter      E             dE          RMSdq      gap      omega  full diag
   1  -5167.5965461 -0.516760E+04  0.678E-03    2.64       0.0  T
   2  -5167.5965735 -0.274025E-04  0.382E-03    2.64       1.0  T
   3  -5167.5965742 -0.641454E-06  0.165E-03    2.64       1.0  T
   4  -5167.5965746 -0.447285E-06  0.244E-04    2.64       6.6  T
   5  -5167.5965747 -0.106153E-06  0.113E-04    2.64      14.4  T
     SCC iter.                  ...       12 min, 36.650 sec
     gradient                   ...        4 min, 54.178 sec
 * total energy  : -5103.3241705 Eh     change    :  -0.7084165E-02 Eh
   gradient norm :     0.1573402 Eh/a0  converged?    E=F G=F D=F
   time step     :     0.2500000 fs     power     :   0.3517266E-06
   step length   :     0.0851406 a0     speed     :   0.8237813E-02

........................................................................
.............................. CYCLE   25 ..............................
........................................................................

 iter      E             dE          RMSdq      gap      omega  full diag
   1  -5167.7153000 -0.516772E+04  0.712E-03    2.66       0.0  T
   2  -5167.7153351 -0.351723E-04  0.394E-03    2.66       1.0  T
   3  -5167.7153359 -0.819069E-06  0.178E-03    2.66       1.0  T
   4  -5167.7153364 -0.495840E-06  0.303E-04    2.66       5.3  T
   5  -5167.7153366 -0.163930E-06  0.134E-04    2.66      12.1  T
     SCC iter.                  ...       12 min, 37.494 sec
     gradient                   ...        4 min, 52.558 sec
 * total energy  : -5103.3323125 Eh     change    :  -0.8142037E-02 Eh
   gradient norm :     0.1394931 Eh/a0  converged?    E=F G=F D=F
   time step     :     0.2500000 fs     power     :   0.3994396E-06
   step length   :     0.0867786 a0     speed     :   0.8396299E-02

........................................................................
.............................. CYCLE   26 ..............................
........................................................................

 iter      E             dE          RMSdq      gap      omega  full diag
   1  -5167.8588582 -0.516786E+04  0.842E-03    2.68       0.0  T
   2  -5167.8589093 -0.510696E-04  0.464E-03    2.67       1.0  T
   3  -5167.8589105 -0.116765E-05  0.211E-03    2.68       1.0  T
   4  -5167.8589113 -0.807921E-06  0.404E-04    2.67       4.0  T
   5  -5167.8589116 -0.288621E-06  0.172E-04    2.67       9.5  T
     SCC iter.                  ...       12 min, 36.144 sec
     gradient                   ...        4 min, 52.611 sec
 * total energy  : -5103.3414502 Eh     change    :  -0.9137659E-02 Eh
   gradient norm :     0.1146490 Eh/a0  converged?    E=F G=F D=F
   time step     :     0.2750000 fs     power     :   0.3911586E-06
   step length   :     0.0991697 a0     speed     :   0.8722906E-02

........................................................................
.............................. CYCLE   27 ..............................
........................................................................

 iter      E             dE          RMSdq      gap      omega  full diag
   1  -5168.0213380 -0.516802E+04  0.986E-03    2.70       0.0  T
   2  -5168.0214055 -0.674957E-04  0.547E-03    2.70       1.0  T
   3  -5168.0214070 -0.149377E-05  0.245E-03    2.70       1.0  T
   4  -5168.0214084 -0.139099E-05  0.500E-04    2.70       3.2  T
   5  -5168.0214088 -0.432183E-06  0.209E-04    2.70       7.8  T
   6  -5168.0214088 -0.343261E-07  0.122E-04    2.70      13.3  T
     SCC iter.                  ...       15 min,  9.405 sec
     gradient                   ...        4 min, 52.408 sec
 * total energy  : -5103.3502896 Eh     change    :  -0.8839402E-02 Eh
   gradient norm :     0.0886030 Eh/a0  converged?    E=F G=F D=F
   time step     :     0.3025000 fs     power     :   0.3187702E-06
   step length   :     0.1139228 a0     speed     :   0.9109619E-02

........................................................................
.............................. CYCLE   28 ..............................
........................................................................

 iter      E             dE          RMSdq      gap      omega  full diag
   1  -5168.1879309 -0.516819E+04  0.111E-02    2.72       0.0  T
   2  -5168.1880088 -0.779147E-04  0.623E-03    2.72       1.0  T
   3  -5168.1880104 -0.159371E-05  0.271E-03    2.72       1.0  T
   4  -5168.1880127 -0.224850E-05  0.553E-04    2.72       2.9  T
   5  -5168.1880132 -0.510485E-06  0.229E-04    2.72       7.1  T
   6  -5168.1880132 -0.399496E-07  0.130E-04    2.72      12.4  T
     SCC iter.                  ...       15 min,  8.776 sec
     gradient                   ...        4 min, 51.748 sec
 * total energy  : -5103.3573801 Eh     change    :  -0.7090509E-02 Eh
   gradient norm :     0.0757513 Eh/a0  converged?    E=F G=F D=F
   time step     :     0.3327500 fs     power     :   0.2015658E-06
   step length   :     0.1293590 a0     speed     :   0.9403590E-02

........................................................................
.............................. CYCLE   29 ..............................
........................................................................

 iter      E             dE          RMSdq      gap      omega  full diag
   1  -5168.3308695 -0.516833E+04  0.116E-02    2.74       0.0  T
   2  -5168.3309430 -0.734267E-04  0.661E-03    2.74       1.0  T
   3  -5168.3309443 -0.138247E-05  0.276E-03    2.74       1.0  T
   4  -5168.3309474 -0.306951E-05  0.537E-04    2.74       3.0  T
   5  -5168.3309479 -0.456165E-06  0.237E-04    2.74       6.8  T
   6  -5168.3309479 -0.416303E-07  0.133E-04    2.74      12.2  T
     SCC iter.                  ...       15 min,  9.310 sec
     gradient                   ...        4 min, 51.341 sec
 * total energy  : -5103.3621421 Eh     change    :  -0.4761958E-02 Eh
   gradient norm :     0.0859901 Eh/a0  converged?    E=F G=F D=F
   time step     :     0.3660250 fs     power     :   0.9879779E-07
   step length   :     0.1419313 a0     speed     :   0.9379561E-02

........................................................................
.............................. CYCLE   30 ..............................
........................................................................

 iter      E             dE          RMSdq      gap      omega  full diag
   1  -5168.4224142 -0.516842E+04  0.113E-02    2.76       0.0  T
   2  -5168.4224704 -0.562576E-04  0.647E-03    2.76       1.0  T
   3  -5168.4224714 -0.907661E-06  0.257E-03    2.76       1.0  T
   4  -5168.4224746 -0.328672E-05  0.462E-04    2.76       3.5  T
   5  -5168.4224750 -0.334505E-06  0.223E-04    2.76       7.3  T
   6  -5168.4224750 -0.339605E-07  0.109E-04    2.76      14.9  T
     SCC iter.                  ...       15 min, 11.444 sec
     gradient                   ...        4 min, 52.882 sec
 * total energy  : -5103.3657187 Eh     change    :  -0.3576628E-02 Eh
   gradient norm :     0.1028409 Eh/a0  converged?    E=F G=F D=F
   time step     :     0.4026275 fs     power     :   0.6671528E-07
   step length   :     0.1499119 a0     speed     :   0.9006326E-02

........................................................................
.............................. CYCLE   31 ..............................
........................................................................

 iter      E             dE          RMSdq      gap      omega  full diag
   1  -5168.4454911 -0.516845E+04  0.106E-02    2.76       0.0  T
   2  -5168.4455333 -0.422096E-04  0.615E-03    2.76       1.0  T
   3  -5168.4455338 -0.525191E-06  0.232E-03    2.76       1.0  T
   4  -5168.4455367 -0.289507E-05  0.403E-04    2.76       4.0  T
   5  -5168.4455370 -0.269601E-06  0.196E-04    2.76       8.3  T
   6  -5168.4455370 -0.196433E-07  0.703E-05    2.76      23.1  T
     SCC iter.                  ...       15 min, 11.159 sec
     gradient                   ...        4 min, 51.958 sec
 * total energy  : -5103.3701929 Eh     change    :  -0.4474208E-02 Eh
   gradient norm :     0.1090956 Eh/a0  converged?    E=F G=F D=F
   time step     :     0.4428903 fs     power     :   0.1011031E-06
   step length   :     0.1575417 a0     speed     :   0.8604280E-02

........................................................................
.............................. CYCLE   32 ..............................
........................................................................

 iter      E             dE          RMSdq      gap      omega  full diag
   1  -5168.3928560 -0.516839E+04  0.106E-02    2.76       0.0  T
   2  -5168.3929030 -0.469873E-04  0.614E-03    2.76       1.0  T
   3  -5168.3929037 -0.725606E-06  0.231E-03    2.76       1.0  T
   4  -5168.3929059 -0.213065E-05  0.425E-04    2.76       3.8  T
   5  -5168.3929062 -0.331128E-06  0.181E-04    2.76       9.0  T
   6  -5168.3929062 -0.128966E-07  0.847E-05    2.76      19.2  T
     SCC iter.                  ...       15 min, 11.694 sec
     gradient                   ...        4 min, 53.656 sec
 * total energy  : -5103.3767924 Eh     change    :  -0.6599514E-02 Eh
   gradient norm :     0.0984404 Eh/a0  converged?    E=F G=F D=F
   time step     :     0.4871793 fs     power     :   0.1473026E-06
   step length   :     0.1696844 a0     speed     :   0.8424969E-02

........................................................................
.............................. CYCLE   33 ..............................
........................................................................

 iter      E             dE          RMSdq      gap      omega  full diag
   1  -5168.2716343 -0.516827E+04  0.115E-02    2.74       0.0  T
   2  -5168.2717075 -0.731576E-04  0.666E-03    2.75       1.0  T
   3  -5168.2717088 -0.138014E-05  0.266E-03    2.74       1.0  T
   4  -5168.2717105 -0.170583E-05  0.506E-04    2.75       3.2  T
   5  -5168.2717110 -0.479750E-06  0.200E-04    2.75       8.1  T
   6  -5168.2717110 -0.185300E-07  0.996E-05    2.75      16.3  T
     SCC iter.                  ...       15 min, 11.034 sec
     gradient                   ...        4 min, 54.315 sec
 * total energy  : -5103.3845125 Eh     change    :  -0.7720066E-02 Eh
   gradient norm :     0.0764221 Eh/a0  converged?    E=F G=F D=F
   time step     :     0.5358972 fs     power     :   0.1416817E-06
   step length   :     0.1881135 a0     speed     :   0.8490896E-02

........................................................................
[...]
  3538   6 C     3541   7 N                                       1.3247960
  3541   7 N     3542   6 C                                       1.4486366
  3541   7 N     3543   1 H                                       1.0185183
  3518   6 C     3544   1 H                                       1.0912095
  3518   6 C     3545   1 H                                       1.0918702
  3525   6 C     3546   8 O                                       1.2281715
  3538   6 C     3547   8 O                                       1.2414956
  3542   6 C     3548   6 C                                       1.5252585
  3542   6 C     3549   1 H                                       1.0932301
  3542   6 C     3550   1 H                                       1.0961817
  3548   6 C     3551   6 C                                       1.5269112
  3548   6 C     3552   1 H                                       1.0902546
  3548   6 C     3553   1 H                                       1.0915992
  3551   6 C     3554   6 C                                       1.5277194
  3551   6 C     3555   1 H                                       1.0893260
  3551   6 C     3556   1 H                                       1.0914122
  3554   6 C     3557   6 C                                       1.5293179
  3554   6 C     3558   1 H                                       1.0914993
  3554   6 C     3559   1 H                                       1.0922861
  3557   6 C     3560   6 C                                       1.5304372
  3557   6 C     3561   1 H                                       1.0917391
  3557   6 C     3562   1 H                                       1.0923585
  3560   6 C     3563   7 N                                       1.4446224
  3560   6 C     3564   1 H                                       1.0945991
  3560   6 C     3565   1 H                                       1.0919863
  3563   7 N     3566   6 C                                       1.3346329
  3563   7 N     3567   1 H                                       1.0123626
  3568   6 C     3569   6 C                                       1.5319899
  3568   6 C     3570   1 H                                       1.0908862
  3568   6 C     3571   1 H                                       1.0892712
  3569   6 C     3572   6 C                                       1.5282460
  3569   6 C     3573   1 H                                       1.0922256
  3569   6 C     3574   1 H                                       1.0894514
  3572   6 C     3575   6 C                                       1.5341424
  3572   6 C     3576   1 H                                       1.0920582
  3572   6 C     3577   1 H                                       1.0894553
  3575   6 C     3579   1 H                                       1.0916106
  3575   6 C     3580   1 H                                       1.0900652
  3578   6 C     3581   7 N                                       1.3375984
  3581   7 N     3582   6 C                                       1.4521425
  3581   7 N     3583   1 H                                       1.0136686
  3566   6 C     3584   8 O                                       1.2343405
  3582   6 C     3585   6 C                                       1.5223110
  3582   6 C     3586   1 H                                       1.0960835
  3582   6 C     3587   1 H                                       1.0951304
  3585   6 C     3588   6 C                                       1.5302354
  3585   6 C     3589   1 H                                       1.0891937
  3585   6 C     3590   1 H                                       1.0912014
  3588   6 C     3591   6 C                                       1.5288242
  3588   6 C     3592   1 H                                       1.0909237
  3588   6 C     3593   1 H                                       1.0917559
  3591   6 C     3594   6 C                                       1.5298285
  3591   6 C     3595   1 H                                       1.0920947
  3591   6 C     3596   1 H                                       1.0904743
  3594   6 C     3597   6 C                                       1.5247802
  3594   6 C     3598   1 H                                       1.0900914
  3594   6 C     3599   1 H                                       1.0911918
  3597   6 C     3600   7 N                                       1.4501151
  3597   6 C     3601   1 H                                       1.0918096
  3597   6 C     3602   1 H                                       1.0935754
  3578   6 C     3603   8 O                                       1.2275169
  3600   7 N     3604   6 C                                       1.3334159
  3600   7 N     3605   1 H                                       1.0134628
  3606   6 C     3607   6 C                                       1.5305992
  3606   6 C     3608   1 H                                       1.0915505
  3606   6 C     3609   1 H                                       1.0906399
  3607   6 C     3610   6 C                                       1.5259898
  3607   6 C     3611   1 H                                       1.0916185
  3607   6 C     3612   1 H                                       1.0919266
  3610   6 C     3613   6 C                                       1.5258580
  3610   6 C     3614   1 H                                       1.0912120
  3610   6 C     3615   1 H                                       1.0912045
  3613   6 C     3617   1 H                                       1.0935239
  3613   6 C     3618   1 H                                       1.0880422
  3616   6 C     3619   7 N                                       1.3431216
  3604   6 C     3620   8 O                                       1.2349177
  3619   7 N     3621   6 C                                       1.4463110
  3619   7 N     3622   1 H                                       1.0125126
  3621   6 C     3623   6 C                                       1.5308210
  3621   6 C     3624   1 H                                       1.0917377
  3621   6 C     3625   1 H                                       1.0930009
  3623   6 C     3626   6 C                                       1.5278441
  3623   6 C     3627   1 H                                       1.0903344
  3623   6 C     3628   1 H                                       1.0905630
  3626   6 C     3629   6 C                                       1.5302703
  3626   6 C     3630   1 H                                       1.0919213
  3626   6 C     3631   1 H                                       1.0899702
  3629   6 C     3632   6 C                                       1.5298494
  3629   6 C     3633   1 H                                       1.0913796
  3629   6 C     3634   1 H                                       1.0916254
  3632   6 C     3635   6 C                                       1.5230636
  3632   6 C     3636   1 H                                       1.0906434
  3632   6 C     3637   1 H                                       1.0918409
  3635   6 C     3638   7 N                                       1.4479685
  3635   6 C     3639   1 H                                       1.0962410
  3635   6 C     3640   1 H                                       1.0953651
  3638   7 N     3641   6 C                                       1.3306709
  3638   7 N     3642   1 H                                       1.0146222
  3616   6 C     3643   8 O                                       1.2239761
  3644   6 C     3645   6 C                                       1.5220465
  3644   6 C     3646   1 H                                       1.0913775
  3644   6 C     3647   1 H                                       1.0925479
  3645   6 C     3648   6 C                                       1.5234940
  3645   6 C     3649   1 H                                       1.0903569
  3645   6 C     3650   1 H                                       1.0925391
  3648   6 C     3651   6 C                                       1.5333533
  3648   6 C     3652   1 H                                       1.0914290
  3648   6 C     3653   1 H                                       1.0912222
  3651   6 C     3655   1 H                                       1.0909074
  3651   6 C     3656   1 H                                       1.0896653
  3654   6 C     3657   7 N                                       1.3318106
  3657   7 N     3658   6 C                                       1.4485071
  3657   7 N     3659   1 H                                       1.0088174
  3641   6 C     3660   8 O                                       1.2306436
  3658   6 C     3661   6 C                                       1.5251831
  3658   6 C     3662   1 H                                       1.0937904
  3658   6 C     3663   1 H                                       1.0969538
  3661   6 C     3664   6 C                                       1.5291146
  3661   6 C     3665   1 H                                       1.0901236
  3661   6 C     3666   1 H                                       1.0902938
  3664   6 C     3667   6 C                                       1.5293942
  3664   6 C     3668   1 H                                       1.0898905
  3664   6 C     3669   1 H                                       1.0913797
  3667   6 C     3670   6 C                                       1.5320085
  3667   6 C     3671   1 H                                       1.0915045
  3667   6 C     3672   1 H                                       1.0916439
  3670   6 C     3673   6 C                                       1.5297049
  3670   6 C     3674   1 H                                       1.0915164
  3670   6 C     3675   1 H                                       1.0899701
  3673   6 C     3676   7 N                                       1.4433729
  3673   6 C     3677   1 H                                       1.0959231
  3673   6 C     3678   1 H                                       1.0903358
  3676   7 N     3679   6 C                                       1.3357956
  3676   7 N     3680   1 H                                       1.0139082
  3654   6 C     3681   8 O                                       1.2316146
  3682   6 C     3683   6 C                                       1.5244867
  3682   6 C     3684   1 H                                       1.0933496
  3682   6 C     3685   1 H                                       1.0897744
  3683   6 C     3686   6 C                                       1.5294113
  3683   6 C     3687   1 H                                       1.0910119
  3683   6 C     3688   1 H                                       1.0921472
  3686   6 C     3689   6 C                                       1.5354743
  3686   6 C     3690   1 H                                       1.0920104
  3686   6 C     3691   1 H                                       1.0919217
  3689   6 C     3693   1 H                                       1.0891997
  3689   6 C     3694   1 H                                       1.0919137
  3692   6 C     3695   7 N                                       1.3302944
  3679   6 C     3696   8 O                                       1.2320170
  3695   7 N     3697   6 C                                       1.4532181
  3695   7 N     3698   1 H                                       1.0149958
  3697   6 C     3699   6 C                                       1.5223133
  3697   6 C     3700   1 H                                       1.0958746
  3697   6 C     3701   1 H                                       1.0926884
  3699   6 C     3702   6 C                                       1.5279368
  3699   6 C     3703   1 H                                       1.0916240
  3699   6 C     3704   1 H                                       1.0918613
  3702   6 C     3705   6 C                                       1.5290454
  3702   6 C     3706   1 H                                       1.0917893
  3702   6 C     3707   1 H                                       1.0902717
  3705   6 C     3708   6 C                                       1.5277329
  3705   6 C     3709   1 H                                       1.0899036
  3705   6 C     3710   1 H                                       1.0915085
  3708   6 C     3711   6 C                                       1.5257161
  3708   6 C     3712   1 H                                       1.0922451
  3708   6 C     3713   1 H                                       1.0915978
  3711   6 C     3714   7 N                                       1.4484380
  3711   6 C     3715   1 H                                       1.0946532
  3711   6 C     3716   1 H                                       1.0930543
  3714   7 N     3717   6 C                                       1.3302960
  3714   7 N     3718   1 H                                       1.0167751
  3692   6 C     3719   8 O                                       1.2326856
  3720   6 C     3721   6 C                                       1.5322932
  3720   6 C     3722   1 H                                       1.0917189
  3720   6 C     3723   1 H                                       1.0893937
  3721   6 C     3724   6 C                                       1.5282176
  3721   6 C     3725   1 H                                       1.0918881
  3721   6 C     3726   1 H                                       1.0924086
  3724   6 C     3727   6 C                                       1.5271673
  3724   6 C     3728   1 H                                       1.0914150
  3724   6 C     3729   1 H                                       1.0918980
  3727   6 C     3731   1 H                                       1.0897571
  3727   6 C     3732   1 H                                       1.0938771
  3730   6 C     3733   7 N                                       1.3334562
  3733   7 N     3734   6 C                                       1.4463092
  3733   7 N     3735   1 H                                       1.0152654
  3717   6 C     3736   8 O                                       1.2345793
  3734   6 C     3737   6 C                                       1.5296358
  3734   6 C     3738   1 H                                       1.0950784
  3734   6 C     3739   1 H                                       1.0919161
  3737   6 C     3740   6 C                                       1.5314004
  3737   6 C     3741   1 H                                       1.0918687
  3737   6 C     3742   1 H                                       1.0920868
  3740   6 C     3743   6 C                                       1.5282180
  3740   6 C     3744   1 H                                       1.0919913
  3740   6 C     3745   1 H                                       1.0901071
  3743   6 C     3746   6 C                                       1.5293579
  3743   6 C     3747   1 H                                       1.0906267
  3743   6 C     3748   1 H                                       1.0919475
  3746   6 C     3749   6 C                                       1.5330358
  3746   6 C     3750   1 H                                       1.0922481
  3746   6 C     3751   1 H                                       1.0907132
  3749   6 C     3752   7 N                                       1.4477946
  3749   6 C     3753   1 H                                       1.0928082
  3749   6 C     3754   1 H                                       1.0917101
  3752   7 N     3755   6 C                                       1.3318043
  3752   7 N     3756   1 H                                       1.0186400
  3730   6 C     3757   8 O                                       1.2317916
  3758   6 C     3759   6 C                                       1.5325180
  3758   6 C     3760   1 H                                       1.0902805
  3758   6 C     3761   1 H                                       1.0881353
  3759   6 C     3762   6 C                                       1.5261732
  3759   6 C     3763   1 H                                       1.0931389
  3759   6 C     3764   1 H                                       1.0925873
  3762   6 C     3765   6 C                                       1.5262020
  3762   6 C     3766   1 H                                       1.0904855
  3762   6 C     3767   1 H                                       1.0932198
  3765   6 C     3769   1 H                                       1.0901246
  3765   6 C     3770   1 H                                       1.0923733
  3768   6 C     3771   7 N                                       1.3367325
  3755   6 C     3772   8 O                                       1.2343129
  3771   7 N     3773   6 C                                       1.4457674
  3771   7 N     3774   1 H                                       1.0184626
  3773   6 C     3775   6 C                                       1.5294832
  3773   6 C     3776   1 H                                       1.0942836
  3773   6 C     3777   1 H                                       1.0920299
  3775   6 C     3778   6 C                                       1.5246582
  3775   6 C     3779   1 H                                       1.0917732
  3775   6 C     3780   1 H                                       1.0911591
  3778   6 C     3781   6 C                                       1.5284801
  3778   6 C     3782   1 H                                       1.0908411
  3778   6 C     3783   1 H                                       1.0912662
  3781   6 C     3784   6 C                                       1.5270853
  3781   6 C     3785   1 H                                       1.0917422
  3781   6 C     3786   1 H                                       1.0922045
  3784   6 C     3787   6 C                                       1.5267741
  3784   6 C     3788   1 H                                       1.0918229
  3784   6 C     3789   1 H                                       1.0897075
  3787   6 C     3790   7 N                                       1.4604556
  3787   6 C     3791   1 H                                       1.0944217
  3787   6 C     3792   1 H                                       1.1036979
  3790   7 N     3793   1 H                                       1.0151704
  3790   7 N     3794   1 H                                       1.0139961
  3768   6 C     3795   8 O                                       1.2287317

 * 6 distinct bonds (by element types)

   Z      Z             #   av. dist./Å        max./Å        min./Å
   1 H    6 C        1980     1.0918795     1.1045537     1.0865051
   6 C    6 C         792     1.5284316     1.5401232     1.5186569
   1 H    7 N         209     1.0148144     1.0372811     1.0065069
   6 C    7 N         385     1.3933023     1.4622894     1.3244061
   1 H    8 O           3     0.9904163     0.9985936     0.9742135
   6 C    8 O         209     1.2346837     1.3253583     1.2111901


optimized geometry written to: xtbopt.xyz


           -------------------------------------------------
          | TOTAL ENERGY            -5103.688849902742 Eh   |
          | GRADIENT NORM               0.000927373094 Eh/α |
          | HOMO-LUMO GAP               2.716136916717 eV   |
           -------------------------------------------------

------------------------------------------------------------------------
 * finished run on 2024/07/09 at 21:23:47.017     
------------------------------------------------------------------------
 total:
 * wall-time:    15 d,  7 h, 36 min, 13.597 sec
 *  cpu-time:    96 d,  5 h, 42 min, 23.436 sec
 * ratio c/w:     6.283 speedup
 SCF:
 * wall-time:     0 d,  0 h, 13 min,  6.329 sec
 *  cpu-time:     0 d,  1 h, 20 min,  0.536 sec
 * ratio c/w:     6.105 speedup
 ANC optimizer:
 * wall-time:    15 d,  7 h, 22 min,  1.785 sec
 *  cpu-time:    96 d,  4 h, 20 min, 57.120 sec
 * ratio c/w:     6.283 speedup

