3258
 energy: -3427.563758041058 gnorm: 0.000906307367 xtb: 6.6.1 (8d0f1dd)
C          110.28460269787982      102.11695174398770      102.15604243123099
C          109.60467702850903      102.43889882695302      100.83122572949044
C          108.40312075637753      101.53914349968230      100.53902174251141
C          107.20937990715181      101.80064205594893      101.45543167778537
C          105.98646001291341      100.98577590679649      101.03774103355146
C          104.73766541997954      101.38177506772927      101.82052354247722
C          103.52052430167983      100.53568108866378      101.44672623890875
C          102.20916133669171      101.17055230714470      101.91882624301778
C          101.69998314998767      102.23435291280708      100.94721673506776
C          100.53929464041909      103.03506905274615      101.53246437403656
C           99.85581630792205      103.95301606839664      100.51736584241574
C          100.81169852361077      104.90713958494425       99.80148297184390
C          100.04891832098879      105.94570614712343       98.97860635721877
C          100.92126166198139      106.67290570546352       97.95568661566381
C          101.95457572640861      107.61793565619605       98.56614219577799
C          102.86212465269965      108.20326368616672       97.48592993639150
C          103.87354487253374      109.21174578603404       98.02645581623936
C          104.86695584742046      109.62409254487171       96.94274468962134
C          105.77969027167703      110.77625351854408       97.35626705270266
C          106.76227679028965      111.14097642588405       96.24372009377927
C          107.55061591915835      112.42197912142051       96.51716940706450
C          108.60778124928241      112.27952183721979       97.60884584404174
C          109.41082711447308      113.57131493275354       97.77843659749445
C          110.14674699346814      113.67347291519945       99.11508177672397
C          111.21850461649878      112.60499309700275       99.31431462389028
C          111.86559695712833      112.70352664423980      100.69453796588361
C          113.00481069932322      111.70226799991251      100.87183794541308
C          113.54818355398460      111.68971108846452      102.29847032318297
C          114.77961200143680      110.79801362523764      102.44433254807875
C          115.21917390033022      110.66308110310730      103.89998211374412
C          116.57254075779717      109.97243246875520      104.04890336426476
C          116.98549251117115      109.84951662829509      105.51423614115318
C          118.42571663382500      109.37022377819598      105.68263990318765
C          118.89760659619957      109.37118360588595      107.13906200332791
C          119.12808714717394      110.78329067762796      107.67441781817024
C          119.53728235628100      110.82178883884878      109.14544657222929
C          119.68015832340761      112.26007251929212      109.64278753229082
C          119.87114204019237      112.34563803628208      111.15442958315539
C          120.11925610577060      113.77115657742775      111.65277699207340
C          119.00651164310457      114.74870222350295      111.27280868948198
C          119.06161724916537      116.03891680629512      112.08987823696566
C          117.89766176375753      116.98814707038728      111.79464018832670
C          117.94353287730338      117.55853613000895      110.37991984564891
C          116.91267053598696      118.65761207734189      110.13640514549402
C          116.96366904085264      119.15047392019203      108.69192731005957
C          115.96228108902987      120.26604055150993      108.41054499186748
C          115.98276021671562      120.69186539895772      106.94351577039423
C          114.99129465147062      121.81567016010452      106.65411965138169
C          114.87999033349459      122.13592670942245      105.16548862357133
C          113.83081033168848      123.21196995956549      104.89660403089428
C          113.61396462537546      123.45984329829382      103.40585605747349
C          112.50702290704234      124.47991963016466      103.15145787332939
C          112.22676905744848      124.67693951436931      101.66397772130651
C          111.10601474176569      125.68535637051923      101.42516278916354
C          110.81489020791783      125.89126191581131       99.94073217303136
C          109.76188861649425      126.97322581843274       99.71216816972228
C          109.53392967053783      127.25192945822732       98.22719101466990
C          108.66370159803871      128.48566259898311       97.97741347148451
C          107.17284885782900      128.23022021476294       98.20477326309366
C          106.34865998695001      129.52344785488506       98.27959729414466
C          105.98665298140203      129.93781187424906       99.70792165260831
C          107.19827734944776      130.15597072536369      100.61026806774960
C          106.79654842079103      130.61284465609481      102.01162540317749
C          107.97866246123407      130.64070394856455      102.98388162140040
C          108.37877081267864      129.24814054920029      103.46752881123423
C          109.56336518123609      129.28322987494732      104.43080081107558
C          109.84426536708152      127.90566234569599      105.02555275729571
C          111.03390634623938      127.90429406522561      105.98200188496250
C          111.20319809062184      126.54919906447670      106.66453901119729
C          112.39271878038406      126.51660200437014      107.61968221628486
C          112.51074654754282      125.17224433516569      108.33369229285772
C          113.72169084689713      125.11678507623947      109.26116187617461
C          113.85469976868664      123.75598413894255      109.94014291995700
C          115.04224421439790      123.66478381464435      110.89788642203018
C          116.39651843827642      123.88221619118725      110.22302561541838
C          117.54937738091738      123.47628813919781      111.13791440744254
C          118.91215777749147      123.69020592506828      110.48271669503112
C          120.08112525142788      123.24054330389535      111.36146140859226
C          120.19825129521614      124.05476034591577      112.64714864559548
C          121.45216176517279      123.72073818019751      113.45344339664082
C          121.42956345581463      124.39881880339787      114.82650603773736
C          120.55100721881604      123.64796630186257      115.83156528517215
C          119.99237715921814      124.53836527948795      116.94286566594528
C          118.88026061371748      125.48954151741529      116.49153080797230
C          117.63286068687150      124.76552998593823      115.98789034324660
C          116.44871125578109      125.70934555772519      115.78883919723432
C          115.24543592372433      124.97505870008213      115.19769045206641
C          113.95616402288616      125.79011642187808      115.27309855065876
C          112.75405335048201      125.01642434166322      114.73425672239263
C          111.44262057258713      125.77307488563521      114.93740827719516
C          110.24807300181335      125.02034113917797      114.35587657146884
C          108.93102964372703      125.77037241356027      114.55291311289139
C          107.77416628186687      125.06567195773783      113.84908421166647
C          106.44924360440180      125.82038864139493      113.95266891087914
C          105.38456025781043      125.16986394934605      113.07094568324258
C          103.99582905854352      125.78099910713087      113.24240161726838
C          102.96269584312221      125.19071315272220      112.27767268972219
C          102.72078615815965      123.70096768359640      112.51082057630576
C          101.55766056948478      123.13720750644040      111.69485162654358
C          101.41338793179132      121.63432838903523      111.92850017225051
C          100.21185342281716      121.01187319670866      111.22164817110109
C          100.14177374559152      119.51038340307537      111.49437960899861
C           98.90777503624631      118.84340474070467      110.89170196178938
C           98.85580347106516      117.35622393222992      111.23449815719069
C           97.59690653002816      116.66855840432891      110.71188152691711
C           97.57896365294440      115.18721178727070      111.07815732660960
C           96.35633822992729      114.43998453300907      110.54603309836187
C           96.44648632801054      112.95376997490865      110.88314356475622
C           95.26151860611573      112.12582779931329      110.39274266055546
C           95.42749620500271      110.65780619375252      110.78652062524839
C           94.27299674842727      109.77791269539051      110.31327835369763
C           94.33291338469756      108.35358211079739      110.87072193016550
C           95.47594566973773      107.51667457537826      110.29865213280472
C           95.48399434714602      106.09488156482992      110.85991787029712
C           96.59362348750250      105.24631691410097      110.24264603525162
C           96.62356608151234      103.81729560428468      110.78240667257792
C           97.70097368399453      102.98200081890565      110.09338067394270
C           97.78323613505488      101.55264176720553      110.62323043835855
C           98.87234682293204      100.75006565916506      109.91326823697732
C           98.97903684628747       99.32643910499807      110.44541877552447
H           98.65689165050405      100.72016652184764      108.84262060155827
H           99.83293566127109      101.25682124712301      110.04033448398972
H           97.99029042312705      101.57233204871478      111.69627954222379
H           96.81983879085632      101.05683969928971      110.48348072745108
H           97.49699486681490      102.95116912716746      109.01996414142732
H           98.67037566811834      103.46866791205373      110.22991497897043
H           96.81111413420378      103.83781040900712      111.85889931987879
H           95.64835708145445      103.34963194492082      110.62740771759123
H           96.45317457840406      105.21195777129736      109.15912077571616
H           97.55805934945393      105.72315665223300      110.43421060829650
H           95.61681397647591      106.13402642953046      111.94397632256012
H           94.51782081738962      105.62264561196240      110.66495812027013
H           95.37368765395865      107.47016718589833      109.21145639446000
H           96.43222179223388      107.99143151331197      110.52472694727429
H           94.42810567087203      108.39896354502567      111.95859375475726
H           93.38839522770418      107.85098233728242      110.64639379118070
H           93.33204565059562      110.23539294475604      110.62929245136925
H           94.26784286212836      109.73669191763388      109.22199165935076
H           96.36559439329503      110.28549572177582      110.37129837864381
H           95.49840481361947      110.59264946426180      111.87478798180076
H           94.33719585972771      112.51727265368005      110.82470209006418
H           95.18192599392235      112.21007093158603      109.30651812631174
H           97.36118495124695      112.54890247412615      110.44223117263863
H           96.52949855720864      112.84349889080072      111.96516212425630
H           95.44840922177720      114.86299656315883      110.98205062692294
H           96.28578171274837      114.56476876946441      109.46240344102816
H           98.48255954686579      114.71750883800479      110.68454122396938
H           97.60933976575522      115.08801818579509      112.16525404010737
H           96.71338944957621      117.15938861800291      111.12647524299413
H           97.55638312345877      116.77466267908794      109.62607220236278
H           99.73501097530409      116.86124047572245      110.81445939645224
H           98.90261729182883      117.23880127470444      112.31989086660789
H           98.00885445489897      119.33480805251320      111.27135862297024
H           98.91678167501156      118.96774256299625      109.80572143305066
H          101.04081676075398      119.03133605590062      111.09828920576871
H          100.13780340225154      119.34804545793206      112.57547460275364
H           99.29499867554550      121.49076258237621      111.57278699017077
H          100.28488822359083      121.18716865209457      110.14564757218041
H          102.32273237097552      121.13161779654487      111.58889482592623
H          101.31866663288899      121.45204092832621      113.00274477642432
H          100.63122496450303      123.64183181336210      111.97861223552184
H          101.72369804670643      123.32957101931601      110.63219024289116
H          103.62575371197667      123.14454566050718      112.25961142876562
H          102.51631499963015      123.54101704588565      113.57207883439297
H          102.01902596443482      125.72727849231886      112.40366777276242
H          103.29499700041954      125.34978974278516      111.24873978368986
H          103.65405006936666      125.62926076999129      114.26938876958718
H          104.05919084586193      126.85898248946891      113.07358017532667
H          105.68600930528501      125.27253246747436      112.02810871027845
H          105.34544116237635      124.10471126707903      113.30464607856173
H          106.11439988602979      125.83034886234979      114.99247395863603
H          106.59422618073283      126.85828415980863      113.64394768388863
H          108.02910414991996      124.94837292680388      112.79307594697649
H          107.65034856146156      124.06501773975364      114.27008845617196
H          108.71531051314793      125.85603451430148      115.62003977943877
H          109.03111216966695      126.78233766785696      114.15271141779233
H          110.41318774161063      124.86380075244644      113.28667770668090
H          110.17656244118263      124.03543255453221      114.82355708101748
H          111.28210484094213      125.93646978579223      116.00572707064904
H          111.51523685017035      126.75414279452858      114.46179915433066
H          112.89770215851151      124.81843632709321      113.66913698868746
H          112.69104590088753      124.05019416774826      115.24060238835872
H          113.76424961197341      126.06255399694602      116.31397532807459
H          114.07587929533187      126.71823069113135      114.70924939935924
H          115.45313730756816      124.71705229645454      114.15646401515822
H          115.10511969473980      124.03752205506508      115.74025513769703
H          116.17383323471047      126.14424590670964      116.75296110056676
H          116.73844951162721      126.53122725951800      115.13007089202786
H          117.84695229306401      124.27357835684789      115.03828160116225
H          117.35126864232704      123.99096451324326      116.70545220885086
H          118.60183346442864      126.11504840153451      117.34367759599587
H          119.25077211119525      126.15438662540502      115.70907277298072
H          119.59539791742118      123.89847852036588      117.73507905978340
H          120.80798674344608      125.12532999941969      117.37218234209831
H          119.71800743739497      123.17424271694983      115.31394947934317
H          121.14019545708013      122.84691555554640      116.28463486532844
H          122.44531660773204      124.46619590404308      115.22176874825944
H          121.06375385120666      125.41909563434038      114.70115714754805
H          121.53095800913417      122.63864552920157      113.58357682554113
H          122.33199053175657      124.04903695041796      112.89552941017372
H          120.21056004312294      125.11879402785968      112.39820431991410
H          119.32029838782100      123.87153995451582      113.26627829385920
H          119.96072017607598      122.18388770280771      111.61253981213258
H          121.00818920581334      123.34145364060758      110.79131157386517
H          118.94198240840495      123.13165533999569      109.54347275062288
H          119.03332495585521      124.74859358019461      110.23931696289874
H          117.48590549502643      124.06372886919455      112.05543854243045
H          117.44501454778570      122.42244147771574      111.40686187614399
H          116.44267314373687      123.29610950259638      109.30238914743791
H          116.51232957395013      124.93289008564254      109.95129986895677
H          114.91926552596570      124.39798440553767      111.69922039413746
H          115.03550407104727      122.67193202631594      111.35420021980927
H          112.93833492891152      123.54728699763812      110.49930919104051
H          113.95429206771787      122.98290418081528      109.17549098460815
H          114.61984623197216      125.32314527193543      108.67655311602444
H          113.63423733484169      125.89576322157041      110.02238055615196
H          111.60103473828096      124.99027950615665      108.91183052315475
H          112.59581368162175      124.37780536086304      107.58839141257369
H          113.31112024507418      126.71147043151251      107.06046290966820
H          112.28472601234803      127.31184168587761      108.36125996088525
H          110.29288356696253      126.31757459944643      107.22376700323844
H          111.33091045642624      125.77516307753589      105.90440695611336
H          111.94497294636113      128.15414812297982      105.43312519131106
H          110.88717703140695      128.67502076484811      106.74281377860392
H          108.95662480054287      127.56916791889078      105.56636078776124
H          110.02834067880005      127.19164427609351      104.21950795830988
H          110.45072952478108      129.64503308066770      103.90587018309074
H          109.35110246619089      129.98668244606770      105.23985213980573
H          107.52383977909341      128.79116819145875      103.97125438915667
H          108.63560396232344      128.61582111785415      102.61553456638175
H          108.83306085894208      131.12150096177200      102.50157288140413
H          107.71048200821555      131.24529355569533      103.85381783340975
H          106.35921958036947      131.61189082736504      101.94557333849728
H          106.02717460397932      129.94439043558813      102.40536309838558
H          107.75972635995544      129.22549365044844      100.68596879234535
H          107.85250810350354      130.90845614818647      100.16338389556056
H          105.40028863600513      130.85953362931173       99.66804808259315
H          105.34925221280821      129.16718526206694      100.14962798044066
H          106.90060467207557      130.33312990394487       97.79747804281440
H          105.41692810743399      129.39292754494326       97.72433213295179
H          106.80504456663515      127.61199983859933       97.38408272908164
H          107.03113672128509      127.66054298867491       99.12320766101870
H          109.00603195466091      129.29338032238232       98.62603499050819
H          108.80303742549152      128.81911242287691       96.94558626453842
H          110.50748708112600      127.40918793406114       97.75565202877593
H          109.07629953054649      126.38007874326520       97.75555745924125
H          108.82575173111540      126.66635575942682      100.18352957321690
H          110.09466382689760      127.89433177766422      100.19853303369048
H          111.73861921001566      126.17783084510211       99.43183799020744
H          110.47557708252826      124.95080420292493       99.50142467711031
H          110.19714189226947      125.34180904895864      101.92674459883655
H          111.38605307981281      126.64317496025079      101.87182641192618
H          113.13567827836113      125.02458221291582      101.16713414528246
H          111.95315120468574      123.71846065183342      101.21763998861789
H          111.58987686372373      124.14430290214509      103.64339125985038
H          112.78651911218969      125.43727890124364      103.59839279619403
H          114.54423229813220      123.81512384566057      102.95650194190939
H          113.35253749505731      122.51757168813963      102.91827944684184
H          112.88420952780326      122.90142318456112      105.34690876148045
H          114.13276668182731      124.14388225203685      105.38050899228286
H          115.84993134343971      122.46821656167739      104.78891968928178
H          114.61060656074945      121.22812801343032      104.61947854450480
H          114.00690381754579      121.52390157824858      107.02931558361189
H          115.29516006406197      122.71705119367104      107.19123798739166
H          116.99038303132302      121.01431516245314      106.67139232423293
H          115.73773353966234      119.82942080369384      106.31752181682336
H          114.95826359973491      119.92552758071683      108.67340733584358
H          116.19397568423084      121.12364100320946      109.04443628806094
H          117.97175221630916      119.50787088389075      108.46957829207095
H          116.75848196786680      118.31117338869974      108.02151279625373
H          115.91283086352414      118.27954688142263      110.35882582469812
H          117.10834065777206      119.49544249107777      110.81029487528896
H          118.93840697099623      117.96915998859645      110.19870396172588
H          117.77395786968049      116.75459232010905      109.66045824764984
H          116.95421531833497      116.45955878394885      111.94434840974884
H          117.92833868052479      117.81351605455941      112.50889928957770
H          119.04196691335741      115.78727143998060      113.15391585905049
H          120.00776450677557      116.55119483632943      111.89545716435615
H          119.08283309048781      114.98662555868489      110.21172182380511
H          118.03785351639102      114.27148983766550      111.43790810635055
H          120.20882206264653      113.73919752290298      112.74122700416505
H          121.06970628401041      114.13468749872729      111.25517351719374
H          118.98276339652470      111.94446746188932      111.64867204703468
H          120.71748553965101      111.71808058887581      111.44663518525391
H          120.52464116737004      112.73877581855099      109.14174350295700
H          118.77764454642387      112.80990011566995      109.37158516823574
H          118.77577332731465      110.31559056862329      109.74191202924895
H          120.47924207369590      110.28622363817176      109.28397214914919
H          119.90147031443649      111.26832209386669      107.07211625487042
H          118.20916854409673      111.36139605189183      107.56296460879578
H          118.16165496142142      108.85250011313208      107.75704715740201
H          119.83184366285116      108.80926235036272      107.21211450115371
H          118.51328482644664      108.35927208370708      105.27775446860221
H          119.08386301246772      110.02032529432199      105.10091702557948
H          116.88039038705460      110.83072442814547      105.97989486055381
H          116.30965078976747      109.16256529150449      106.02830638169527
H          116.53382785025731      108.98149394216752      103.59096862590260
H          117.32444795405739      110.55692883123000      103.51422932808133
H          115.28807022134698      111.66129282493164      104.33890539479869
H          114.46211348989587      110.11001671049344      104.45957436394674
H          114.56193967910379      109.80711648431091      102.03788009673424
H          115.59814297974552      111.22234081999639      101.85887050392374
H          113.81160826455506      112.70939089129934      102.58888608137410
H          112.76718249296341      111.34394969180829      102.97859195593118
H          112.64729682353469      110.70097262907244      100.61585015869761
H          113.81222035824530      111.94958456982327      100.17927127239651
H          112.24977748521739      113.71501655434199      100.84159239415695
H          111.10703214113950      112.52728843200043      101.46041800214667
H          110.77297923934263      111.61447334828287       99.20076021028856
H          111.98462242991444      112.71194838535166       98.54337216713952
H          110.61452213748447      114.65859774947565       99.18232745531724
H          109.42043845610782      113.60730137115213       99.92857425106492
H          110.12812431529785      113.65907884133306       96.95968078271001
H          108.72589228114917      114.42006097514161       97.70428999900227
H          108.11511686367295      112.03304754380336       98.54925029678311
H          109.27862827389447      111.45719773718413       97.35438515330182
H          108.04495314884321      112.73282143450858       95.59415654371173
H          106.85158875457479      113.21135201548007       96.80369964166569
H          107.45785276355588      110.31331128475618       96.08663103388353
H          106.19738941970452      111.27756334658092       95.31723773315457
H          105.16608114731335      111.65036659578634       97.58870347308495
H          106.33022030151879      110.50118036154097       98.25754124605501
H          105.47672002687911      108.75715368615278       96.67828789445859
H          104.30817473213287      109.92025316596269       96.05150052786820
H          103.34313142319755      110.09306442664240       98.39514112297522
H          104.41364771459067      108.77207113696697       98.86792070610349
H          103.40086928244870      107.38858513614935       96.99506234520126
H          102.24665525828831      108.69069898960707       96.72521169223988
H          101.44179114711581      108.42531717245240       99.09484342779952
H          102.56597256357600      107.07962891493425       99.29321976113299
H          101.43666711534198      105.93121741078623       97.33974482400933
H          100.27209546597764      107.24851896316524       97.29163140996907
H           99.24631550561290      105.43642852987996       98.43877384594286
H           99.58282826871168      106.67484439821936       99.64579851166515
H          101.44533897320058      105.40699897332877      100.53653074919018
H          101.45930560214651      104.33610370178954       99.13460885324648
H           99.34393206438686      103.34292567976021       99.76892255109300
H           99.09436232776699      104.53818018635617      101.04008281735368
H           99.79133851585054      102.34190666504634      101.92737270505725
H          100.90908673960621      103.63111052424556      102.36848311606941
H          102.51584957709410      102.91577992474562      100.70295103888485
H          101.37937768198429      101.74946372145841      100.02181989364783
H          101.44346048155842      100.39854286924893      102.02687290016493
H          102.36602981148097      101.62370068199317      102.90059435616398
H          103.48330649544930      100.40678999690094      100.36231620181265
H          103.63105035256979       99.54311982246553      101.88867150956861
H          104.92956493342442      101.28061783276085      102.89076344451082
H          104.52181834563599      102.43439832145862      101.62592614533281
H          105.79857632841851      101.14019835852753       99.97230867123497
H          106.18934379202182       99.92263098432372      101.18603189060741
H          107.46745199303211      101.55209756753563      102.48625373334608
H          106.96173221606685      102.86419415633519      101.42057373735851
H          108.08831760039516      101.70441882433491       99.50510545268003
H          108.70527195596867      100.49277761612802      100.62446928210817
H          109.27939314642316      103.48210564824255      100.83470044576339
H          110.33255120274866      102.32261409193219      100.02435282355498
H          111.16744731253259      102.73779378515479      102.29098847420703
H          109.61249529635312      102.30044481908004      102.98931295158030
H          110.59216590379458      101.07359005634457      102.18284601001034
H           98.04250877847848       98.79302585410035      110.29818009704616
H           99.76827368093299       98.78396388461536      109.92901038212636
H           99.20460097797709       99.33005013795109      111.50988137087971
C          117.49144411738803      112.53025331715935      125.74274043795477
C          118.94729487719417      112.94050556392818      125.92351295434075
C          119.88832218336952      111.73769996411679      125.93145960191832
C          121.33844033429418      112.15881641859924      126.16200268678450
C          122.31908851743289      110.98545013720454      126.21741359241275
C          122.58310892046772      110.35503727478108      124.85203704139498
C          123.61283684502141      109.22878049368087      124.92415750657855
C          123.88819298557563      108.61980163247553      123.55070600413427
C          124.92831208411727      107.50265242038543      123.60568169749169
C          125.04329469760894      106.72139097062431      122.29535547572152
C          125.47273145417205      107.58377677915060      121.11180352133992
C          125.71814391785067      106.76393172173340      119.84621402784525
C          126.09267302310001      107.67277772781458      118.67981690850361
C          126.30560244598432      106.93510517554630      117.36047382989257
C          126.64463675468787      107.92191021503959      116.24615787205045
C          126.78396088914654      107.27546349918786      114.87088654134233
C          127.08712930196130      108.32942547431242      113.80886426926764
C          127.16854989609131      107.76058855461800      112.39505235955585
C          127.39079657455915      108.87100590544907      111.37113493860623
C          127.47840387344459      108.35822589073845      109.93596816069113
C          127.51913682871997      109.51852263420875      108.94462319933180