3864
 energy: -5104.238610956082 gnorm: 0.000794014911 xtb: 6.6.1 (8d0f1dd)
C           57.07299696938683       41.59959034663074       55.47348748231573
C           56.30579900472952       42.72337162349749       55.74593031719262
C           56.07077728784622       43.62397229087338       54.71681941209332
C           56.57995718963383       43.40558036662108       53.44987160332646
C           57.33895297742819       42.27956160223463       53.18939126938344
C           57.58523807249017       41.37788963572171       54.20961008318628
C           55.77898725185164       42.97408707247197       57.13503167560448
C           55.05997842842807       41.74594067147070       57.69954366493872
C           56.93169642261932       43.40528337967517       58.05641359050831
C           57.41339329153881       44.83548413272310       57.76043874397171
C           56.31121955914742       45.81056885043243       58.08159859239768
C           55.67050619326140       46.51111207134934       57.06693230146638
C           54.56709608415999       47.30126598614940       57.33516992935650
C           54.09169484637827       47.40517237605503       58.62999668153866
C           54.75234939341053       46.75699279585066       59.65909325910632
C           55.85523902549358       45.97072630466845       59.38433319149158
C           58.71205036251486       45.12064068639891       58.52581148961004
C           59.21410453828101       46.57263641150747       58.41224564504945
C           59.05720960764535       47.11140366750296       57.01485053996078
C           58.35351497552290       48.28688135959615       56.78899942017489
C           58.15921413075260       48.76413172547288       55.50504325694905
C           58.65871249801188       48.06296868970894       54.42238095395548
C           59.36263130908910       46.89003666646217       54.63332941317330
C           59.56848372823940       46.42526115114448       55.91959733955080
C           60.67703865080920       46.61575322969403       58.87820300566998
C           61.25419963198729       48.02744124599781       59.06115863557066
C           60.47053957951998       48.83952381683817       60.06010068476954
C           59.95726630840915       50.07790492418695       59.69725016993468
C           59.27376805977363       50.86398871546488       60.60769313258494
C           59.09186516899857       50.41885510700540       61.90487853638425
C           59.59306388515208       49.18497366598578       62.28174009198905
C           60.27700550804710       48.40560652889123       61.36671906879450
C           62.72358702924635       47.89685762858337       59.50156525931281
C           63.35870370507624       49.19298737346438       60.01789129752392
C           63.41224545105497       50.32242823585341       59.02109136313657
C           63.69275524715954       50.12956848218200       57.67398507763443
C           63.77687888194713       51.20399912608544       56.80545285703008
C           63.60805573004770       52.49600494412303       57.26893662986033
C           63.34988435912954       52.70196938795903       58.61299519631119
C           63.24278039649027       51.62591634368990       59.47531190915229
C           64.78330427435699       48.90541462396796       60.54841620639088
C           65.09485941076559       49.65898130200467       61.84923725089089
C           63.99477352184680       49.46724249138642       62.86680533925396
C           63.37499425798981       50.56739511187246       63.44531643684192
C           62.37131279731745       50.40726853143922       64.38426661393397
C           61.97028815690493       49.13907424531422       64.76482113288723
C           62.58429859604449       48.03445248577800       64.19945042006901
C           63.58665208598997       48.19775002243472       63.26170411462412
C           66.41458249932846       49.18768927285593       62.48143425095951
C           67.68563180603641       49.50811217218209       61.67936339992463
C           68.80823435086234       48.64846445991779       62.20845052416143
C           69.33794634842737       47.62237765297883       61.43703455120925
C           70.36526936033030       46.82911248589752       61.91836354884525
C           70.87849400044531       47.05032878482062       63.18443984290947
C           70.35772012728731       48.07009336428663       63.96373829198149
C           69.33212124822565       48.86099509070132       63.47902024888674
C           68.08728219911011       50.99460584347281       61.73605970713675
C           67.64156870137182       51.82504895944918       60.52840366603260
C           67.94014685176273       51.19101135855785       59.19094557688078
C           67.05780397847236       51.39307591010544       58.13647097186816
C           67.33919627720165       50.91566776795999       56.86947729481307
C           68.50886094853601       50.21345732192372       56.63759746669950
C           69.39395529742762       50.00140992479017       57.68111038988320
C           69.11828907524792       50.49506278172549       58.94444597936328
C           68.34382141521607       53.19334291850186       60.50845767135361
C           68.07298939671122       54.10734673602843       61.71131905324761
C           66.59787833198783       54.28999612491553       61.95880294199366
C           65.76550414895198       54.84297444812452       60.99184491438460
C           64.42126703578566       55.04737540615869       61.24477195063725
C           63.87721965821127       54.68606525239539       62.46565568977753
C           64.69191017817377       54.12487255294889       63.43350770129786
C           66.03924262434116       53.93337174789589       63.18006574375820
C           68.75164446295234       55.45922633522088       61.44593356321976
C           68.63607992345587       56.44587705935879       62.61653342416808
C           69.59067008018049       56.08046108180475       63.72197366720227
C           69.11045990940924       55.64888527356246       64.95166566696621
C           69.97847869444753       55.30437397485852       65.97316878505765
C           71.34627293823499       55.39073907533475       65.77992678457190
C           71.83741205539238       55.82502306337779       64.56002751436586
C           70.96664253888903       56.16540231743839       63.54097952549314
C           68.87235828396464       57.87999076207035       62.11232948172325
C           67.58250232065356       58.46976828616940       61.51894421007712
C           66.69214512039363       58.96360889626502       62.63238672046990
C           65.51458124027906       58.29371227008283       62.93911819299768
C           64.70271956197642       58.72150226718163       63.97548015846984
C           65.05530364854398       59.83278035946642       64.72039224402478
C           66.22520712372405       60.51141130042807       64.42166967977091
C           67.03614721575163       60.07835278428415       63.38869670249791
C           67.86292917098110       59.58621381863987       60.50156698897647
C           68.35167429341496       59.08446535748062       59.13070662143591
C           68.78650809959957       60.27044086258761       58.30339456131679
C           67.86262875713707       61.20808037080621       57.85383391440509
C           68.25361075336924       62.26835331876100       57.05681721540717
C           69.58567910636921       62.42161448485327       56.71023908216705
C           70.52041605405043       61.51357113831470       57.17631637463168
C           70.12161347988059       60.44693961310375       57.96423254694820
C           67.27342467426004       58.27757203990963       58.39250522693047
C           67.70381603053808       57.88666026843148       56.97278806165361
C           68.92248805642265       56.99530444685050       56.98478489248685
C           68.88646581819401       55.72268274083428       57.54256221384043
C           69.99880146539759       54.90112983014505       57.52083337727567
C           71.17619604997722       55.34430462236853       56.94320872111401
C           71.22719624601696       56.60827326356592       56.38089982637565
C           70.10762632664752       57.42182727140266       56.39785429865591
C           66.57938091127903       57.17769995669388       56.20332877538019
C           65.29216346651340       57.99089583301907       55.97706347289130
C           64.36589039296419       57.11785051473878       55.16412309161452
C           64.63992295891929       56.82029673433409       53.83389646276265
C           63.83955839199052       55.94010941621590       53.12761665594264
C           62.74386636624520       55.35019834281690       53.73295139193753
C           62.45283084622965       55.64612444973624       55.05316596235743
C           63.26242238128814       56.51874658714723       55.76023019586300
C           65.59717240374148       59.33120638440378       55.30112699599449
C           64.34030093595113       60.13062083181245       54.92817865839453
C           63.41842926551650       60.25487471462043       56.11632559902704
C           63.77706297039553       60.98456086367005       57.24348206527638
C           62.93808254772917       61.06150655924966       58.33998205111149
C           61.71233910860614       60.41840367318346       58.32581088990010
C           61.33935462310310       59.69371187766080       57.20837670435815
C           62.18927184373261       59.60849365190225       56.12111494931636
C           64.69438715413635       61.52682393926580       54.38743971992090
C           65.69551551315067       61.52238866190858       53.22198618106590
C           66.16843601926404       62.92730761233950       52.93691911402620
C           65.31495924180230       63.88853991784492       52.41106122875195
C           65.76380771992604       65.16826717896528       52.14439937473814
C           67.07890570917546       65.51360851020799       52.40354524931170
C           67.93923871370505       64.56791168466182       52.93239013191683
C           67.48511380218756       63.28794549971678       53.19604049176215
C           65.12614456221650       60.87027827934200       51.95811004528114
C           66.23379844297538       60.63816163796756       50.90479640165741
C           66.58062221488204       59.16850764368387       50.88427985629556
C           67.62917078747249       58.69543886703450       51.66664706454831
C           67.90164984860078       57.34088273052603       51.75693092414378
C           67.13654312628444       56.42793544186432       51.05074967835170
C           66.10333788352077       56.88609734687256       50.25079440645794
C           65.82549084291087       58.23993322545537       50.17689360960089
C           65.82726979281769       61.20232048102380       49.54227805876693
C           67.00397065730395       61.19523014321663       48.55802145905945
C           68.04143706945004       62.19593293930768       48.99939558397519
C           69.31233320371531       61.78036095894593       49.37490485846587
C           70.26574854730129       62.69280160639297       49.79276808135455
C           69.96158878925863       64.04181352590399       49.83844724574685
C           68.69820841851106       64.46889141150247       49.46618619973732
C           67.74843648503082       63.55420806655518       49.05281323183638
C           66.53147800596008       61.50468470728633       47.12984853372546
C           65.77126224720153       60.33037390807897       46.48444818097717
H           55.05688110497321       43.79792502396511       57.09021085398420
H           56.60033811964512       43.34253147301121       59.09527608135033
H           57.76974787183721       42.71711522085186       57.93093502407649
H           57.63116876574009       44.90122244520041       56.68933756851236
H           58.57453949244948       44.89300679939979       59.58572274483387
H           59.48225198372259       44.44272687750379       58.14911809123473
H           58.61723527592223       47.19975498904056       59.08560727429820
H           60.75099051980452       46.07482079727814       59.82511301739657
H           61.29373487175013       46.07836542414854       58.15370030745805
H           61.21950302180242       48.54827303064452       58.09754985803270
H           63.30897107721561       47.48947026545678       58.67494950677095
H           62.74805913147831       49.53071820275342       60.86222011953191
H           64.89065272267128       47.83447075795225       60.73069887091176
H           65.51274472555103       49.18096596618386       59.78400882306907
H           65.16945510411195       50.72766499040952       61.62779212661701
H           66.50097777918648       49.63173477672502       63.47670487885474
H           66.36288464395413       48.10391156054300       62.61820458817184
H           67.51616117072170       49.22790419699956       60.63702294027131
H           67.66888056045730       51.44689253730286       62.63619441953986
H           69.17511548347308       51.06070355528928       61.81838924505239
H           66.56141105062423       51.99681164901588       60.58682715484446
H           68.52649603584584       53.66940728187208       62.60644230268012
H           69.80701417551066       55.28505994365407       61.22590553887028
H           68.30833856495205       55.90844461290703       60.55691664695063
H           67.61925812394242       56.39629936986061       63.02126895430217
H           69.21017192575081       58.50885368900929       62.93865927226236
H           69.66068412271019       57.87250353297935       61.35843258840281
H           67.04212598982907       57.67061660383682       61.00680446516490
H           66.94566731906092       60.16182246230646       60.35709572137725
H           68.61619357307974       60.26557850873742       60.90708832515890
H           69.22277394515774       58.43683588003272       59.27754983186460
H           67.04629475619805       57.37049733693395       58.95271806696322
H           66.35950843155504       58.86981266732030       58.34028496549384
H           67.97238135103618       58.79810134353269       56.43165677245943
H           66.97687829730592       56.89197945812424       55.22583013420454
H           66.30903272550658       56.25698987855088       56.72626549968146
H           64.81323618407281       58.18429222995262       56.94275842087504
H           66.20774484714548       59.93908768794875       55.96976859665578
H           66.17817729029407       59.13256034067616       54.40016819001686
H           63.80874110801553       59.57690747940240       54.14934797225433
H           63.77265964846129       62.02614876771853       54.08073981505206
H           65.12648838093523       62.12364063204637       55.19390250530695
H           66.57303120945393       60.94984784772770       53.53505490597214
H           64.66728827783149       59.91548083969214       52.21446693934988
H           64.34282516515789       61.50137983813740       51.53861231662422
H           67.12576942750327       61.19241694536512       51.21991753980787
H           64.98797140027440       60.64226257809645       49.13218546760621
H           65.48874256155453       62.23102081775489       49.68312233089809
H           57.27526773645050       40.89584131764824       56.26456672220862
H           58.18836582915213       40.49853024756467       54.02488979616427
H           57.73754152074798       42.10944799804159       52.20110594967879
H           56.38503959472099       44.11892051132223       52.66364328263329
H           55.48495065587646       44.50978615025708       54.90929159394098
H           56.04203763188423       46.43577863075382       56.05407898553243
H           54.07431637487156       47.82750240315589       56.52891052582648
H           53.20953755547553       47.98844396023252       58.84085636111375
H           54.40328378759155       46.86002974367724       60.67736779382451
H           56.36364076423207       45.47098972911248       60.19677572322497
H           57.94201315608787       48.82517940939190       57.63278686123417
H           57.60628380195472       49.67875176970664       55.34578152613899
H           58.49481132960722       48.42982382087657       53.42079878767211
H           59.74303592806725       46.32405214291447       53.79419222029534
H           60.11458710718696       45.50571523444120       56.07305440505855
H           60.11019948946300       50.43340302782050       58.68749820912102
H           58.88620196298015       51.82769653692905       60.30867128312487
H           58.56503313964196       51.03594905732906       62.61880581739779
H           59.45636795458873       48.83277974699355       63.29453727086308
H           60.67909033801529       47.45333322140483       61.68016585027314
H           62.76815707112317       47.17072743314775       60.31776436392620
H           63.84814008583174       49.13144270709801       57.29257529685740
H           63.97755842773524       51.03934471667384       55.75707904060123
H           63.67746380604029       53.33292347045604       56.58869386661161
H           63.23122993608092       53.70529766607199       58.99394421638534
H           63.02158271060161       51.79857544383081       60.52062344612298
H           63.68309327582523       51.56326048513333       63.15519995668830
H           61.90266792160971       51.28002951142465       64.81755786972469
H           61.18617782584747       49.00847364651262       65.49740882527081
H           62.28069240888500       47.03934515562426       64.49348547027647
H           64.05481805258806       47.32472186326048       62.83109452793050
H           68.94463956150203       47.44704285697082       60.44533794594206
H           70.76765624659781       46.03711137079183       61.30305725934904
H           71.68064339284032       46.43334630929774       63.56235128243989
H           70.75419159834691       48.24948096518226       64.95290238140522
H           68.93705474363287       49.65553800333218       64.09467282688858
H           66.13865122776411       51.93510958317899       58.30864897325185
H           66.64590537968587       51.10641189499621       56.06322647749938
H           68.73359881217669       49.83700616224494       55.65019101242108
H           70.31056469245588       49.45474899206140       57.50920392991200
H           69.82711998761989       50.32887693352744       59.74215128906917
H           69.42222572300911       53.03035307151771       60.43570879467595
H           68.03051985928386       53.70970822138534       59.59936109962843
H           66.16733214505440       55.12064155482710       60.02843380082553
H           63.79493344011414       55.50349975125833       60.49105175961778
H           62.82659210854022       54.84446204275437       62.66182607084928
H           64.28019117776381       53.84359930716408       64.39276807588811
H           66.66945928097039       53.50584687777047       63.94818065883224
H           68.04259605657479       55.58673967380704       65.11036655997449
H           69.58686489921971       54.96981411641730       66.92326441622704
H           72.02619031839647       55.12420521729636       66.57591689257615
H           72.90416392296758       55.89927101968802       64.40391834104148
H           71.36321490427591       56.50576491558218       62.59555533591690
H           65.22782922117405       57.42381208180248       62.36449520558872
H           63.79268997429726       58.18426978521589       64.20082380719853
H           64.42376179636639       60.16984977032556       65.52955970968526
H           66.50719330692630       61.38078715524092       64.99836998584668
H           67.94717573371446       60.61600714629798       63.16966865888226
H           66.82318095325282       61.10523279761967       58.12788183725308
H           67.52019801907905       62.97732106273912       56.69815874671205
H           69.89138965571546       63.24657838081922       56.08318267660455
H           71.56366721453966       61.63126633995130       56.91933362342758
H           70.85769386256008       59.73566496860597       58.31278031168409
H           67.97219500483031       55.35545695967250       57.98491755967144
H           69.94383877767156       53.90899382806212       57.94499202007528
H           72.04703271690553       54.70507693282818       56.92552401419746
H           72.14044286478428       56.96025231793760       55.92199637327630
H           70.15408192559801       58.40438816098326       55.94856826565210
H           65.49439686962720       57.26218879382588       53.34138334884297
H           64.08801091472151       55.70321525319947       52.10334149773342
H           62.12518523949387       54.65539197442281       53.18579856109817
H           61.60187508653602       55.18733042550265       55.53700777230777
H           63.03543448446721       56.73846553526312       56.79500093808642
H           64.72540845874401       61.50053862187892       57.27145563267563
H           63.24264978620077       61.62462539421715       59.21147796269066
H           61.05691837281252       60.47938753759436       59.18344026965708
H           60.38315846413057       59.19264190712288       57.17971749832048
H           61.89895907851211       59.00745398802831       55.27100607099035
H           64.28732934234442       63.63814005609190       52.20212552546410
H           65.08340850931614       65.89780145926366       51.72838653481003
H           67.43255492297993       66.51359401471402       52.19597877576049
H           68.96880497443034       64.82689487331902       53.13592545228788
H           68.16784325552803       62.55837634296078       53.61179327907573
H           68.23916871570690       59.39911549598622       52.21809390974399
H           68.71038368260507       56.99233899969532       52.38457968893386
H           67.34753099044315       55.37064337742049       51.13305987978190
H           65.50189246901436       56.18682937753728       49.68467922774290
H           65.00006935942733       58.57261121904862       49.56785792274388
H           66.76497720911490       63.90273262351855       48.77308986595126
H           68.45278241743320       65.52084889692493       49.50197526315844
H           70.70420242834025       64.75646977388824       50.16324436310678
H           71.24885962232720       62.34986832043626       50.08374097224173
H           69.55751768017598       60.72698851691361       49.34571362173023
H           54.53837482475735       42.00863297264375       58.61748530074181
H           54.33089624073919       41.36868249125363       56.98382749735838
H           55.75949974735902       40.94560745658507       57.92944896301729
H           67.45905779211611       60.19917559379525       48.56979714353575
H           65.88189451021761       62.38129968176138       47.16663719212683
H           67.39221900238024       61.77166434752252       46.51245590758273
C           66.61061691047523       59.56138304607858       45.45676246573493
C           64.51638635417677       60.82093754574868       45.80994962560890
C           63.26764618861822       60.35003569164878       46.19414080355612
C           62.11524250211325       60.80173716893123       45.57388059595564
C           62.19975622860633       61.73497293386303       44.55451404701517
C           63.43965830167889       62.21927473833924       44.16934834372611
C           64.58901578542205       61.76382017463025       44.79009921185863
H           63.19714013682912       59.62503842066222       46.99169966992426
H           61.14980440718718       60.43069827411042       45.88468853136199
H           61.30344540562253       62.08237908700838       44.06250182224784
H           63.52076720705494       62.96436335059478       43.39118369538339
H           65.54891232805559       62.15319894675712       44.48220238704716
C           67.83226737533759       58.84864101188396       46.04658375527448
H           65.96839425996704       58.80404203943890       44.99991890693524
H           66.94205464778562       60.24041341461551       44.66709178532162
C           68.46131439798491       58.00344709835174       44.97678361434411
C           68.02969778066448       56.69880279826679       44.77295424234592
C           68.54671280056371       55.93381706444848       43.74397199549897
C           69.50777374030224       56.46621937738958       42.90212252872104
C           69.94860089223964       57.76423415705577       43.09681326039174
C           69.42573896340502       58.52766572400669       44.12602574128161
H           67.28674435521664       56.27882258609074       45.43432427577518
H           68.20454064932468       54.91913748421082       43.59655273891686
H           69.91333398715932       55.86887319262416       42.09817210235617
H           70.70123614894267       58.18359027825029       42.44357064114403
H           69.77191610669038       59.54194924749631       44.27187610565648
H           65.48568900783165       59.61855861173510       47.26469606548287
H           68.54869682020139       59.58343659273272       46.41735148954798
H           67.51565299674002       58.21487095528194       46.87795402926210
C           32.39606740466882       47.76846663491418       48.12214134796538
C           32.09165526676397       47.09010278451442       49.29556553272715
C           32.83479872535801       45.96087004190776       49.61906491232796
C           33.85856122615781       45.52843490297702       48.79574965934945
C           34.15994517340170       46.22160686901523       47.63508810439013
C           33.42300502391551       47.34289340555610       47.29835105392419
C           30.98039617373780       47.57589602003618       50.19176208496736
C           29.84438845410230       46.55122956008733       50.24349293532778
C           31.49823751594961       47.87095909925191       51.60642340336238
C           32.66123975933911       48.86963631301582       51.60122484608717
C           32.25542268454252       50.16751714266165       50.94344586449105
C           31.18620258117807       50.91492351912439       51.42663180153664
C           30.83591435301827       52.11994615284839       50.84275342743571
C           31.56157803266244       52.61230940725247       49.77129753530539
C           32.62906327805661       51.87892125452395       49.28519821672067
C           32.96457421718701       50.66452975409187       49.85712608120922
C           33.19160318560778       49.17461813673444       53.01234460283277
C           34.06041805436295       48.07661543855369       53.65020725712658
C           33.24403205345091       46.89509807247617       54.09800269484068
C           33.48012684970607       45.63173991411416       53.56814789030928
C           32.72855089280642       44.54209571690581       53.97139902970471
C           31.73329476835571       44.69448394853968       54.92118759279175
C           31.49765213269913       45.94591889633402       55.46572361440787
C           32.24566237825432       47.03453033469020       55.05648531996390
C           34.82860382045283       48.70266505283963       54.82900568504735
C           35.51827392873872       47.69858806605598       55.75811012233147
C           36.56150063997342       46.83822979856099       55.09386942197190
C           37.66490617023487       47.41312488898247       54.47497090217561
C           38.73462599429769       46.63399769118679       54.07945966148431
C           38.71316702166148       45.26494489587024       54.28037414657593
C           37.58785278753114       44.67211551654719       54.82549976297575
C           36.52349328257391       45.45715696926825       55.23385431087023
C           36.21483412594937       48.42787156713584       56.92972851253522
C           35.38927280169514       48.45906916540525       58.22269103760527
C           34.21870953138643       49.39665828658426       58.08915018908250
C           32.91828896394130       48.90793772970622       58.08306617620272
C           31.83660733395500       49.76109889508245       57.94438029591942
C           32.04118004112621       51.12364898421712       57.81609267341696
C           33.33288627422944       51.62366766156197       57.83245443121033
C           34.41139329059889       50.76888044405417       57.96695006885108
C           36.27081693300771       48.83544371586881       59.43152768479258
C           36.83668213876343       47.59826656576865       60.14566858216062
C           37.77179996220872       46.80825871421458       59.26218734825259
C           37.45463417277571       45.51067324602697       58.87967441032642
C           38.31029445811915       44.77454688565526       58.07874104467694
C           39.50394516622800       45.32399946289177       57.64839555460601
C           39.83042072578787       46.61613767089675       58.02038454754801
C           38.97412166574124       47.35121200241645       58.81892882894814
C           37.54236757193979       47.98760930567950       61.45341291959065
C           37.88802286887881       46.74219592915470       62.28382326325509
C           36.64381791425851       46.14945004353936       62.89335736331846
C           35.93714750340157       46.82503590401244       63.88244835838438
C           34.80409817115036       46.27071336849124       64.44887321937833
C           34.35332561722463       45.02837249591862       64.03362015216436
C           35.04073618697629       44.35067910340995       63.04207279651138
C           36.17408908717097       44.90935288865688       62.47735179675520
C           38.93508556958196       47.07112407609725       63.35574668991551
C           39.32514876798933       45.83729282861833       64.18284717140924
C           40.09606989869673       46.21613445636494       65.42230477688304
C           41.13473375722368       47.13782464712567       65.37879705703637
C           41.85626657717859       47.44793383562101       66.51723618903370