3795
 energy: -5103.046299109221 gnorm: 0.000916093401 xtb: 6.6.1 (8d0f1dd)
C          118.64022077562456      105.82093933071259      129.61313262380705
C          119.63191799068278      106.74241979350474      128.94407953621703
C          118.86102158242723      104.35842881071021      129.21921896911533
C          118.37258922906643      104.07524627820776      127.80048545688587
H          119.92254343194274      104.12298692388481      129.30272985475577
H          118.32104912299262      103.72164168075567      129.92077916782992
C          118.49367947831222      102.59055176694115      127.44104639338288
H          117.32501305674387      104.37477580902441      127.71737416263740
H          118.94484598003281      104.66946194311828      127.08524907427224
C          117.89485447053336      102.35131756356482      126.06694938135929
H          119.54420722251011      102.30150708079884      127.42951090789020
H          117.96615037302263      101.98951791336027      128.18203353972552
N          116.61230938863153      101.98039384109256      126.09633127607476
O          120.87698575661305      106.39044050235779      129.12205287021629
O          119.28970161935808      107.71594230203138      128.29921284093464
H          121.53706380668710      106.99065522988084      128.62556940517283
H          117.63450088294455      106.14496445877013      129.34321070341406
H          118.74632125323164      105.92408573052826      130.69481999858286
C          115.79519126728019      101.75181802471745      124.92476198419153
H          116.15889473309471      101.79329493321335      126.98953279871286
C          114.36703246868124      102.22069402109562      125.18112681668562
H          116.24493993658261      102.29020905471711      124.08801323376601
H          115.78212981407039      100.68346990850782      124.67940160048070
C          113.45268445979028      101.98652992179329      123.98179282162319
H          113.98148148729460      101.67198472344053      126.04112352980052
H          114.37209956361794      103.28202977201796      125.44450992907352
C          111.98052917722153      102.11847456128807      124.37814647844529
H          113.69176841038711      102.69829167114372      123.19067135599363
H          113.62947705747452      100.98634202624891      123.58593527750777
C          111.05611836460847      102.36337660373866      123.18760432255435
H          111.67085889328598      101.20780464327382      124.89336136569540
H          111.86443667955551      102.94931622950598      125.07944459514695
C          111.20389038986819      101.31787070838053      122.08263123770708
H          110.01898206982990      102.37664602029250      123.53305833515012
H          111.28028384574097      103.33859586567772      122.75115251186992
N          110.81869383406303       99.98783150430876      122.49308934085751
H          110.57583598058606      101.61797793361376      121.23517423197907
H          112.24398109984187      101.27005381688952      121.75622155040934
C          111.65059499620956       98.93460322108470      122.50323779490681
H          109.83878741393626       99.81730287901416      122.69372998379686
O          118.52953368245873      102.53279495589418      125.03148869176064
C          110.96429541591540       97.60027715625412      122.74923259949313
C          111.09115091496071       96.69078018958405      121.51986064323599
H          111.46966309391988       97.12016999281600      123.59080631538384
H          109.91607750772432       97.74789298992025      123.00332481917491
C          110.10562292406489       97.01194384368192      120.39458555819660
H          112.11263406817029       96.76143487149206      121.13847865765678
H          110.91781875033851       95.65770894711392      121.83166781286812
C          110.36807374410796       98.36595840711836      119.72291129392610
H          110.19082950210218       96.22837186273412      119.63654331446914
H          109.08719971225439       96.98976406550028      120.78756780880053
C          109.69998511589333       98.42174254768764      118.36445147874453
H          110.00299778319582       99.17552415181048      120.35017408388998
H          111.44089905354440       98.48441947241608      119.57708668577435
N          108.44686387440123       98.90373153411994      118.37469630346052
C          107.66066136029286       98.99317149089543      117.16032779750817
H          108.06386090112190       99.30186307181253      119.21672347552176
O          112.85467681732761       99.02109211448605      122.31816277773309
C          106.22274051840854       99.43634334428363      117.41734235303011
H          108.14801212124226       99.70219188989286      116.48539941617692
H          107.68336207019459       98.00487059438851      116.68705679060029
C          106.08844791034103      100.95908991906013      117.44525474171307
H          105.59358953010485       99.02953347001693      116.62290269273250
H          105.86923186760467       99.00898681606661      118.35896007075227
C          104.65200926420979      101.44039595425104      117.65559547732714
H          106.70809436007647      101.36339865847565      118.24807493741882
H          106.47100098950109      101.36625195882341      116.51101633145193
C          103.70424741915669      101.26202618555341      116.46574480516945
H          104.22080475818254      100.90480577927057      118.50563153031773
H          104.67922951108005      102.50052664194645      117.91492756151565
C          104.02127598940402      102.12466657296639      115.24350628676662
N          105.03476251522284      101.52925324132066      114.40045162327468
H          103.10272618826558      102.26712019424316      114.65782059067224
H          104.38622288068383      103.11114487481291      115.53893308783290
C          105.86078334597181      102.23699951418614      113.60461710309937
H          105.03754799706938      100.52424145885675      114.33675294484048
O          110.24387457198138       98.02307190125805      117.34348465587215
C          106.85440104622280      101.38326617109438      112.83608431702592
C          107.73529071673052      100.59332901652581      113.80647516997968
H          106.31886613499934      100.70381698801860      112.16922176500856
H          107.46939765247188      102.04660296171966      112.22811823484216
C          108.89494114930358       99.87672796665824      113.12371289058559
H          108.14126387696562      101.27930640260432      114.55374461812197
H          107.13120450015833       99.84974835113219      114.33110429684498
C          109.74114929835319       99.14999058255081      114.16389839980840
H          108.52234969360219       99.16604610977581      112.38377237742554
H          109.52214876928254      100.59544181875350      112.59585804489812
C          111.11088018664985       98.74699733913010      113.64535895989640
H          109.90945609367930       99.80659439135218      115.02067216773678
H          109.23063470381132       98.25828418599663      114.52992861590864
N          111.83230378825846       98.07591810186194      114.55983140716201
C          113.22456514318061       97.74578423875634      114.34299041479778
H          111.44382039475676       97.94557199555180      115.48390453057598
H          103.67398061149333      100.21251344888256      116.16452562073424
H          102.69967444743585      101.52568504953319      116.80338839644828
O          105.83704763449876      103.45245531177495      113.54077103175116
O          111.51423299459825       99.01154686437765      112.52685359277589
C          113.67487583934846       96.54254600376085      115.16302481421472
H          113.34156692545403       97.54937013756550      113.27367230006683
H          113.84694217415979       98.61405673005997      114.59427738285270
C          113.77073311490533       96.85773863053602      116.65756100029679
H          112.98654769742257       95.71073878985237      115.00326183326598
H          114.65424307191455       96.23890913216499      114.78889441079133
C          114.57968419340371       95.80891832838894      117.42593837389025
H          114.23838729035097       97.83468063701106      116.78231781681380
H          112.76540436513874       96.91302599761538      117.07871668924416
C          116.09393975548991       95.96540082365647      117.24888520046345
H          114.34690151168475       95.87507642175484      118.49084519409566
H          114.27932201238089       94.81592691917282      117.08677929941524
C          116.65704586989744       97.07618896495627      118.12868282020108
H          116.58730661895353       95.02641374334075      117.51103762939003
H          116.32333118360513       96.18386548951109      116.20447810442003
N          118.05622277833746       97.31968421206125      117.83819946578512
H          116.12607204089753       98.01472070418936      117.95371611138003
H          116.53581393973971       96.80825521591635      119.18666017989189
C          118.67065132297179       98.48868382697962      118.10251426144582
H          118.59693169158031       96.54002664731709      117.49985094424979
C          120.14159853828355       98.50893843063177      117.72916333431890
C          120.74289107480898       99.91304729305574      117.70507012153514
H          120.67307564757442       97.90065605883609      118.46653483419549
H          120.26183376774193       98.03282589439237      116.75303942074872
C          120.11574542072552      100.79694465220746      116.63118427087495
H          120.60036523428289      100.38537975179794      118.67944281674814
H          121.81419350691357       99.83908338796347      117.51465492996456
C          120.75824138011362      102.19136144030030      116.61753025572881
H          120.23152151672832      100.33071779735782      115.64900388402820
H          119.04767503322616      100.89051659888347      116.83056765163090
C          122.06040739785239      102.15388267699790      115.84603906519877
H          120.09103520377742      102.91418537580097      116.15074104023566
H          120.96186854674836      102.49517408689601      117.64559145762584
N          122.00117774853540      102.70105992009071      114.62732214345712
C          123.12760187557961      102.66134824382183      113.71970383177742
H          121.22804154111556      103.30776738579212      114.37592804791872
O          118.07410497955242       99.42975570595978      118.60133666063818
C          122.69608147728034      103.04149523129918      112.31046619424703
H          123.90578638737938      103.36108535628296      114.04781034877891
H          123.54595426091180      101.65039421382079      113.75122190153171
C          121.52328439006222      102.21826455041307      111.78204656827059
H          122.41713177196414      104.09632414750145      112.32255843892152
H          123.55790445518450      102.92480462289707      111.65079462717654
C          121.20692582596300      102.55484284564407      110.32391509567766
H          121.74309980887490      101.15329126262100      111.87321003582520
H          120.63968747375455      102.42503837289178      112.38656058213684
C          119.79244626832468      102.12898857704404      109.93925848520141
H          121.30386521517580      103.63310697820955      110.17212544408341
H          121.93195987464726      102.06733328525074      109.66825411715293
C          119.50959492728586      102.35882275307632      108.45989669174311
H          119.64866013315350      101.07185277200318      110.17208805336220
H          119.07005649812531      102.69631334777792      110.52883392929439
N          118.15497762227504      101.96573686193294      108.14107976576464
H          119.62223721930080      103.41424993742717      108.19436513728775
H          120.21545929766013      101.77921358838121      107.84907275725716
O          123.08332872847568      101.63563785208588      116.28264274052113
C          117.42801063804374      102.52076670519550      107.16116559740674
H          117.72886600173661      101.29279971297366      108.76042978000912
C          116.01680961943298      101.97438838107483      107.06419429265488
C          115.47197026581267      102.01956349235545      105.63773793556410
H          116.00015896585806      100.94910824531124      107.43802717041719
H          115.40116582063062      102.58433631483528      107.73052425927389
C          114.12969886534712      101.30506734630013      105.51880562022430
H          115.36594257490003      103.05340474314754      105.31715920259948
H          116.18975679727565      101.54114596120843      104.96698750514821
C          113.51668482190900      101.46788235042266      104.12095485639983
H          114.27118965840891      100.24349341636142      105.73346540186178
H          113.43138352426968      101.69805134849726      106.26025998762132
C          112.62598853275182      102.69218925119182      104.02277654249778
H          114.30225652729042      101.51665499254291      103.36767321860175
H          112.87563219322220      100.60937910402839      103.90883384151321
N          113.02043768582757      103.62687574298508      103.15042804770907
O          117.87330035702759      103.38574412661241      106.41607739556557
C          112.19646078219081      104.77909904622936      102.83009327742916
H          113.91452335070505      103.53417023641373      102.68421427671083
C          112.75087589896975      105.48594994157975      101.60061461337131
H          111.17531614917770      104.42749816414074      102.64416712735721
H          112.15951543779858      105.46258965433151      103.68565675607763
C          111.82039714106099      106.54856710408869      101.01577118596701
H          113.70278548204946      105.94795853864150      101.86609317806895
H          112.94220492972680      104.73137312777327      100.83344016823486
C          111.63762579276423      107.78428240385396      101.89737566968135
H          112.23471073613153      106.86838610085850      100.05598497544794
H          110.84245346212079      106.10564645696198      100.81851282573092
C          110.92783369622373      108.89063525572597      101.11541182275410
H          111.04144650567757      107.52336305154883      102.77184177284087
H          112.61069030692170      108.13965168999654      102.24250135633196
C          110.58419430947617      110.11701589866213      101.95650630301130
H          111.55313020233186      109.20696508474987      100.27846231961914
H          109.99935953828980      108.48382677903595      100.70800609653011
N          109.64862572233234      109.75335581749883      102.99648064500411
H          111.47052255318630      110.55387564165602      102.42233038521381
H          110.13974000942899      110.88222722252738      101.30625643863034
C          109.60359139525886      110.31043138791887      104.21098380457791
H          109.02245915655280      108.98309056133813      102.77421894797668
O          111.59512527131058      102.80243918421462      104.67837788449091
C          108.63908502636043      109.60882375400617      105.14965686646590
C          109.39598026804516      108.49446638567927      105.88807408239789
H          108.24098289319221      110.32697974704243      105.86734454946567
H          107.81552737919255      109.18214784127564      104.57749408310693
C          110.10042730206145      109.00323123295087      107.14238758301630
H          108.70040348730210      107.70819441018584      106.17655854472586
H          110.12905466378477      108.04652388846672      105.21296703510342
C          110.70668108402671      107.83461780929538      107.91954672137557
H          110.88018401680314      109.71188181469695      106.85974186961032
H          109.37953688109295      109.51995075813625      107.77950031240174
C          111.27844403597243      108.25445553881308      109.25927128380056
H          109.93301875587379      107.08212995779792      108.08728696626117
H          111.50606530668877      107.38382105697413      107.32938191577864
N          110.37291114203030      108.55613133324330      110.19282331037083
C          110.74398442772446      108.85480212852167      111.56054676693329
H          109.37670903379998      108.54031381391667      109.99635543278762
O          110.29817123717152      111.25553928095992      104.56040516431781
C          109.59011371140861      109.52178956428220      112.29452773183063
H          111.01549082426473      107.91855345753747      112.06080829712654
H          111.62876898235362      109.49972464356688      111.54625648935560
C          109.86513358958811      109.73691837372178      113.78182971130840
H          109.37848310888808      110.48295777579841      111.82424303987061
H          108.69770081838320      108.90583649277910      112.17949344431264
C          110.01414242905923      108.43302673740257      114.56630085103706
H          110.77142809061237      110.33417039688425      113.90877163062518
H          109.03072142413339      110.30660902015953      114.19363413788508
C          110.00918053964384      108.68528359772506      116.07215976673342
H          109.19989633144246      107.75627804103640      114.30209611202416
H          110.95239179543584      107.94492263887491      114.29328600934080
C          110.32142911670515      107.42160901649062      116.87457675184390
H          110.76182018020221      109.43914100772479      116.30129781754147
H          109.03755727141450      109.07194026854935      116.38271736164059
N          110.63656478126569      107.72456817760130      118.25137664062903
H          109.47071730183922      106.73987756696170      116.86741897227033
H          111.18330209722187      106.91145917996296      116.42488546632525
C          109.91819237342790      107.35715655135571      119.31703883677987
H          111.45778447510983      108.29954193041151      118.40422828589200
O          112.48662190447358      108.29565581907195      109.47574593618580
C          110.52712896118685      107.78967852239697      120.63427232073400
C          110.61266353653545      109.30649637121373      120.83052044172278
H          109.95024559318409      107.34728580740276      121.44720521576583
H          111.54383688518359      107.39265072154394      120.67178292601341
C          109.26189659733389      109.96121328448372      121.10220845418822
H          111.24932388396438      109.48700238385882      121.69634262978461
H          111.08571487000508      109.77163914566263      119.96513257146233
C          109.42810694815836      111.41986080863391      121.52004287429293
H          108.62389157560578      109.90663565078489      120.21795689177685
H          108.77590471518539      109.42893151393586      121.91947636207701
C          110.07576041391044      111.56550183151319      122.89436295719769
H          110.05313153883256      111.95163685944134      120.79976526761772
H          108.45619677450661      111.91701682453974      121.54504338659905
N          110.45508821936095      112.82556267555312      123.14953120000862
O          108.89411545123536      106.67869811172574      119.24194244272101
C          111.14181232301145      113.24685689781082      124.34924609861832
H          109.99237535302107      113.57433915804636      122.64498957609246
C          111.90752415520072      114.53562790608528      124.06158860051933
H          110.43185774701330      113.42597106056142      125.16190338247499
H          111.81834572382681      112.44237713401164      124.64325268013219
C          113.07220214671757      114.28340351862731      123.10903403890194
H          111.20951781256866      115.24889581340831      123.61811986854219
H          112.27151925828611      114.95655914855374      124.99926875744281
C          113.72021355358514      115.55875422841487      122.57354742584664
H          113.82556123536898      113.68855905731451      123.63018901685487
H          112.70531346244678      113.69680074078822      122.26424227026062
C          114.90414805329902      115.21176869815864      121.66943546928087
H          112.98152275903264      116.12420909834054      122.00132108510891
H          114.04543084509395      116.18640117716976      123.40586921200295
C          115.45737299415514      116.39733437317916      120.89436182798872
H          115.70593343560498      114.76841574187648      122.26341490563934
H          114.57449916135131      114.46606174321445      120.94404325620347
N          116.16261626462270      117.33289332643857      121.74389717632650
H          116.14699436750981      116.04366360893115      120.11910499975512
H          114.64446348259713      116.93438851454532      120.39263469830554
C          116.80158983217930      118.39278368964770      121.23491632496865
H          116.32598498089853      117.06542383631654      122.70152012527625
O          110.26524351156638      110.62784611876378      123.65476376967682
C          117.47765659189110      119.27987435513808      122.25373190089933
C          116.46322084817119      119.93750710592190      123.19470748356710
H          118.18354793827915      118.67920673174498      122.82889061398633
H          118.03444253053449      120.05233803301930      121.72486753132648
C          115.44827712391664      120.77536038925349      122.42245091145692
H          115.93292003854754      119.17246468072797      123.76532017044811
H          117.01211495037523      120.56286760516089      123.90020687245816
C          114.46237878435188      121.49658936218069      123.34672745983356
H          115.97169562332653      121.51425207251636      121.81085865233551
H          114.88303164069102      120.13144663251093      121.74443582055429
C          113.40048575295177      122.16949239528765      122.50023487936646
H          113.98588107221751      120.76827049454062      124.00547335562872
H          114.98165281265341      122.23480499167992      123.95526643923532
N          113.40928112518948      123.50235602545629      122.52075253026351
C          112.50077306381016      124.27281098888858      121.69408238617629
H          113.80016121432300      123.98853462057968      123.32120469008683
O          116.79933791938626      118.63604740930708      120.02966042756981
C          112.67290995365693      125.75779144472010      121.96945956913801
H          112.71238757787505      124.04696106777588      120.64411290830098
H          111.47323347201009      123.96318815180787      121.90553770705094
C          114.04623029326196      126.26976161588230      121.54275198141977
H          111.90183521929164      126.31180422085198      121.43258447194717
H          112.53091460335139      125.92615160495515      123.03805067298261
C          114.20988582508583      127.74868624608504      121.88094223940769
H          114.82822157680681      125.70178675027277      122.04929499310623
H          114.16039942479478      126.11261544453907      120.46999926390565
C          115.60728832344610      128.28437785825383      121.58723456519981
H          113.47064215039657      128.33383399944262      121.33000792274069
H          114.00767376872420      127.88321110699033      122.94533488239749
C          115.91693709493418      128.31483567615706      120.09015351438599
H          115.69274650547689      129.30354768952932      121.97125236185788
H          116.35582795304438      127.66969146005603      122.09108815165472
N          117.17424231851631      128.97999182284192      119.84494078149146
H          116.00005004756915      127.30039492503454      119.69639998560429
H          115.13102874165835      128.85135339409658      119.55612248270344
C          118.30154796786717      128.29423765353238      119.65476058307195
H          117.15624746783678      129.99276893856930      119.92469949829292
O          112.63957059752576      121.52262292475235      121.78311125019856
C          119.57085846498295      129.11383480832586      119.53573083326312
C          120.66668433551853      128.50573771730902      120.41546242099992
H          119.88797543500041      129.08848737414760      118.48998815920406
H          119.37726815961148      130.14953290481549      119.81558521580722
C          120.30643556076129      128.61571602737092      121.89656595482899
H          120.77886629365682      127.45355701949615      120.14659484951555
H          121.61468516583534      129.01280683574416      120.22442041843412
C          121.33528500556993      127.90873370018313      122.78266331698649
H          120.24348488145823      129.66830188088906      122.18288988247329
H          119.32356700288446      128.16764273202386      122.05054798398292
C          120.96883174536124      128.00239904469382      124.25780741405197
H          121.40714204791881      126.86149515702466      122.47849515350806
H          122.31545617146888      128.37206331815531      122.65585868206263
N          119.81767333168709      127.38312188215392      124.58220115926908
O          118.30466297387879      127.06888051087179      119.55849446662641
C          119.17932422335912      127.51910652958158      125.87037313424304
H          119.24338868650918      126.97340456880806      123.85335057644961
C          117.78568615987128      128.13386321972587      125.72260846283145
H          119.09589519842858      126.53231713946582      126.34394276181541
H          119.82490718269786      128.14633525661762      126.48971975479741
C          117.03986198009929      128.16919312073455      127.05388797181050
H          117.88196081942456      129.14626671247223      125.32631588867680
H          117.22817910495874      127.53971730720163      124.99692697753487
C          115.64750763823169      128.79837095713245      126.96433227788114
H          116.93910225671232      127.15164315267265      127.43754021464767
H          117.63232670258294      128.73461795254514      127.77681786152658
C          114.72742000011253      128.07185437868671      125.98285928222501
H          115.19888856523315      128.76565803321489      127.96045092088235
H          115.73510938440134      129.84736427002366      126.67560026888016
C          113.24579770159741      128.34411892010874      126.25475851358368
H          114.96901434999076      128.37174685171593      124.96168047471123
H          114.89326871301148      126.99712818100552      126.06629485119161
N          112.34260287626176      127.60419999605872      125.37386974936879
H          113.01070994124339      128.05419463305554      127.28335010489535
H          113.02743144662119      129.40939174849410      126.14574230253865
H          112.60505295910407      126.61935984728541      125.35944153012247
H          112.41484553691281      127.95198536434545      124.42064292620391
O          121.67812061988271      128.55979767049243      125.07772049859852
C          115.27550034182769      114.88806338358988       97.64644168414149
C          115.88663171610175      114.62999312935426       99.00595044100103
C          114.02133940102556      114.03631575966958       97.41543378110444
C          112.76597074494329      114.62302664225949       98.05677064709685
H          113.84563880249642      113.96207653880948       96.34096008994406
H          114.20283687149650      113.03004366877919       97.79837263606429
C          112.87243203009682      114.78377820831520       99.57846785918686
H          112.55390653151530      115.59259538383817       97.60449187429383
H          111.92636525078198      113.96071784099242       97.83038964927108
C          111.49363761794034      115.03080901296889      100.15326499853475
H          113.29929354766088      113.88798393401265      100.02910483095181
H          113.51016795345558      115.63779734648304       99.81094519489355
N          111.09169600041167      114.14305860686794      101.06726340689751
O          116.27418569565833      113.39045483279855       99.15892866488005
O          116.01116751658941      115.49147175565395       99.85320102215314
H          116.65100091201973      113.17137093743520      100.07867980933405
H          116.02925783196531      114.61936918233586       96.90412124169391
H          115.04189902097119      115.94781858458479       97.54468442578445
C          109.74511989850197      114.11414834561337      101.59292817422491
H          111.74287658203529      113.42665485082993      101.38460496553182
C          109.70150292427796      114.09472064455579      103.11790622735792
H          109.22267392243366      114.99481239813636      101.20909198010777
H          109.23709964093982      113.21987701693367      101.21005484685094
C          108.26660580949050      113.91939753292952      103.60443131630110
H          110.30429091924148      113.26340894802993      103.48627555197743
H          110.11466120305539      115.02791344802613      103.50306749058772
C          108.16041803115118      113.75084027425996      105.11858270506235
H          107.66219153113215      114.77048268252105      103.28099253437003
H          107.85883060854705      113.02162631800996      103.13583576415969
C          106.73754341834845      113.35565977990774      105.50936152221703
H          108.85797888081382      112.97458438587488      105.43542208770846
H          108.43772513327710      114.67962636248001      105.62073566246056
C          106.50128262011921      113.31083626799547      107.01534779009840
H          106.03377885783834      114.06686698504930      105.07058518263408
H          106.51486360078914      112.37280405757799      105.09313214677533
N          106.60256965138053      114.63244273401797      107.59338779164241
H          105.50347109981662      112.89907387824005      107.21604456457464
H          107.24274816792301      112.67889881338415      107.51171816200124