      -----------------------------------------------------------      
     |                   =====================                   |     
     |                           x T B                           |     
     |                   =====================                   |     
     |                         S. Grimme                         |     
     |          Mulliken Center for Theoretical Chemistry        |     
     |                    University of Bonn                     |     
      -----------------------------------------------------------      

   * xtb version 6.6.1 (8d0f1dd) compiled by 'stahn@M-Bot' on 2023-08-01

   xtb is free software: you can redistribute it and/or modify it under
   the terms of the GNU Lesser General Public License as published by
   the Free Software Foundation, either version 3 of the License, or
   (at your option) any later version.
   
   xtb is distributed in the hope that it will be useful,
   but WITHOUT ANY WARRANTY; without even the implied warranty of
   MERCHANTABILITY or FITNESS FOR A PARTICULAR PURPOSE.  See the
   GNU Lesser General Public License for more details.
   
   Cite this work as:
   * C. Bannwarth, E. Caldeweyher, S. Ehlert, A. Hansen, P. Pracht,
     J. Seibert, S. Spicher, S. Grimme, WIREs Comput. Mol. Sci., 2020, 11,
     e01493. DOI: 10.1002/wcms.1493
   
   for GFN2-xTB:
   * C. Bannwarth, S. Ehlert and S. Grimme., J. Chem. Theory Comput., 2019,
     15, 1652-1671. DOI: 10.1021/acs.jctc.8b01176
   for GFN1-xTB:
   * S. Grimme, C. Bannwarth, P. Shushkov, J. Chem. Theory Comput., 2017,
     13, 1989-2009. DOI: 10.1021/acs.jctc.7b00118
   for GFN0-xTB:
   * P. Pracht, E. Caldeweyher, S. Ehlert, S. Grimme, ChemRxiv, 2019, preprint.
     DOI: 10.26434/chemrxiv.8326202.v1
   for GFN-FF:
   * S. Spicher and S. Grimme, Angew. Chem. Int. Ed., 2020, 59, 15665-15673.
     DOI: 10.1002/anie.202004239
   
   for ALPB and GBSA implicit solvation:
   * S. Ehlert, M. Stahn, S. Spicher, S. Grimme, J. Chem. Theory Comput.,
     2021, 17, 4250-4261. DOI: 10.1021/acs.jctc.1c00471
   
   for DFT-D4:
   * E. Caldeweyher, C. Bannwarth and S. Grimme, J. Chem. Phys., 2017,
     147, 034112. DOI: 10.1063/1.4993215
   * E. Caldeweyher, S. Ehlert, A. Hansen, H. Neugebauer, S. Spicher,
     C. Bannwarth and S. Grimme, J. Chem. Phys., 2019, 150, 154122.
     DOI: 10.1063/1.5090222
   * E. Caldeweyher, J.-M. Mewes, S. Ehlert and S. Grimme, Phys. Chem. Chem. Phys.
     2020, 22, 8499-8512. DOI: 10.1039/D0CP00502A
   
   for sTDA-xTB:
   * S. Grimme and C. Bannwarth, J. Chem. Phys., 2016, 145, 054103.
     DOI: 10.1063/1.4959605
   
   in the mass-spec context:
   * V. Asgeirsson, C. Bauer and S. Grimme, Chem. Sci., 2017, 8, 4879.
     DOI: 10.1039/c7sc00601b
   * J. Koopman and S. Grimme, ACS Omega 2019, 4, 12, 15120-15133.
     DOI: 10.1021/acsomega.9b02011
   
   for metadynamics refer to:
   * S. Grimme, J. Chem. Theory Comput., 2019, 155, 2847-2862
     DOI: 10.1021/acs.jctc.9b00143
   
   for SPH calculations refer to:
   * S. Spicher and S. Grimme, J. Chem. Theory Comput., 2021, 17, 1701-1714
     DOI: 10.1021/acs.jctc.0c01306
   
   with help from (in alphabetical order)
   P. Atkinson, C. Bannwarth, F. Bohle, G. Brandenburg, E. Caldeweyher
   M. Checinski, S. Dohm, S. Ehlert, S. Ehrlich, I. Gerasimov, C. Hölzer
   A. Katbashev, J. Koopman, C. Lavigne, S. Lehtola, F. März, M. Müller,
   F. Musil, H. Neugebauer, J. Pisarek, C. Plett, P. Pracht, F. Pultar,
   J. Seibert, P. Shushkov, S. Spicher, M. Stahn, M. Steiner, T. Strunk,
   J. Stückrath, T. Rose, and J. Unsleber
   
 * started run on 2024/10/04 at 14:12:38.391     

           -------------------------------------------------
          |                Calculation Setup                |
           -------------------------------------------------

          program call               : /home/abt-grimme/AK-bin/xtb input.xyz --input input.inp --opt
          hostname                   : boar036.thch.uni-bonn.de
          coordinate file            : input.xyz
          omp threads                :                     8

   ID    Z sym.   atoms
    1    6 C      1-146, 294-300, 306, 309-314, 323-468, 616-622, 628,
                  631-636, 645-790, 938-944, 950, 953-958, 967-1112,
                  1260-1266, 1272, 1275-1280, 1289-1434, 1582-1588, 1594,
                  1597-1602, 1611-1756, 1904-1910, 1916, 1919-1924,
                  1933-2078, 2226-2232, 2238, 2241-2246, 2255-2400,
                  2548-2554, 2560, 2563-2568, 2577-2722, 2870-2876, 2882,
                  2885-2890, 2899-3044, 3192-3198, 3204, 3207-3212,
                  3221-3366, 3514-3520, 3526, 3529-3534, 3543-3688,
                  3836-3842, 3848, 3851-3856
    2    1 H      147-293, 301-305, 307, 308, 315-322, 469-615, 623-627, 629,
                  630, 637-644, 791-937, 945-949, 951, 952, 959-966,
                  1113-1259, 1267-1271, 1273, 1274, 1281-1288, 1435-1581,
                  1589-1593, 1595, 1596, 1603-1610, 1757-1903, 1911-1915,
                  1917, 1918, 1925-1932, 2079-2225, 2233-2237, 2239, 2240,
                  2247-2254, 2401-2547, 2555-2559, 2561, 2562, 2569-2576,
                  2723-2869, 2877-2881, 2883, 2884, 2891-2898, 3045-3191,
                  3199-3203, 3205, 3206, 3213-3220, 3367-3513, 3521-3525,
                  3527, 3528, 3535-3542, 3689-3835, 3843-3847, 3849, 3850,
                  3857-3864

molecular fragmentation (1/2 indicates fragments):
111111111111111111111111111111111111111111111111111111111111111111111111
111111111111111111111111111111111111111111111111111111111111111111111111
111111111111111111111111111111111111111111111111111111111111111111111111
111111111111111111111111111111111111111111111111111111111111111111111111
111111111111111111111111111111111122222222222222222222222222222222222222
222222222222222222222222222222222222222222222222222222222222222222222222
222222222222222222222222222222222222222222222222222222222222222222222222
222222222222222222222222222222222222222222222222222222222222222222222222
222222222222222222222222222222222222222222222222222222222222222222222222
222222222222222222222222222222222222222222222222222222222222222222222222
222222222222222222222222222222222222222222222222222222222222222222222222
222222222222222222222222222222222222222222222222222222222222222222222222
222222222222222222222222222222222222222222222222222222222222222222222222
222222222222222222222222222222222222222222222222222222222222222222222222
222222222222222222222222222222222222222222222222222222222222222222222222
222222222222222222222222222222222222222222222222222222222222222222222222
222222222222222222222222222222222222222222222222222222222222222222222222
222222222222222222222222222222222222222222222222222222222222222222222222
222222222222222222222222222222222222222222222222222222222222222222222222
222222222222222222222222222222222222222222222222222222222222222222222222
222222222222222222222222222222222222222222222222222222222222222222222222
222222222222222222222222222222222222222222222222222222222222222222222222
222222222222222222222222222222222222222222222222222222222222222222222222
222222222222222222222222222222222222222222222222222222222222222222222222
222222222222222222222222222222222222222222222222222222222222222222222222
222222222222222222222222222222222222222222222222222222222222222222222222
222222222222222222222222222222222222222222222222222222222222222222222222
222222222222222222222222222222222222222222222222222222222222222222222222
222222222222222222222222222222222222222222222222222222222222222222222222
222222222222222222222222222222222222222222222222222222222222222222222222
222222222222222222222222222222222222222222222222222222222222222222222222
222222222222222222222222222222222222222222222222222222222222222222222222
222222222222222222222222222222222222222222222222222222222222222222222222
222222222222222222222222222222222222222222222222222222222222222222222222
222222222222222222222222222222222222222222222222222222222222222222222222
222222222222222222222222222222222222222222222222222222222222222222222222
222222222222222222222222222222222222222222222222222222222222222222222222
222222222222222222222222222222222222222222222222222222222222222222222222
222222222222222222222222222222222222222222222222222222222222222222222222
222222222222222222222222222222222222222222222222222222222222222222222222
222222222222222222222222222222222222222222222222222222222222222222222222
222222222222222222222222222222222222222222222222222222222222222222222222
222222222222222222222222222222222222222222222222222222222222222222222222
222222222222222222222222222222222222222222222222222222222222222222222222
222222222222222222222222222222222222222222222222222222222222222222222222
222222222222222222222222222222222222222222222222222222222222222222222222
222222222222222222222222222222222222222222222222222222222222222222222222
222222222222222222222222222222222222222222222222222222222222222222222222
222222222222222222222222222222222222222222222222222222222222222222222222
222222222222222222222222222222222222222222222222222222222222222222222222
222222222222222222222222222222222222222222222222222222222222222222222222
222222222222222222222222222222222222222222222222222222222222222222222222
222222222222222222222222222222222222222222222222222222222222222222222222
222222222222222222222222222222222222222222222222
# atoms in fragment 1/2:   322  3542
 fragment masses (1/2) :     2085.00    22935.05
CMA distance (Bohr)    :  30.577
constraining FC (au)   :  0.0500

           -------------------------------------------------
          |                 G F N 2 - x T B                 |
           -------------------------------------------------

        Reference                      10.1021/acs.jctc.8b01176
      * Hamiltonian:
        H0-scaling (s, p, d)           1.850000    2.230000    2.230000
        zeta-weighting                 0.500000
      * Dispersion:
        s8                             2.700000
        a1                             0.520000
        a2                             5.000000
        s9                             5.000000
      * Repulsion:
        kExp                           1.500000    1.000000
        rExp                           1.000000
      * Coulomb:
        alpha                          2.000000
        third order                    shell-resolved
        anisotropic                    true
        a3                             3.000000
        a5                             4.000000
        cn-shift                       1.200000
        cn-exp                         4.000000
        max-rad                        5.000000


          ...................................................
          :                      SETUP                      :
          :.................................................:
          :  # basis functions                9624          :
          :  # atomic orbitals                9624          :
          :  # shells                         5784          :
          :  # electrons                      9624          :
          :  max. iterations                   250          :
          :  Hamiltonian                  GFN2-xTB          :
          :  restarted?                      false          :
          :  GBSA solvation                  false          :
          :  PC potential                    false          :
          :  electronic temp.          300.0000000     K    :
          :  accuracy                    1.0000000          :
          :  -> integral cutoff          0.2500000E+02      :
          :  -> integral neglect         0.1000000E-07      :
          :  -> SCF convergence          0.1000000E-05 Eh   :
          :  -> wf. convergence          0.1000000E-03 e    :
          :  Broyden damping             0.4000000          :
          ...................................................

 iter      E             dE          RMSdq      gap      omega  full diag
   1  -5195.7228523 -0.519572E+04  0.369E+00    4.33       0.0  T
   2  -5198.3069792 -0.258413E+01  0.218E+00    4.30       1.0  T
   3  -5198.2371440  0.698352E-01  0.495E-01    4.13       1.0  T
   4  -5198.4390097 -0.201866E+00  0.242E-01    4.05       1.0  T
   5  -5198.5926488 -0.153639E+00  0.462E-02    4.12       1.0  T
   6  -5198.5946913 -0.204244E-02  0.286E-02    4.12       1.0  T
   7  -5198.5959126 -0.122134E-02  0.111E-02    4.13       1.0  T
   8  -5198.5962216 -0.308932E-03  0.288E-03    4.12       1.0  T
   9  -5198.5962385 -0.169046E-04  0.123E-03    4.12       1.3  T
  10  -5198.5962400 -0.151111E-05  0.526E-04    4.12       3.1  T
  11  -5198.5962402 -0.213332E-06  0.281E-04    4.12       5.7  T
  12  -5198.5962404 -0.175080E-06  0.101E-04    4.12      15.9  T

   *** convergence criteria satisfied after 12 iterations ***

         #    Occupation            Energy/Eh            Energy/eV
      -------------------------------------------------------------
         1        2.0000           -0.6500355             -17.6884
       ...           ...                  ...                  ...
      4806        2.0000           -0.3816499             -10.3852
      4807        2.0000           -0.3814283             -10.3792
      4808        2.0000           -0.3812440             -10.3742
      4809        2.0000           -0.3809006             -10.3648
      4810        2.0000           -0.3804073             -10.3514
      4811        2.0000           -0.3798234             -10.3355
      4812        2.0000           -0.3787666             -10.3068 (HOMO)
      4813                         -0.2271826              -6.1820 (LUMO)
      4814                         -0.2270809              -6.1792
      4815                         -0.2267568              -6.1704
      4816                         -0.2265263              -6.1641
      4817                         -0.2264406              -6.1618
       ...                                ...                  ...
      9624                          0.6813755              18.5412
      -------------------------------------------------------------
                  HL-Gap            0.1515840 Eh            4.1248 eV
             Fermi-level           -0.3029746 Eh           -8.2444 eV

 SCC (total)                   0 d,  0 h, 48 min, 23.003 sec
 SCC setup                      ...        0 min,  0.711 sec (  0.025%)
 Dispersion                     ...        0 min,  6.658 sec (  0.229%)
 classical contributions        ...        0 min,  0.174 sec (  0.006%)
 integral evaluation            ...        0 min, 12.408 sec (  0.427%)
 iterations                     ...       42 min, 15.802 sec ( 87.351%)
 molecular gradient             ...        5 min, 20.054 sec ( 11.025%)
 printout                       ...        0 min, 27.194 sec (  0.937%)

         :::::::::::::::::::::::::::::::::::::::::::::::::::::
         ::                     SUMMARY                     ::
         :::::::::::::::::::::::::::::::::::::::::::::::::::::
         :: total energy           -5104.079432653334 Eh    ::
         :: gradient norm              0.022427758706 Eh/a0 ::
         :: HOMO-LUMO gap              4.124810567606 eV    ::
         ::.................................................::
         :: SCC energy             -5198.596240358612 Eh    ::
         :: -> isotropic ES            0.265055524669 Eh    ::
         :: -> anisotropic ES          0.787444074429 Eh    ::
         :: -> anisotropic XC          3.253285911630 Eh    ::
         :: -> dispersion             -6.991823433624 Eh    ::
         :: repulsion energy          93.379579093402 Eh    ::
         :: add. restraining           0.000000000000 Eh    ::
         :: total charge              -0.000000000025 e     ::
         :::::::::::::::::::::::::::::::::::::::::::::::::::::

      ----------------------------------------------------------- 
     |              Fast Inertial Relaxation Engine              |
      ----------------------------------------------------------- 

          ...................................................
          :                      SETUP                      :
          :.................................................:
          :   energy convergence        0.5000000E-05 Eh    :
          :   grad. convergence         0.1000000E-02 Eh/a0 :
          :   optimization log               true           :
          :   writing optlog all                1     steps :
          :   Hessian reset                    20     steps :
          :   time step scaling                 5     steps :
          :   maximium step len.        1.0000000     a0    :
          :   initial time step         0.2500000     fs    :
          :   maximum time step         1.2500000     fs    :
          :   power reset thr           0.0000000     au    :
          :   alpha parameter           0.1000000           :
          :   BFGS update                   false           :
          :   preconditioning               false           :
          ...................................................

........................................................................
.............................. CYCLE    1 ..............................
........................................................................

 iter      E             dE          RMSdq      gap      omega  full diag
   1  -5198.5974127 -0.519860E+04  0.311E-04    4.12       0.0  T
   2  -5198.5974127 -0.150849E-07  0.192E-04    4.12       8.4  T
   3  -5198.5974126  0.323344E-07  0.864E-05    4.12      18.6  T
     SCC iter.                  ...       10 min, 36.168 sec
     gradient                   ...        5 min, 18.897 sec
 * total energy  : -5104.0794897 Eh     change    :  -0.5708075E-04 Eh
   gradient norm :     0.0210485 Eh/a0  converged?    E=F G=F D=F
   time step     :     0.2500000 fs     power     :   0.2934110E-08
   step length   :     0.0026285 a0     speed     :   0.2543201E-03

........................................................................
.............................. CYCLE    2 ..............................
........................................................................

 iter      E             dE          RMSdq      gap      omega  full diag
   1  -5198.5991490 -0.519860E+04  0.457E-04    4.13       0.0  T
   2  -5198.5991490 -0.288564E-07  0.280E-04    4.13       5.7  T
   3  -5198.5991490  0.454320E-07  0.105E-04    4.13      15.3  T
     SCC iter.                  ...       10 min, 37.274 sec
     gradient                   ...        5 min, 20.805 sec
 * total energy  : -5104.0795670 Eh     change    :  -0.7729320E-04 Eh
   gradient norm :     0.0191002 Eh/a0  converged?    E=F G=F D=F
   time step     :     0.2500000 fs     power     :   0.3897463E-08
   step length   :     0.0038611 a0     speed     :   0.3735855E-03

........................................................................
.............................. CYCLE    3 ..............................
........................................................................

 iter      E             dE          RMSdq      gap      omega  full diag
   1  -5198.6014328 -0.519860E+04  0.588E-04    4.13       0.0  T
   2  -5198.6014329 -0.446307E-07  0.360E-04    4.13       4.5  T
   3  -5198.6014328  0.705131E-07  0.128E-04    4.13      12.6  T
     SCC iter.                  ...       10 min, 36.618 sec
     gradient                   ...        5 min, 20.274 sec
 * total energy  : -5104.0796555 Eh     change    :  -0.8849711E-04 Eh
   gradient norm :     0.0167776 Eh/a0  converged?    E=F G=F D=F
   time step     :     0.2500000 fs     power     :   0.4368287E-08
   step length   :     0.0049758 a0     speed     :   0.4814386E-03

........................................................................
.............................. CYCLE    4 ..............................
........................................................................

 iter      E             dE          RMSdq      gap      omega  full diag
   1  -5198.6042466 -0.519860E+04  0.701E-04    4.13       0.0  T
   2  -5198.6042467 -0.592036E-07  0.431E-04    4.13       3.7  T
   3  -5198.6042466  0.107752E-06  0.153E-04    4.13      10.5  T
     SCC iter.                  ...       10 min, 35.784 sec
     gradient                   ...        5 min, 19.726 sec
 * total energy  : -5104.0797459 Eh     change    :  -0.9035549E-04 Eh
   gradient norm :     0.0143382 Eh/a0  converged?    E=F G=F D=F
   time step     :     0.2500000 fs     power     :   0.4349223E-08
   step length   :     0.0059432 a0     speed     :   0.5750355E-03

........................................................................
.............................. CYCLE    5 ..............................
........................................................................

 iter      E             dE          RMSdq      gap      omega  full diag
   1  -5198.6075694 -0.519861E+04  0.793E-04    4.13       0.0  T
   2  -5198.6075694 -0.703076E-07  0.490E-04    4.13       3.3  T
   3  -5198.6075693  0.159517E-06  0.179E-04    4.13       9.0  T
     SCC iter.                  ...       10 min, 34.799 sec
     gradient                   ...        5 min, 20.257 sec
 * total energy  : -5104.0798300 Eh     change    :  -0.8409977E-04 Eh
   gradient norm :     0.0120988 Eh/a0  converged?    E=F G=F D=F
   time step     :     0.2500000 fs     power     :   0.3930952E-08
   step length   :     0.0067398 a0     speed     :   0.6521104E-03

........................................................................
.............................. CYCLE    6 ..............................
........................................................................

 iter      E             dE          RMSdq      gap      omega  full diag
   1  -5198.6117926 -0.519861E+04  0.954E-04    4.13       0.0  T
   2  -5198.6117927 -0.944647E-07  0.594E-04    4.13       2.7  T
   3  -5198.6117924  0.299569E-06  0.236E-04    4.13       6.8  T
     SCC iter.                  ...       10 min, 34.492 sec
     gradient                   ...        5 min, 21.485 sec
 * total energy  : -5104.0799091 Eh     change    :  -0.7911512E-04 Eh
   gradient norm :     0.0102316 Eh/a0  converged?    E=F G=F D=F
   time step     :     0.2750000 fs     power     :   0.3185814E-08
   step length   :     0.0081524 a0     speed     :   0.7170781E-03

........................................................................
.............................. CYCLE    7 ..............................
........................................................................

 iter      E             dE          RMSdq      gap      omega  full diag
   1  -5198.6170093 -0.519862E+04  0.111E-03    4.13       0.0  T
   2  -5198.6170094 -0.115693E-06  0.698E-04    4.13       2.3  T
   3  -5198.6170089  0.510469E-06  0.301E-04    4.13       5.3  T
     SCC iter.                  ...       10 min, 35.391 sec
     gradient                   ...        5 min, 21.282 sec
 * total energy  : -5104.0799763 Eh     change    :  -0.6724260E-04 Eh
   gradient norm :     0.0091235 Eh/a0  converged?    E=F G=F D=F
   time step     :     0.3025000 fs     power     :   0.2275482E-08
   step length   :     0.0095386 a0     speed     :   0.7627351E-03

........................................................................
.............................. CYCLE    8 ..............................
........................................................................

 iter      E             dE          RMSdq      gap      omega  full diag
   1  -5198.6231749 -0.519862E+04  0.124E-03    4.13       0.0  T
   2  -5198.6231750 -0.134956E-06  0.787E-04    4.13       2.0  T
   3  -5198.6231742  0.748968E-06  0.364E-04    4.13       4.4  T
     SCC iter.                  ...       10 min, 35.357 sec
     gradient                   ...        5 min, 20.639 sec
 * total energy  : -5104.0800282 Eh     change    :  -0.5188495E-04 Eh
   gradient norm :     0.0086877 Eh/a0  converged?    E=F G=F D=F
   time step     :     0.3327500 fs     power     :   0.1411142E-08
   step length   :     0.0107592 a0     speed     :   0.7821250E-03

........................................................................
.............................. CYCLE    9 ..............................
........................................................................

 iter      E             dE          RMSdq      gap      omega  full diag
   1  -5198.6300278 -0.519863E+04  0.133E-03    4.13       0.0  T
   2  -5198.6300280 -0.156489E-06  0.851E-04    4.13       1.9  T
   3  -5198.6300271  0.881209E-06  0.405E-04    4.13       4.0  T
     SCC iter.                  ...       10 min, 34.475 sec
     gradient                   ...        5 min, 22.685 sec
 * total energy  : -5104.0800648 Eh     change    :  -0.3660156E-04 Eh
   gradient norm :     0.0084192 Eh/a0  converged?    E=F G=F D=F
   time step     :     0.3660250 fs     power     :   0.7064769E-09
   step length   :     0.0117194 a0     speed     :   0.7744789E-03

........................................................................
.............................. CYCLE   10 ..............................
........................................................................

 iter      E             dE          RMSdq      gap      omega  full diag
   1  -5198.6370759 -0.519864E+04  0.140E-03    4.13       0.0  T
   2  -5198.6370761 -0.178246E-06  0.880E-04    4.13       1.8  T
   3  -5198.6370752  0.843174E-06  0.413E-04    4.13       3.9  T
     SCC iter.                  ...       10 min, 35.611 sec
     gradient                   ...        5 min, 19.801 sec
 * total energy  : -5104.0800870 Eh     change    :  -0.2213064E-04 Eh
   gradient norm :     0.0081599 Eh/a0  converged?    E=F G=F D=F
   time step     :     0.4026275 fs     power     :   0.1386634E-09
   step length   :     0.0123985 a0     speed     :   0.7448709E-03

........................................................................
.............................. CYCLE   11 ..............................
........................................................................

 iter      E             dE          RMSdq      gap      omega  full diag
   1  -5198.6435949 -0.519864E+04  0.141E-03    4.13       0.0  T
   2  -5198.6435951 -0.182134E-06  0.868E-04    4.13       1.9  T
   3  -5198.6435945  0.643451E-06  0.375E-04    4.13       4.3  T
     SCC iter.                  ...       10 min, 34.082 sec
     gradient                   ...        5 min, 21.379 sec
 * total energy  : -5104.0800955 Eh     change    :  -0.8527101E-05 Eh
   gradient norm :     0.0083382 Eh/a0  converged?    E=F G=F D=F
   time step     :     0.4428903 fs     power     :  -0.2936325E-09
   step length   :     0.0127675 a0     speed     :   0.6973058E-03

........................................................................
.............................. CYCLE   12 ..............................
........................................................................
 * reset velocities

 iter      E             dE          RMSdq      gap      omega  full diag
   1  -5198.6434316 -0.519864E+04  0.619E-05    4.13       0.0  T
   2  -5198.6434316 -0.570253E-08  0.554E-05    4.13      29.0  T
   3  -5198.6434317 -0.130403E-07  0.195E-05    4.13      82.4  T
     SCC iter.                  ...       10 min, 38.373 sec
     gradient                   ...        5 min, 19.063 sec
 * total energy  : -5104.0800994 Eh     change    :  -0.3941338E-05 Eh
   gradient norm :     0.0081942 Eh/a0  converged?    E=T G=F D=T
   time step     :     0.2214451 fs     power     :   0.1882204E-09
   step length   :     0.0003834 a0     speed     :   0.4187572E-04

........................................................................
.............................. CYCLE   13 ..............................
........................................................................

 iter      E             dE          RMSdq      gap      omega  full diag
   1  -5198.6430955 -0.519864E+04  0.738E-05    4.13       0.0  T
   2  -5198.6430955 -0.114778E-08  0.516E-05    4.13      31.2  T
   3  -5198.6430955  0.223281E-08  0.225E-05    4.13      71.6  T
     SCC iter.                  ...       10 min, 37.759 sec
     gradient                   ...        5 min, 19.636 sec
 * total energy  : -5104.0801055 Eh     change    :  -0.6114665E-05 Eh
   gradient norm :     0.0078684 Eh/a0  converged?    E=F G=F D=T
   time step     :     0.2214451 fs     power     :   0.3582533E-09
   step length   :     0.0007601 a0     speed     :   0.8302645E-04

........................................................................
.............................. CYCLE   14 ..............................
........................................................................

 iter      E             dE          RMSdq      gap      omega  full diag
   1  -5198.6425902 -0.519864E+04  0.106E-04    4.13       0.0  T
   2  -5198.6425902 -0.252385E-08  0.746E-05    4.13      21.6  T
   3  -5198.6425902  0.440377E-08  0.323E-05    4.13      49.8  T
     SCC iter.                  ...       10 min, 37.355 sec
     gradient                   ...        5 min, 20.647 sec
 * total energy  : -5104.0801141 Eh     change    :  -0.8577895E-05 Eh
   gradient norm :     0.0073965 Eh/a0  converged?    E=F G=F D=F
   time step     :     0.2214451 fs     power     :   0.4965529E-09
   step length   :     0.0011218 a0     speed     :   0.1225326E-03

........................................................................
.............................. CYCLE   15 ..............................
........................................................................

 iter      E             dE          RMSdq      gap      omega  full diag
   1  -5198.6419213 -0.519864E+04  0.138E-04    4.13       0.0  T
   2  -5198.6419213 -0.433010E-08  0.967E-05    4.13      16.6  T
   3  -5198.6419213  0.768705E-08  0.416E-05    4.13      38.7  T
     SCC iter.                  ...       10 min, 36.760 sec
     gradient                   ...        5 min, 19.177 sec
 * total energy  : -5104.0801244 Eh     change    :  -0.1033357E-04 Eh
   gradient norm :     0.0068007 Eh/a0  converged?    E=F G=F D=F
   time step     :     0.2214451 fs     power     :   0.5933949E-09
   step length   :     0.0014614 a0     speed     :   0.1596357E-03

........................................................................
.............................. CYCLE   16 ..............................
........................................................................

 iter      E             dE          RMSdq      gap      omega  full diag
   1  -5198.6410960 -0.519864E+04  0.166E-04    4.13       0.0  T
   2  -5198.6410960 -0.581076E-08  0.117E-04    4.13      13.8  T
   3  -5198.6410959  0.115178E-07  0.501E-05    4.13      32.1  T
     SCC iter.                  ...       10 min, 36.169 sec
     gradient                   ...        5 min, 25.419 sec
 * total energy  : -5104.0801358 Eh     change    :  -0.1138719E-04 Eh
   gradient norm :     0.0061112 Eh/a0  converged?    E=F G=F D=F
   time step     :     0.2214451 fs     power     :   0.6434054E-09
   step length   :     0.0017729 a0     speed     :   0.1936550E-03

........................................................................
.............................. CYCLE   17 ..............................
........................................................................

 iter      E             dE          RMSdq      gap      omega  full diag
   1  -5198.6401230 -0.519864E+04  0.191E-04    4.13       0.0  T
   2  -5198.6401230 -0.761702E-08  0.134E-04    4.13      12.0  T
   3  -5198.6401230  0.160662E-07  0.575E-05    4.13      28.0  T
     SCC iter.                  ...       10 min, 35.506 sec
     gradient                   ...        5 min, 19.724 sec
 * total energy  : -5104.0801475 Eh     change    :  -0.1162264E-04 Eh
   gradient norm :     0.0053685 Eh/a0  converged?    E=F G=F D=F
   time step     :     0.2214451 fs     power     :   0.6462859E-09
   step length   :     0.0020507 a0     speed     :   0.2239975E-03

........................................................................
.............................. CYCLE   18 ..............................
........................................................................

 iter      E             dE          RMSdq      gap      omega  full diag
   1  -5198.6388878 -0.519864E+04  0.233E-04    4.13       0.0  T
   2  -5198.6388878 -0.111213E-07  0.164E-04    4.13       9.8  T
   3  -5198.6388877  0.259224E-07  0.713E-05    4.13      22.6  T
     SCC iter.                  ...       10 min, 35.752 sec
     gradient                   ...        5 min, 20.470 sec
 * total energy  : -5104.0801597 Eh     change    :  -0.1224404E-04 Eh
   gradient norm :     0.0045484 Eh/a0  converged?    E=F G=F D=F
   time step     :     0.2435896 fs     power     :   0.6003345E-09
   step length   :     0.0025459 a0     speed     :   0.2528134E-03

........................................................................
.............................. CYCLE   19 ..............................
........................................................................

 iter      E             dE          RMSdq      gap      omega  full diag
   1  -5198.6373516 -0.519864E+04  0.277E-04    4.13       0.0  T
   2  -5198.6373516 -0.147566E-07  0.196E-04    4.13       8.2  T
   3  -5198.6373516  0.392556E-07  0.857E-05    4.13      18.8  T
     SCC iter.                  ...       10 min, 34.830 sec
     gradient                   ...        5 min, 20.602 sec
 * total energy  : -5104.0801715 Eh     change    :  -0.1178717E-04 Eh
   gradient norm :     0.0037501 Eh/a0  converged?    E=F G=F D=F
   time step     :     0.2679486 fs     power     :   0.5041281E-09
   step length   :     0.0030837 a0     speed     :   0.2783789E-03

........................................................................
.............................. CYCLE   20 ..............................
........................................................................

 iter      E             dE          RMSdq      gap      omega  full diag
   1  -5198.6354887 -0.519864E+04  0.318E-04    4.13       0.0  T
   2  -5198.6354887 -0.177288E-07  0.225E-04    4.13       7.2  T
   3  -5198.6354886  0.571590E-07  0.998E-05    4.13      16.1  T
     SCC iter.                  ...       10 min, 36.918 sec
     gradient                   ...        5 min, 20.032 sec
 * total energy  : -5104.0801818 Eh     change    :  -0.1032012E-04 Eh
   gradient norm :     0.0031699 Eh/a0  converged?    E=F G=F D=F
   time step     :     0.2947435 fs     power     :   0.3701205E-09
   step length   :     0.0036338 a0     speed     :   0.2982151E-03
 * RMSD in coord.:     0.0012534 a0     energy gain  -0.7491569E-03 Eh

........................................................................
.............................. CYCLE   21 ..............................
........................................................................

 iter      E             dE          RMSdq      gap      omega  full diag
   1  -5198.6338386 -0.519863E+04  0.268E-04    4.13       0.0  T
   2  -5198.6338386 -0.104410E-07  0.187E-04    4.13       8.6  T
   3  -5198.6338385  0.430337E-07  0.834E-05    4.13      19.3  T
     SCC iter.                  ...       10 min, 34.933 sec
     gradient                   ...        5 min, 19.394 sec
 * total energy  : -5104.0801882 Eh     change    :  -0.6439509E-05 Eh
   gradient norm :     0.0030119 Eh/a0  converged?    E=F G=F D=F
   time step     :     0.2500000 fs     power     :   0.2681492E-09
   step length   :     0.0031456 a0     speed     :   0.3043517E-03

........................................................................
.............................. CYCLE   22 ..............................
........................................................................

 iter      E             dE          RMSdq      gap      omega  full diag
   1  -5198.6321920 -0.519863E+04  0.254E-04    4.13       0.0  T
   2  -5198.6321921 -0.799992E-08  0.175E-04    4.13       9.2  T
   3  -5198.6321920  0.415930E-07  0.806E-05    4.13      20.0  T
     SCC iter.                  ...       10 min, 37.780 sec
     gradient                   ...        5 min, 21.908 sec
 * total energy  : -5104.0801931 Eh     change    :  -0.4823813E-05 Eh
   gradient norm :     0.0030827 Eh/a0  converged?    E=T G=F D=F
   time step     :     0.2500000 fs     power     :   0.1989340E-09
   step length   :     0.0031206 a0     speed     :   0.3019387E-03

........................................................................
.............................. CYCLE   23 ..............................
........................................................................

 iter      E             dE          RMSdq      gap      omega  full diag
   1  -5198.6306236 -0.519863E+04  0.237E-04    4.13       0.0  T
   2  -5198.6306236 -0.536875E-08  0.160E-04    4.13      10.1  T
   3  -5198.6306236  0.330228E-07  0.721E-05    4.13      22.3  T
     SCC iter.                  ...       10 min, 34.838 sec
     gradient                   ...        5 min, 20.488 sec
 * total energy  : -5104.0801971 Eh     change    :  -0.4035301E-05 Eh
   gradient norm :     0.0032386 Eh/a0  converged?    E=T G=F D=F
   time step     :     0.2500000 fs     power     :   0.1681900E-09
   step length   :     0.0030347 a0     speed     :   0.2936189E-03

........................................................................
.............................. CYCLE   24 ..............................
........................................................................

 iter      E             dE          RMSdq      gap      omega  full diag
   1  -5198.6291923 -0.519863E+04  0.222E-04    4.13       0.0  T
   2  -5198.6291923 -0.344880E-08  0.144E-04    4.13      11.2  T
   3  -5198.6291923  0.192476E-07  0.563E-05    4.13      28.6  T
     SCC iter.                  ...       10 min, 36.992 sec
     gradient                   ...        5 min, 18.574 sec
 * total energy  : -5104.0802009 Eh     change    :  -0.3828222E-05 Eh
   gradient norm :     0.0033731 Eh/a0  converged?    E=T G=F D=F
   time step     :     0.2500000 fs     power     :   0.1696950E-09
   step length   :     0.0029277 a0     speed     :   0.2832696E-03

........................................................................
.............................. CYCLE   25 ..............................
........................................................................

 iter      E             dE          RMSdq      gap      omega  full diag
   1  -5198.6279374 -0.519863E+04  0.212E-04    4.13       0.0  T
   2  -5198.6279374 -0.227101E-08  0.131E-04    4.13      12.3  T
   3  -5198.6279374  0.593263E-08  0.338E-05    4.13      47.6  T
     SCC iter.                  ...       10 min, 35.114 sec
     gradient                   ...        5 min, 19.491 sec
 * total energy  : -5104.0802050 Eh     change    :  -0.4072422E-05 Eh
   gradient norm :     0.0034352 Eh/a0  converged?    E=T G=F D=F
   time step     :     0.2500000 fs     power     :   0.1916319E-09
   step length   :     0.0028320 a0     speed     :   0.2740079E-03

........................................................................
.............................. CYCLE   26 ..............................
........................................................................

 iter      E             dE          RMSdq      gap      omega  full diag
   1  -5198.6267794 -0.519863E+04  0.229E-04    4.13       0.0  T
   2  -5198.6267794 -0.191540E-08  0.136E-04    4.13      11.8  T
   3  -5198.6267794  0.127238E-08  0.227E-05    4.13      71.0  T
     SCC iter.                  ...       10 min, 35.615 sec
     gradient                   ...        5 min, 18.987 sec
 * total energy  : -5104.0802100 Eh     change    :  -0.5037754E-05 Eh
   gradient norm :     0.0034037 Eh/a0  converged?    E=F G=F D=F
   time step     :     0.2750000 fs     power     :   0.2216599E-09
   step length   :     0.0030535 a0     speed     :   0.2685814E-03

........................................................................
.............................. CYCLE   27 ..............................
........................................................................

 iter      E             dE          RMSdq      gap      omega  full diag
   1  -5198.6257726 -0.519863E+04  0.252E-04    4.13       0.0  T
   2  -5198.6257726 -0.231830E-08  0.149E-04    4.13      10.8  T
   3  -5198.6257726  0.332511E-08  0.298E-05    4.13      53.9  T
     SCC iter.                  ...       10 min, 38.751 sec
     gradient                   ...        5 min, 20.424 sec
 * total energy  : -5104.0802162 Eh     change    :  -0.6184743E-05 Eh
   gradient norm :     0.0032669 Eh/a0  converged?    E=F G=F D=F
   time step     :     0.3025000 fs     power     :   0.2499094E-09
   step length   :     0.0033495 a0     speed     :   0.2678383E-03

........................................................................
.............................. CYCLE   28 ..............................
........................................................................

 iter      E             dE          RMSdq      gap      omega  full diag
   1  -5198.6249767 -0.519862E+04  0.286E-04    4.13       0.0  T
   2  -5198.6249767 -0.333694E-08  0.169E-04    4.13       9.5  T
   3  -5198.6249767  0.125729E-07  0.515E-05    4.13      31.2  T
     SCC iter.                  ...       10 min, 37.243 sec
     gradient                   ...        5 min, 20.429 sec
 * total energy  : -5104.0802235 Eh     change    :  -0.7314610E-05 Eh
   gradient norm :     0.0030350 Eh/a0  converged?    E=F G=F D=F
   time step     :     0.3327500 fs     power     :   0.2674806E-09
   step length   :     0.0037361 a0     speed     :   0.2715900E-03

........................................................................
.............................. CYCLE   29 ..............................
........................................................................

 iter      E             dE          RMSdq      gap      omega  full diag
   1  -5198.6244565 -0.519862E+04  0.327E-04    4.13       0.0  T
   2  -5198.6244565 -0.492037E-08  0.196E-04    4.13       8.2  T
   3  -5198.6244565  0.321616E-07  0.800E-05    4.13      20.1  T
     SCC iter.                  ...       10 min, 36.869 sec
     gradient                   ...        5 min, 21.765 sec
 * total energy  : -5104.0802317 Eh     change    :  -0.8140581E-05 Eh
   gradient norm :     0.0027441 Eh/a0  converged?    E=F G=F D=F
   time step     :     0.3660250 fs     power     :   0.2678422E-09
   step length   :     0.0042195 a0     speed     :   0.2788435E-03

........................................................................
.............................. CYCLE   30 ..............................
........................................................................

 iter      E             dE          RMSdq      gap      omega  full diag
   1  -5198.6242767 -0.519862E+04  0.371E-04    4.13       0.0  T
   2  -5198.6242767 -0.705131E-08  0.226E-04    4.13       7.1  T
   3  -5198.6242766  0.553146E-07  0.104E-04    4.13      15.4  T
     SCC iter.                  ...       10 min, 36.304 sec
     gradient                   ...        5 min, 19.926 sec
 * total energy  : -5104.0802403 Eh     change    :  -0.8601325E-05 Eh
   gradient norm :     0.0024638 Eh/a0  converged?    E=F G=F D=F
   time step     :     0.4026275 fs     power     :   0.2494500E-09
   step length   :     0.0047924 a0     speed     :   0.2879182E-03

........................................................................
.............................. CYCLE   31 ..............................
........................................................................

 iter      E             dE          RMSdq      gap      omega  full diag
   1  -5198.6244853 -0.519862E+04  0.410E-04    4.13       0.0  T
   2  -5198.6244853 -0.891032E-08  0.251E-04    4.13       6.4  T
   3  -5198.6244852  0.731106E-07  0.118E-04    4.13      13.6  T
     SCC iter.                  ...       10 min, 39.155 sec
     gradient                   ...        5 min, 20.369 sec
 * total energy  : -5104.0802488 Eh     change    :  -0.8521546E-05 Eh
   gradient norm :     0.0022764 Eh/a0  converged?    E=F G=F D=F
   time step     :     0.4428903 fs     power     :   0.2181592E-09
   step length   :     0.0054318 a0     speed     :   0.2966625E-03

........................................................................
.............................. CYCLE   32 ..............................
........................................................................

 iter      E             dE          RMSdq      gap      omega  full diag
   1  -5198.6250870 -0.519863E+04  0.438E-04    4.13       0.0  T
   2  -5198.6250870 -0.947603E-08  0.267E-04    4.13       6.0  T
   3  -5198.6250869  0.737155E-07  0.118E-04    4.13      13.7  T
     SCC iter.                  ...       10 min, 34.192 sec
     gradient                   ...        5 min, 20.754 sec
 * total energy  : -5104.0802571 Eh     change    :  -0.8258109E-05 Eh
   gradient norm :     0.0022147 Eh/a0  converged?    E=F G=F D=F
   time step     :     0.4871793 fs     power     :   0.1857865E-09
   step length   :     0.0061035 a0     speed     :   0.3030427E-03

........................................................................
.............................. CYCLE   33 ..............................
........................................................................

 iter      E             dE          RMSdq      gap      omega  full diag
   1  -5198.6260210 -0.519863E+04  0.448E-04    4.13       0.0  T
   2  -5198.6260210 -0.924592E-08  0.269E-04    4.13       6.0  T
   3  -5198.6260210  0.473101E-07  0.947E-05    4.13      17.0  T
     SCC iter.                  ...       10 min, 37.615 sec
     gradient                   ...        5 min, 21.665 sec
 * total energy  : -5104.0802651 Eh     change    :  -0.8042491E-05 Eh
   gradient norm :     0.0022470 Eh/a0  converged?    E=F G=F D=F
   time step     :     0.5358972 fs     power     :   0.1637496E-09
   step length   :     0.0067873 a0     speed     :   0.3063570E-03

........................................................................
.............................. CYCLE   34 ..............................
........................................................................

 iter      E             dE          RMSdq      gap      omega  full diag
   1  -5198.6271650 -0.519863E+04  0.439E-04    4.13       0.0  T
   2  -5198.6271650 -0.889213E-08  0.262E-04    4.13       6.1  T
   3  -5198.6271650  0.109339E-07  0.526E-05    4.13      30.6  T
     SCC iter.                  ...       10 min, 35.040 sec
     gradient                   ...        5 min, 18.911 sec
 * total energy  : -5104.0802736 Eh     change    :  -0.8452259E-05 Eh
   gradient norm :     0.0023246 Eh/a0  converged?    E=F G=F D=F
   time step     :     0.5894869 fs     power     :   0.1588941E-09
   step length   :     0.0075033 a0     speed     :   0.3078883E-03

........................................................................
.............................. CYCLE   35 ..............................
........................................................................

 iter      E             dE          RMSdq      gap      omega  full diag
   1  -5198.6283526 -0.519863E+04  0.420E-04    4.13       0.0  T
   2  -5198.6283527 -0.752880E-08  0.254E-04    4.13       6.3  T
   3  -5198.6283526  0.126020E-07  0.526E-05    4.13      30.6  T
     SCC iter.                  ...       10 min, 35.148 sec
     gradient                   ...        5 min, 20.544 sec
 * total energy  : -5104.0802832 Eh     change    :  -0.9661406E-05 Eh
   gradient norm :     0.0023474 Eh/a0  converged?    E=F G=F D=F
   time step     :     0.6484356 fs     power     :   0.1717422E-09
   step length   :     0.0083171 a0     speed     :   0.3102566E-03

........................................................................
.............................. CYCLE   36 ..............................
........................................................................

 iter      E             dE          RMSdq      gap      omega  full diag
   1  -5198.6293865 -0.519863E+04  0.409E-04    4.13       0.0  T
   2  -5198.6293865 -0.628461E-08  0.252E-04    4.13       6.4  T
   3  -5198.6293865  0.225418E-07  0.652E-05    4.13      24.7  T
     SCC iter.                  ...       10 min, 36.390 sec
     gradient                   ...        5 min, 21.290 sec
 * total energy  : -5104.0802948 Eh     change    :  -0.1158456E-04 Eh
   gradient norm :     0.0022127 Eh/a0  converged?    E=F G=F D=F
   time step     :     0.7132792 fs     power     :   0.1889404E-09
   step length   :     0.0093256 a0     speed     :   0.3162526E-03

........................................................................
.............................. CYCLE   37 ..............................
........................................................................

 iter      E             dE          RMSdq      gap      omega  full diag
   1  -5198.6300479 -0.519863E+04  0.414E-04    4.13       0.0  T
   2  -5198.6300479 -0.963701E-08  0.263E-04    4.13       6.1  T
   3  -5198.6300479  0.563214E-07  0.975E-05    4.13      16.5  T
     SCC iter.                  ...       10 min, 34.491 sec
     gradient                   ...        5 min, 23.748 sec
 * total energy  : -5104.0803081 Eh     change    :  -0.1325918E-04 Eh
   gradient norm :     0.0021046 Eh/a0  converged?    E=F G=F D=F
   time step     :     0.7846071 fs     power     :   0.1929689E-09
   step length   :     0.0105942 a0     speed     :   0.3266114E-03

........................................................................
.............................. CYCLE   38 ..............................
........................................................................

 iter      E             dE          RMSdq      gap      omega  full diag
   1  -5198.6301396 -0.519863E+04  0.442E-04    4.13       0.0  T
   2  -5198.6301396 -0.129621E-07  0.276E-04    4.13       5.8  T
   3  -5198.6301395  0.507853E-07  0.963E-05    4.13      16.7  T
     SCC iter.                  ...       10 min, 37.164 sec
     gradient                   ...        5 min, 20.554 sec
 * total energy  : -5104.0803230 Eh     change    :  -0.1497094E-04 Eh
   gradient norm :     0.0022322 Eh/a0  converged?    E=F G=F D=F
   time step     :     0.8630678 fs     power     :   0.2017981E-09
   step length   :     0.0120941 a0     speed     :   0.3389571E-03

........................................................................
.............................. CYCLE   39 ..............................
........................................................................

 iter      E             dE          RMSdq      gap      omega  full diag
   1  -5198.6297106 -0.519863E+04  0.510E-04    4.13       0.0  T
   2  -5198.6297106 -0.131895E-07  0.308E-04    4.13       5.2  T
   3  -5198.6297106  0.236341E-07  0.720E-05    4.13      22.4  T
     SCC iter.                  ...       10 min, 37.486 sec
     gradient                   ...        5 min, 19.640 sec
 * total energy  : -5104.0803414 Eh     change    :  -0.1839395E-04 Eh
   gradient norm :     0.0021862 Eh/a0  converged?    E=F G=F D=F
   time step     :     0.9493746 fs     power     :   0.2359762E-09
   step length   :     0.0138797 a0     speed     :   0.3536382E-03

........................................................................
.............................. CYCLE   40 ..............................
........................................................................

 iter      E             dE          RMSdq      gap      omega  full diag
   1  -5198.6292745 -0.519863E+04  0.593E-04    4.13       0.0  T
   2  -5198.6292745 -0.163509E-07  0.360E-04    4.13       4.5  T
   3  -5198.6292744  0.441141E-07  0.945E-05    4.13      17.0  T
     SCC iter.                  ...       10 min, 34.058 sec
     gradient                   ...        5 min, 19.408 sec
 * total energy  : -5104.0803638 Eh     change    :  -0.2234660E-04 Eh
   gradient norm :     0.0019155 Eh/a0  converged?    E=F G=F D=F
   time step     :     1.0443120 fs     power     :   0.2530554E-09
   step length   :     0.0161958 a0     speed     :   0.3751349E-03

........................................................................
.............................. CYCLE   41 ..............................
........................................................................

 iter      E             dE          RMSdq      gap      omega  full diag
   1  -5198.6298227 -0.519863E+04  0.634E-04    4.13       0.0  T
   2  -5198.6298227 -0.186637E-07  0.389E-04    4.13       4.1  T
   3  -5198.6298226  0.644159E-07  0.112E-04    4.13      14.3  T
     SCC iter.                  ...       10 min, 34.191 sec
     gradient                   ...        5 min, 19.360 sec
 * total energy  : -5104.0803880 Eh     change    :  -0.2424890E-04 Eh
   gradient norm :     0.0020180 Eh/a0  converged?    E=F G=F D=F
   time step     :     1.1487432 fs     power     :   0.2434202E-09
   step length   :     0.0190249 a0     speed     :   0.4006038E-03

........................................................................
.............................. CYCLE   42 ..............................
........................................................................

 iter      E             dE          RMSdq      gap      omega  full diag
   1  -5198.6317086 -0.519863E+04  0.686E-04    4.13       0.0  T
   2  -5198.6317086 -0.135960E-07  0.407E-04    4.13       3.9  T
   3  -5198.6317086  0.138671E-07  0.625E-05    4.13      25.7  T
     SCC iter.                  ...       10 min, 35.442 sec
     gradient                   ...        5 min, 20.051 sec
 * total energy  : -5104.0804167 Eh     change    :  -0.2863315E-04 Eh
   gradient norm :     0.0021035 Eh/a0  converged?    E=F G=F D=F
   time step     :     1.2500000 fs     power     :   0.2813829E-09
   step length   :     0.0218878 a0     speed     :   0.4235519E-03
 * RMSD in coord.:     0.0024175 a0     energy gain  -0.2348514E-03 Eh

........................................................................
.............................. CYCLE   43 ..............................
........................................................................

 iter      E             dE          RMSdq      gap      omega  full diag
   1  -5198.6320586 -0.519863E+04  0.134E-04    4.13       0.0  T
   2  -5198.6320586 -0.602995E-09  0.790E-05    4.13      20.4  T
   3  -5198.6320586  0.192449E-08  0.220E-05    4.13      73.3  T
     SCC iter.                  ...       10 min, 36.739 sec
     gradient                   ...        5 min, 20.223 sec
 * total energy  : -5104.0804226 Eh     change    :  -0.5888565E-05 Eh
   gradient norm :     0.0020329 Eh/a0  converged?    E=F G=F D=F
   time step     :     0.2500000 fs     power     :   0.3086634E-09
   step length   :     0.0042874 a0     speed     :   0.4148282E-03

........................................................................
.............................. CYCLE   44 ..............................
........................................................................

 iter      E             dE          RMSdq      gap      omega  full diag
   1  -5198.6323618 -0.519863E+04  0.141E-04    4.13       0.0  T
   2  -5198.6323618 -0.901309E-09  0.845E-05    4.13      19.0  T
   3  -5198.6323618  0.279488E-08  0.251E-05    4.13      64.2  T
     SCC iter.                  ...       10 min, 35.028 sec
     gradient                   ...        5 min, 19.958 sec
 * total energy  : -5104.0804288 Eh     change    :  -0.6204907E-05 Eh
   gradient norm :     0.0018526 Eh/a0  converged?    E=F G=F D=F
   time step     :     0.2500000 fs     power     :   0.3237136E-09
   step length   :     0.0042439 a0     speed     :   0.4106163E-03

........................................................................
.............................. CYCLE   45 ..............................
........................................................................

 iter      E             dE          RMSdq      gap      omega  full diag
   1  -5198.6326060 -0.519863E+04  0.155E-04    4.13       0.0  T
   2  -5198.6326060 -0.125510E-08  0.939E-05    4.13      17.1  T
   3  -5198.6326060  0.420550E-08  0.300E-05    4.13      53.7  T
     SCC iter.                  ...       10 min, 33.325 sec
     gradient                   ...        5 min, 18.688 sec
 * total energy  : -5104.0804350 Eh     change    :  -0.6230215E-05 Eh
   gradient norm :     0.0016343 Eh/a0  converged?    E=F G=F D=F
   time step     :     0.2500000 fs     power     :   0.3216780E-09
   step length   :     0.0042462 a0     speed     :   0.4108458E-03

........................................................................
.............................. CYCLE   46 ..............................
........................................................................

 iter      E             dE          RMSdq      gap      omega  full diag
   1  -5198.6327864 -0.519863E+04  0.166E-04    4.13       0.0  T
   2  -5198.6327864 -0.147338E-08  0.102E-04    4.13      15.8  T
   3  -5198.6327864  0.510227E-08  0.321E-05    4.13      50.2  T
     SCC iter.                  ...       10 min, 35.584 sec
     gradient                   ...        5 min, 19.438 sec
 * total energy  : -5104.0804410 Eh     change    :  -0.5992976E-05 Eh
   gradient norm :     0.0014743 Eh/a0  converged?    E=F G=F D=F
   time step     :     0.2500000 fs     power     :   0.3061665E-09
   step length   :     0.0042836 a0     speed     :   0.4144587E-03

........................................................................
.............................. CYCLE   47 ..............................
........................................................................

 iter      E             dE          RMSdq      gap      omega  full diag
   1  -5198.6329083 -0.519863E+04  0.170E-04    4.13       0.0  T
   2  -5198.6329083 -0.158343E-08  0.104E-04    4.13      15.5  T
   3  -5198.6329083  0.486034E-08  0.304E-05    4.13      52.9  T
     SCC iter.                  ...       10 min, 37.566 sec
     gradient                   ...        5 min, 17.930 sec
 * total energy  : -5104.0804467 Eh     change    :  -0.5754751E-05 Eh
   gradient norm :     0.0014394 Eh/a0  converged?    E=F G=F D=F
   time step     :     0.2500000 fs     power     :   0.2875038E-09
   step length   :     0.0043304 a0     speed     :   0.4189940E-03

........................................................................
.............................. CYCLE   48 ..............................
........................................................................

 iter      E             dE          RMSdq      gap      omega  full diag
   1  -5198.6329924 -0.519863E+04  0.179E-04    4.13       0.0  T
   2  -5198.6329924 -0.134787E-08  0.108E-04    4.13      14.8  T
   3  -5198.6329924  0.407090E-08  0.283E-05    4.13      56.8  T
     SCC iter.                  ...       10 min, 36.487 sec
     gradient                   ...        5 min, 20.451 sec
 * total energy  : -5104.0804527 Eh     change    :  -0.5960763E-05 Eh
   gradient norm :     0.0015126 Eh/a0  converged?    E=F G=F D=F
   time step     :     0.2750000 fs     power     :   0.2750903E-09
   step length   :     0.0047983 a0     speed     :   0.4220569E-03

........................................................................
.............................. CYCLE   49 ..............................
........................................................................

 iter      E             dE          RMSdq      gap      omega  full diag
   1  -5198.6330495 -0.519863E+04  0.179E-04    4.13       0.0  T
   2  -5198.6330495 -0.117052E-08  0.107E-04    4.13      15.0  T
   3  -5198.6330495  0.220098E-08  0.220E-05    4.13      73.2  T
     SCC iter.                  ...       10 min, 34.917 sec
     gradient                   ...        5 min, 22.886 sec
 * total energy  : -5104.0804592 Eh     change    :  -0.6497246E-05 Eh
   gradient norm :     0.0016147 Eh/a0  converged?    E=F G=F D=F
   time step     :     0.3025000 fs     power     :   0.2754916E-09
   step length   :     0.0052834 a0     speed     :   0.4224808E-03

........................................................................
.............................. CYCLE   50 ..............................
........................................................................

 iter      E             dE          RMSdq      gap      omega  full diag
   1  -5198.6330861 -0.519863E+04  0.176E-04    4.13       0.0  T
   2  -5198.6330861 -0.592081E-09  0.104E-04    4.13      15.5  T
   3  -5198.6330861  0.693035E-09  0.155E-05    4.13     103.5  T
     SCC iter.                  ...       10 min, 35.946 sec
     gradient                   ...        5 min, 20.324 sec
 * total energy  : -5104.0804665 Eh     change    :  -0.7323662E-05 Eh
   gradient norm :     0.0016607 Eh/a0  converged?    E=F G=F D=F
   time step     :     0.3327500 fs     power     :   0.2866971E-09
   step length   :     0.0058064 a0     speed     :   0.4220867E-03

........................................................................
.............................. CYCLE   51 ..............................
........................................................................

 iter      E             dE          RMSdq      gap      omega  full diag
   1  -5198.6330955 -0.519863E+04  0.179E-04    4.13       0.0  T
   2  -5198.6330955 -0.646651E-09  0.106E-04    4.13      15.2  T
   3  -5198.6330955  0.109958E-08  0.166E-05    4.13      97.2  T
     SCC iter.                  ...       10 min, 37.196 sec
     gradient                   ...        5 min, 21.354 sec
 * total energy  : -5104.0804749 Eh     change    :  -0.8408610E-05 Eh
   gradient norm :     0.0016082 Eh/a0  converged?    E=F G=F D=F
   time step     :     0.3660250 fs     power     :   0.3001882E-09
   step length   :     0.0064087 a0     speed     :   0.4235186E-03

........................................................................
.............................. CYCLE   52 ..............................
........................................................................

 iter      E             dE          RMSdq      gap      omega  full diag
   1  -5198.6330515 -0.519863E+04  0.196E-04    4.13       0.0  T
   2  -5198.6330515 -0.103682E-08  0.118E-04    4.13      13.6  T
   3  -5198.6330515  0.352702E-08  0.270E-05    4.13      59.6  T
     SCC iter.                  ...       10 min, 36.499 sec
     gradient                   ...        5 min, 21.983 sec
 * total energy  : -5104.0804844 Eh     change    :  -0.9524744E-05 Eh
   gradient norm :     0.0014841 Eh/a0  converged?    E=F G=F D=F
   time step     :     0.4026275 fs     power     :   0.3064451E-09
   step length   :     0.0071339 a0     speed     :   0.4285896E-03

........................................................................
.............................. CYCLE   53 ..............................
........................................................................

 iter      E             dE          RMSdq      gap      omega  full diag
   1  -5198.6329074 -0.519863E+04  0.223E-04    4.13       0.0  T
   2  -5198.6329074 -0.195450E-08  0.137E-04    4.13      11.8  T
   3  -5198.6329074  0.792988E-08  0.388E-05    4.13      41.5  T
     SCC iter.                  ...       10 min, 35.337 sec
     gradient                   ...        5 min, 22.618 sec
 * total energy  : -5104.0804949 Eh     change    :  -0.1040801E-04 Eh
   gradient norm :     0.0013970 Eh/a0  converged?    E=F G=F D=F
   time step     :     0.4428903 fs     power     :   0.3025796E-09
   step length   :     0.0080110 a0     speed     :   0.4375292E-03

........................................................................
.............................. CYCLE   54 ..............................
........................................................................

 iter      E             dE          RMSdq      gap      omega  full diag
   1  -5198.6326198 -0.519863E+04  0.249E-04    4.13       0.0  T
   2  -5198.6326198 -0.229011E-08  0.152E-04    4.13      10.6  T
   3  -5198.6326198  0.922955E-08  0.416E-05    4.13      38.7  T
     SCC iter.                  ...       10 min, 36.742 sec
     gradient                   ...        5 min, 19.619 sec
 * total energy  : -5104.0805061 Eh     change    :  -0.1129381E-04 Eh
   gradient norm :     0.0014252 Eh/a0  converged?    E=F G=F D=F
   time step     :     0.4871793 fs     power     :   0.2974442E-09
   step length   :     0.0090251 a0     speed     :   0.4481028E-03

........................................................................
.............................. CYCLE   55 ..............................
........................................................................

 iter      E             dE          RMSdq      gap      omega  full diag
   1  -5198.6322051 -0.519863E+04  0.267E-04    4.13       0.0  T
   2  -5198.6322051 -0.189266E-08  0.160E-04    4.13      10.1  T
   3  -5198.6322051  0.503042E-08  0.327E-05    4.13      49.3  T
     SCC iter.                  ...       10 min, 36.888 sec
     gradient                   ...        5 min, 20.785 sec
 * total energy  : -5104.0805187 Eh     change    :  -0.1251221E-04 Eh
   gradient norm :     0.0014893 Eh/a0  converged?    E=F G=F D=F
   time step     :     0.5358972 fs     power     :   0.3016226E-09
   step length   :     0.0101373 a0     speed     :   0.4575694E-03

........................................................................
.............................. CYCLE   56 ..............................
........................................................................

 iter      E             dE          RMSdq      gap      omega  full diag
   1  -5198.6317782 -0.519863E+04  0.282E-04    4.13       0.0  T
   2  -5198.6317782 -0.180080E-08  0.166E-04    4.13       9.7  T
   3  -5198.6317782  0.244654E-08  0.260E-05    4.13      61.9  T
     SCC iter.                  ...       10 min, 35.096 sec
     gradient                   ...        5 min, 19.180 sec
 * total energy  : -5104.0805328 Eh     change    :  -0.1415465E-04 Eh
   gradient norm :     0.0015000 Eh/a0  converged?    E=F G=F D=F
   time step     :     0.5894869 fs     power     :   0.3143204E-09
   step length   :     0.0113790 a0     speed     :   0.4669240E-03

........................................................................
.............................. CYCLE   57 ..............................
........................................................................

 iter      E             dE          RMSdq      gap      omega  full diag
   1  -5198.6315426 -0.519863E+04  0.310E-04    4.13       0.0  T
   2  -5198.6315426 -0.200544E-08  0.185E-04    4.13       8.7  T
   3  -5198.6315426  0.836098E-08  0.400E-05    4.13      40.2  T
     SCC iter.                  ...       10 min, 37.852 sec
     gradient                   ...        5 min, 18.205 sec
 * total energy  : -5104.0805491 Eh     change    :  -0.1626348E-04 Eh
   gradient norm :     0.0014275 Eh/a0  converged?    E=F G=F D=F
   time step     :     0.6484356 fs     power     :   0.3270729E-09
   step length   :     0.0128315 a0     speed     :   0.4786590E-03

........................................................................
.............................. CYCLE   58 ..............................
........................................................................

 iter      E             dE          RMSdq      gap      omega  full diag
   1  -5198.6317208 -0.519863E+04  0.356E-04    4.13       0.0  T
   2  -5198.6317208 -0.323143E-08  0.215E-04    4.13       7.5  T
   3  -5198.6317207  0.196960E-07  0.597E-05    4.13      27.0  T
     SCC iter.                  ...       10 min, 37.539 sec
     gradient                   ...        5 min, 18.965 sec
 * total energy  : -5104.0805674 Eh     change    :  -0.1830015E-04 Eh
   gradient norm :     0.0013603 Eh/a0  converged?    E=F G=F D=F
   time step     :     0.7132792 fs     power     :   0.3313601E-09
   step length   :     0.0145775 a0     speed     :   0.4943562E-03

........................................................................
.............................. CYCLE   59 ..............................
........................................................................

 iter      E             dE          RMSdq      gap      omega  full diag
   1  -5198.6323686 -0.519863E+04  0.393E-04    4.13       0.0  T
   2  -5198.6323686 -0.315868E-08  0.234E-04    4.13       6.9  T
   3  -5198.6323686  0.116306E-07  0.487E-05    4.13      33.0  T
     SCC iter.                  ...       10 min, 36.114 sec
     gradient                   ...        5 min, 19.993 sec
 * total energy  : -5104.0805878 Eh     change    :  -0.2046861E-04 Eh
   gradient norm :     0.0014338 Eh/a0  converged?    E=F G=F D=F
   time step     :     0.7846071 fs     power     :   0.3367691E-09
   step length   :     0.0166231 a0     speed     :   0.5124789E-03

........................................................................
.............................. CYCLE   60 ..............................
........................................................................

 iter      E             dE          RMSdq      gap      omega  full diag
   1  -5198.6332177 -0.519863E+04  0.422E-04    4.13       0.0  T
   2  -5198.6332177 -0.296404E-08  0.249E-04    4.13       6.5  T
   3  -5198.6332177  0.948330E-08  0.453E-05    4.13      35.5  T
     SCC iter.                  ...       10 min, 36.093 sec
     gradient                   ...        5 min, 21.220 sec
 * total energy  : -5104.0806113 Eh     change    :  -0.2343044E-04 Eh
   gradient norm :     0.0014154 Eh/a0  converged?    E=F G=F D=F
   time step     :     0.8630678 fs     power     :   0.3541297E-09
   step length   :     0.0189104 a0     speed     :   0.5299935E-03

........................................................................
.............................. CYCLE   61 ..............................
........................................................................

 iter      E             dE          RMSdq      gap      omega  full diag
   1  -5198.6338744 -0.519863E+04  0.481E-04    4.13       0.0  T
   2  -5198.6338744 -0.457021E-08  0.286E-04    4.13       5.6  T
   3  -5198.6338744  0.203672E-07  0.624E-05    4.13      25.8  T
     SCC iter.                  ...       10 min, 33.900 sec
     gradient                   ...        5 min, 22.833 sec
 * total energy  : -5104.0806380 Eh     change    :  -0.2670748E-04 Eh
   gradient norm :     0.0013376 Eh/a0  converged?    E=F G=F D=F
   time step     :     0.9493746 fs     power     :   0.3654429E-09
   step length   :     0.0216310 a0     speed     :   0.5511297E-03

........................................................................
.............................. CYCLE   62 ..............................
........................................................................

 iter      E             dE          RMSdq      gap      omega  full diag
   1  -5198.6340867 -0.519863E+04  0.538E-04    4.13       0.0  T
   2  -5198.6340867 -0.596265E-08  0.319E-04    4.13       5.0  T
   3  -5198.6340867  0.174541E-07  0.607E-05    4.13      26.5  T
     SCC iter.                  ...       10 min, 34.928 sec
     gradient                   ...        5 min, 21.246 sec
 * total energy  : -5104.0806683 Eh     change    :  -0.3026396E-04 Eh
   gradient norm :     0.0014138 Eh/a0  converged?    E=F G=F D=F
   time step     :     1.0443120 fs     power     :   0.3745276E-09
   step length   :     0.0248743 a0     speed     :   0.5761512E-03

........................................................................
.............................. CYCLE   63 ..............................
........................................................................

 iter      E             dE          RMSdq      gap      omega  full diag
   1  -5198.6339140 -0.519863E+04  0.593E-04    4.13       0.0  T
   2  -5198.6339140 -0.624459E-08  0.350E-04    4.13       4.6  T
   3  -5198.6339140  0.232949E-07  0.700E-05    4.13      23.0  T
     SCC iter.                  ...       10 min, 32.882 sec
     gradient                   ...        5 min, 19.928 sec
 * total energy  : -5104.0807030 Eh     change    :  -0.3472133E-04 Eh
   gradient norm :     0.0013598 Eh/a0  converged?    E=F G=F D=F
   time step     :     1.1487432 fs     power     :   0.3967317E-09
   step length   :     0.0285348 a0     speed     :   0.6008521E-03

........................................................................
.............................. CYCLE   64 ..............................
........................................................................

 iter      E             dE          RMSdq      gap      omega  full diag
   1  -5198.6336704 -0.519863E+04  0.686E-04    4.13       0.0  T
   2  -5198.6336704 -0.926866E-08  0.410E-04    4.13       3.9  T
   3  -5198.6336704  0.602695E-07  0.103E-04    4.13      15.6  T
     SCC iter.                  ...       10 min, 35.758 sec
     gradient                   ...        5 min, 20.032 sec
 * total energy  : -5104.0807424 Eh     change    :  -0.3941078E-04 Eh
   gradient norm :     0.0013261 Eh/a0  converged?    E=F G=F D=F
   time step     :     1.2500000 fs     power     :   0.4071705E-09
   step length   :     0.0325812 a0     speed     :   0.6304811E-03

........................................................................
.............................. CYCLE   65 ..............................
........................................................................

 iter      E             dE          RMSdq      gap      omega  full diag
   1  -5198.6340811 -0.519863E+04  0.707E-04    4.13       0.0  T
   2  -5198.6340811 -0.718046E-08  0.417E-04    4.13       3.9  T
   3  -5198.6340811  0.229165E-07  0.736E-05    4.13      21.8  T
     SCC iter.                  ...       10 min, 33.863 sec
     gradient                   ...        5 min, 24.757 sec
 * total energy  : -5104.0807832 Eh     change    :  -0.4079289E-04 Eh
   gradient norm :     0.0013493 Eh/a0  converged?    E=F G=F D=F
   time step     :     1.2500000 fs     power     :   0.4260401E-09
   step length   :     0.0340660 a0     speed     :   0.6592141E-03

........................................................................
.............................. CYCLE   66 ..............................
........................................................................

 iter      E             dE          RMSdq      gap      omega  full diag
   1  -5198.6347578 -0.519863E+04  0.740E-04    4.13       0.0  T
   2  -5198.6347578 -0.894124E-08  0.440E-04    4.13       3.7  T
   3  -5198.6347577  0.538366E-07  0.982E-05    4.13      16.4  T
     SCC iter.                  ...       10 min, 36.536 sec
     gradient                   ...        5 min, 20.585 sec
 * total energy  : -5104.0808256 Eh     change    :  -0.4242466E-04 Eh
   gradient norm :     0.0012724 Eh/a0  converged?    E=F G=F D=F
   time step     :     1.2500000 fs     power     :   0.4404770E-09
   step length   :     0.0355090 a0     speed     :   0.6871383E-03

........................................................................
.............................. CYCLE   67 ..............................
........................................................................

 iter      E             dE          RMSdq      gap      omega  full diag
   1  -5198.6350262 -0.519864E+04  0.755E-04    4.13       0.0  T
   2  -5198.6350262 -0.830369E-08  0.445E-04    4.13       3.6  T
   3  -5198.6350262  0.383516E-07  0.900E-05    4.13      17.9  T
     SCC iter.                  ...       10 min, 36.219 sec
     gradient                   ...        5 min, 21.908 sec
 * total energy  : -5104.0808689 Eh     change    :  -0.4328439E-04 Eh
   gradient norm :     0.0013430 Eh/a0  converged?    E=F G=F D=F
   time step     :     1.2500000 fs     power     :   0.4525403E-09
   step length   :     0.0370301 a0     speed     :   0.7165728E-03
 * RMSD in coord.:     0.0058283 a0     energy gain  -0.4522233E-03 Eh

........................................................................
.............................. CYCLE   68 ..............................
........................................................................

 iter      E             dE          RMSdq      gap      omega  full diag
   1  -5198.6350937 -0.519864E+04  0.149E-04    4.13       0.0  T
   2  -5198.6350937 -0.405635E-09  0.877E-05    4.13      18.4  T
   3  -5198.6350937  0.106957E-08  0.150E-05    4.13     107.1  T
     SCC iter.                  ...       10 min, 36.712 sec
     gradient                   ...        5 min, 19.947 sec
 * total energy  : -5104.0808777 Eh     change    :  -0.8825570E-05 Eh
   gradient norm :     0.0013088 Eh/a0  converged?    E=F G=F D=F
   time step     :     0.2500000 fs     power     :   0.4633861E-09
   step length   :     0.0073798 a0     speed     :   0.7140369E-03

........................................................................
.............................. CYCLE   69 ..............................
........................................................................

 iter      E             dE          RMSdq      gap      omega  full diag
   1  -5198.6351840 -0.519864E+04  0.154E-04    4.13       0.0  T
   2  -5198.6351840 -0.560249E-09  0.919E-05    4.13      17.5  T
   3  -5198.6351840  0.250839E-08  0.218E-05    4.13      73.7  T
     SCC iter.                  ...       10 min, 33.852 sec
     gradient                   ...        5 min, 27.702 sec
 * total energy  : -5104.0808866 Eh     change    :  -0.8866459E-05 Eh
   gradient norm :     0.0012367 Eh/a0  converged?    E=F G=F D=F
   time step     :     0.2500000 fs     power     :   0.4664337E-09
   step length   :     0.0073864 a0     speed     :   0.7146751E-03

........................................................................
.............................. CYCLE   70 ..............................
........................................................................

 iter      E             dE          RMSdq      gap      omega  full diag
   1  -5198.6352810 -0.519864E+04  0.160E-04    4.13       0.0  T
   2  -5198.6352810 -0.762157E-09  0.962E-05    4.13      16.7  T
   3  -5198.6352810  0.319505E-08  0.252E-05    4.13      63.9  T
     SCC iter.                  ...       10 min, 37.817 sec
     gradient                   ...        5 min, 20.350 sec
 * total energy  : -5104.0808954 Eh     change    :  -0.8807105E-05 Eh
   gradient norm :     0.0012028 Eh/a0  converged?    E=F G=F D=F
   time step     :     0.2500000 fs     power     :   0.4622179E-09
   step length   :     0.0074313 a0     speed     :   0.7190224E-03

........................................................................
.............................. CYCLE   71 ..............................
........................................................................

 iter      E             dE          RMSdq      gap      omega  full diag
   1  -5198.6353677 -0.519864E+04  0.160E-04    4.13       0.0  T
   2  -5198.6353677 -0.690306E-09  0.965E-05    4.13      16.7  T
[...]
  3609   6 C     3614   6 C                                       1.3904279
  3613   6 C     3614   6 C                                       1.3826680
  3608   6 C     3615   6 C                                       1.5347638
  3615   6 C     3616   6 C                                       1.5294199
  3617   6 C     3618   6 C                                       1.3909440
  3618   6 C     3619   6 C                                       1.3819554
  3619   6 C     3620   6 C                                       1.3837071
  3620   6 C     3621   6 C                                       1.3824141
  3617   6 C     3622   6 C                                       1.3895025
  3621   6 C     3622   6 C                                       1.3847861
  3623   6 C     3624   6 C                                       1.5341512
  3625   6 C     3626   6 C                                       1.3892645
  3626   6 C     3627   6 C                                       1.3836554
  3627   6 C     3628   6 C                                       1.3839260
  3628   6 C     3629   6 C                                       1.3836940
  3625   6 C     3630   6 C                                       1.3910924
  3629   6 C     3630   6 C                                       1.3830230
  3631   6 C     3632   6 C                                       1.5391149
  3633   6 C     3634   6 C                                       1.3896045
  3634   6 C     3635   6 C                                       1.3828037
  3635   6 C     3636   6 C                                       1.3848327
  3636   6 C     3637   6 C                                       1.3837245
  3633   6 C     3638   6 C                                       1.3889224
  3637   6 C     3638   6 C                                       1.3834285
  3632   6 C     3639   6 C                                       1.5346427
  3639   6 C     3640   6 C                                       1.5403685
  3641   6 C     3642   6 C                                       1.3894780
  3642   6 C     3643   6 C                                       1.3838911
  3643   6 C     3644   6 C                                       1.3840130
  3644   6 C     3645   6 C                                       1.3831773
  3641   6 C     3646   6 C                                       1.3895779
  3645   6 C     3646   6 C                                       1.3823609
  3640   6 C     3647   6 C                                       1.5365206
  3647   6 C     3648   6 C                                       1.5296551
  3649   6 C     3650   6 C                                       1.3905054
  3650   6 C     3651   6 C                                       1.3829882
  3651   6 C     3652   6 C                                       1.3835434
  3652   6 C     3653   6 C                                       1.3838198
  3649   6 C     3654   6 C                                       1.3900371
  3653   6 C     3654   6 C                                       1.3839857
  3648   6 C     3655   6 C                                       1.5390921
  3655   6 C     3656   6 C                                       1.5337382
  3657   6 C     3658   6 C                                       1.3914942
  3658   6 C     3659   6 C                                       1.3825283
  3659   6 C     3660   6 C                                       1.3839499
  3660   6 C     3661   6 C                                       1.3831272
  3657   6 C     3662   6 C                                       1.3888998
  3661   6 C     3662   6 C                                       1.3834080
  3656   6 C     3663   6 C                                       1.5350705
  3665   6 C     3666   6 C                                       1.3906212
  3666   6 C     3667   6 C                                       1.3830289
  3667   6 C     3668   6 C                                       1.3829239
  3668   6 C     3669   6 C                                       1.3832905
  3665   6 C     3670   6 C                                       1.3885619
  3669   6 C     3670   6 C                                       1.3831104
  3664   6 C     3671   6 C                                       1.5328178
  3671   6 C     3672   6 C                                       1.5332502
  3673   6 C     3674   6 C                                       1.3894511
  3674   6 C     3675   6 C                                       1.3836240
  3675   6 C     3676   6 C                                       1.3851822
  3676   6 C     3677   6 C                                       1.3843797
  3673   6 C     3678   6 C                                       1.3903570
  3677   6 C     3678   6 C                                       1.3826849
  3672   6 C     3679   6 C                                       1.5382427
  3679   6 C     3680   6 C                                       1.5338932
  3681   6 C     3682   6 C                                       1.3919325
  3682   6 C     3683   6 C                                       1.3827364
  3683   6 C     3684   6 C                                       1.3845789
  3684   6 C     3685   6 C                                       1.3831591
  3681   6 C     3686   6 C                                       1.3889954
  3685   6 C     3686   6 C                                       1.3835492
  3687   6 C     3688   6 C                                       1.5329967
  3549   6 C     3689   1 H                                       1.0962334
  3551   6 C     3690   1 H                                       1.0941685
  3551   6 C     3691   1 H                                       1.0929295
  3552   6 C     3692   1 H                                       1.0939430
  3559   6 C     3693   1 H                                       1.0901411
  3559   6 C     3694   1 H                                       1.0902029
  3560   6 C     3695   1 H                                       1.0959194
  3567   6 C     3696   1 H                                       1.0919991
  3567   6 C     3697   1 H                                       1.0927137
  3568   6 C     3698   1 H                                       1.0958293
  3575   6 C     3699   1 H                                       1.0928463
  3576   6 C     3700   1 H                                       1.0956184
  3583   6 C     3701   1 H                                       1.0925711
  3583   6 C     3702   1 H                                       1.0922851
  3584   6 C     3703   1 H                                       1.0951446
  3591   6 C     3704   1 H                                       1.0910345
  3591   6 C     3705   1 H                                       1.0920180
  3592   6 C     3706   1 H                                       1.0959918
  3599   6 C     3707   1 H                                       1.0919691
  3599   6 C     3708   1 H                                       1.0919094
  3600   6 C     3709   1 H                                       1.0943105
  3608   6 C     3710   1 H                                       1.0955193
  3615   6 C     3711   1 H                                       1.0883415
  3615   6 C     3712   1 H                                       1.0919874
  3616   6 C     3713   1 H                                       1.0976967
  3623   6 C     3714   1 H                                       1.0907573
  3623   6 C     3715   1 H                                       1.0927846
  3624   6 C     3716   1 H                                       1.0914529
  3631   6 C     3717   1 H                                       1.0925906
  3631   6 C     3718   1 H                                       1.0924439
  3632   6 C     3719   1 H                                       1.0948495
  3639   6 C     3720   1 H                                       1.0914296
  3639   6 C     3721   1 H                                       1.0921110
  3640   6 C     3722   1 H                                       1.0951793
  3647   6 C     3723   1 H                                       1.0928044
  3647   6 C     3724   1 H                                       1.0914858
  3648   6 C     3725   1 H                                       1.0960464
  3655   6 C     3726   1 H                                       1.0909595
  3655   6 C     3727   1 H                                       1.0926312
  3656   6 C     3728   1 H                                       1.0964412
  3663   6 C     3729   1 H                                       1.0914969
  3663   6 C     3730   1 H                                       1.0934538
  3664   6 C     3731   1 H                                       1.0961211
  3671   6 C     3732   1 H                                       1.0909199
  3671   6 C     3733   1 H                                       1.0922782
  3672   6 C     3734   1 H                                       1.0939393
  3679   6 C     3735   1 H                                       1.0913366
  3679   6 C     3736   1 H                                       1.0932907
  3543   6 C     3737   1 H                                       1.0820180
  3548   6 C     3738   1 H                                       1.0798562
  3547   6 C     3739   1 H                                       1.0799663
  3546   6 C     3740   1 H                                       1.0793872
  3545   6 C     3741   1 H                                       1.0782773
  3554   6 C     3742   1 H                                       1.0798654
  3555   6 C     3743   1 H                                       1.0807598
  3556   6 C     3744   1 H                                       1.0800737
  3557   6 C     3745   1 H                                       1.0805525
  3558   6 C     3746   1 H                                       1.0812104
  3562   6 C     3747   1 H                                       1.0804951
  3563   6 C     3748   1 H                                       1.0801130
  3564   6 C     3749   1 H                                       1.0801843
  3565   6 C     3750   1 H                                       1.0806135
  3566   6 C     3751   1 H                                       1.0811234
  3570   6 C     3752   1 H                                       1.0802492
  3571   6 C     3753   1 H                                       1.0789436
  3572   6 C     3754   1 H                                       1.0804847
  3573   6 C     3755   1 H                                       1.0806710
  3574   6 C     3756   1 H                                       1.0809888
  3575   6 C     3757   1 H                                       1.0918652
  3578   6 C     3758   1 H                                       1.0812190
  3579   6 C     3759   1 H                                       1.0804768
  3580   6 C     3760   1 H                                       1.0802367
  3581   6 C     3761   1 H                                       1.0808773
  3582   6 C     3762   1 H                                       1.0793609
  3586   6 C     3763   1 H                                       1.0817147
  3587   6 C     3764   1 H                                       1.0797589
  3588   6 C     3765   1 H                                       1.0803687
  3589   6 C     3766   1 H                                       1.0806263
  3590   6 C     3767   1 H                                       1.0805662
  3594   6 C     3768   1 H                                       1.0802381
  3595   6 C     3769   1 H                                       1.0804294
  3596   6 C     3770   1 H                                       1.0797594
  3597   6 C     3771   1 H                                       1.0795662
  3598   6 C     3772   1 H                                       1.0812399
  3602   6 C     3773   1 H                                       1.0803626
  3603   6 C     3774   1 H                                       1.0798492
  3604   6 C     3775   1 H                                       1.0805966
  3605   6 C     3776   1 H                                       1.0812040
  3606   6 C     3777   1 H                                       1.0801798
  3607   6 C     3778   1 H                                       1.0923827
  3607   6 C     3779   1 H                                       1.0909349
  3610   6 C     3780   1 H                                       1.0812873
  3611   6 C     3781   1 H                                       1.0799944
  3612   6 C     3782   1 H                                       1.0803021
  3613   6 C     3783   1 H                                       1.0806096
  3614   6 C     3784   1 H                                       1.0804127
  3618   6 C     3785   1 H                                       1.0808454
  3619   6 C     3786   1 H                                       1.0792218
  3620   6 C     3787   1 H                                       1.0800390
  3621   6 C     3788   1 H                                       1.0802334
  3622   6 C     3789   1 H                                       1.0792807
  3626   6 C     3790   1 H                                       1.0800130
  3627   6 C     3791   1 H                                       1.0804827
  3628   6 C     3792   1 H                                       1.0798091
  3629   6 C     3793   1 H                                       1.0809771
  3630   6 C     3794   1 H                                       1.0823524
  3634   6 C     3795   1 H                                       1.0800926
  3635   6 C     3796   1 H                                       1.0806689
  3636   6 C     3797   1 H                                       1.0802308
  3637   6 C     3798   1 H                                       1.0804287
  3638   6 C     3799   1 H                                       1.0809989
  3642   6 C     3800   1 H                                       1.0814822
  3643   6 C     3801   1 H                                       1.0805789
  3644   6 C     3802   1 H                                       1.0800286
  3645   6 C     3803   1 H                                       1.0798221
  3646   6 C     3804   1 H                                       1.0794977
  3650   6 C     3805   1 H                                       1.0804220
  3651   6 C     3806   1 H                                       1.0805793
  3652   6 C     3807   1 H                                       1.0793191
  3653   6 C     3808   1 H                                       1.0807816
  3654   6 C     3809   1 H                                       1.0819724
  3658   6 C     3810   1 H                                       1.0802359
  3659   6 C     3811   1 H                                       1.0802536
  3660   6 C     3812   1 H                                       1.0806998
  3661   6 C     3813   1 H                                       1.0779162
  3662   6 C     3814   1 H                                       1.0814994
  3666   6 C     3815   1 H                                       1.0802691
  3667   6 C     3816   1 H                                       1.0800602
  3668   6 C     3817   1 H                                       1.0800062
  3669   6 C     3818   1 H                                       1.0787919
  3670   6 C     3819   1 H                                       1.0805553
  3674   6 C     3820   1 H                                       1.0813411
  3675   6 C     3821   1 H                                       1.0810860
  3676   6 C     3822   1 H                                       1.0813871
  3677   6 C     3823   1 H                                       1.0808122
  3678   6 C     3824   1 H                                       1.0801188
  3686   6 C     3825   1 H                                       1.0804313
  3685   6 C     3826   1 H                                       1.0795713
  3684   6 C     3827   1 H                                       1.0791786
  3683   6 C     3828   1 H                                       1.0802565
  3682   6 C     3829   1 H                                       1.0808159
  3550   6 C     3830   1 H                                       1.0875296
  3550   6 C     3831   1 H                                       1.0873397
  3550   6 C     3832   1 H                                       1.0883567
  3680   6 C     3833   1 H                                       1.0937503
  3687   6 C     3834   1 H                                       1.0929373
  3687   6 C     3835   1 H                                       1.0896669
  3837   6 C     3838   6 C                                       1.3915229
  3838   6 C     3839   6 C                                       1.3822201
  3839   6 C     3840   6 C                                       1.3846113
  3840   6 C     3841   6 C                                       1.3819664
  3837   6 C     3842   6 C                                       1.3884311
  3841   6 C     3842   6 C                                       1.3842951
  3838   6 C     3843   1 H                                       1.0807098
  3839   6 C     3844   1 H                                       1.0807809
  3840   6 C     3845   1 H                                       1.0791474
  3841   6 C     3846   1 H                                       1.0792381
  3842   6 C     3847   1 H                                       1.0785865
  3836   6 C     3848   6 C                                       1.5259345
  3836   6 C     3849   1 H                                       1.0906741
  3836   6 C     3850   1 H                                       1.0933251
  3851   6 C     3852   6 C                                       1.3919564
  3852   6 C     3853   6 C                                       1.3818048
  3853   6 C     3854   6 C                                       1.3844670
  3854   6 C     3855   6 C                                       1.3825917
  3851   6 C     3856   6 C                                       1.3884653
  3855   6 C     3856   6 C                                       1.3851807
  3852   6 C     3857   1 H                                       1.0822379
  3853   6 C     3858   1 H                                       1.0792803
  3854   6 C     3859   1 H                                       1.0803180
  3855   6 C     3860   1 H                                       1.0810026
  3856   6 C     3861   1 H                                       1.0788585
  3688   6 C     3862   1 H                                       1.0983467
  3848   6 C     3863   1 H                                       1.0937654
  3848   6 C     3864   1 H                                       1.0950419

 * 2 distinct bonds (by element types)

   Z      Z             #   av. dist./Å        max./Å        min./Å
   1 H    6 C        1944     1.0851347     1.0983467     1.0776136
   6 C    6 C        1853     1.4191046     1.5408425     1.3810119


optimized geometry written to: xtbopt.xyz


           -------------------------------------------------
          | TOTAL ENERGY            -5104.083916029666 Eh   |
          | GRADIENT NORM               0.000978294119 Eh/α |
          | HOMO-LUMO GAP               4.123879583523 eV   |
           -------------------------------------------------

------------------------------------------------------------------------
 * finished run on 2024/10/07 at 10:49:22.668     
------------------------------------------------------------------------
 total:
 * wall-time:     2 d, 20 h, 36 min, 44.276 sec
 *  cpu-time:    17 d, 20 h, 40 min, 50.664 sec
 * ratio c/w:     6.248 speedup
 SCF:
 * wall-time:     0 d,  0 h, 48 min, 23.226 sec
 *  cpu-time:     0 d,  5 h, 46 min,  9.472 sec
 * ratio c/w:     7.154 speedup
 ANC optimizer:
 * wall-time:     2 d, 19 h, 47 min,  9.713 sec
 *  cpu-time:    17 d, 14 h, 53 min,  7.992 sec
 * ratio c/w:     6.239 speedup

