3795
 energy: -5103.638029709947 gnorm: 0.000860059384 xtb: 6.6.1 (8d0f1dd)
C          113.31658654775859      101.51477147737282      128.01529156650045
C          113.74394045852846      102.92529824619973      128.36958203898357
C          112.15043592531312      101.57788972611415      127.02114355772855
C          112.59416720818989      102.14873079860932      125.67535834963128
H          111.73328953455649      100.58059676550729      126.88178437377390
H          111.37068435670544      102.21190940332851      127.44782014295396
C          111.42123647446334      102.56526557528946      124.78341959050223
H          113.20494346261539      103.03746851417662      125.85286458152227
H          113.21014053478667      101.41751089129271      125.14871209621784
C          110.57327019408994      101.39945637774279      124.30168178539940
H          110.77644612785812      103.23720733751888      125.35752137993529
H          111.81333985703223      103.08766514589813      123.91107494932371
N          110.49923596158736      101.29919477320951      122.97596914347506
O          112.83933885604064      103.53978375928595      129.09454581936296
O          114.79265819756716      103.41578573545470      128.00505812753786
H          112.98335238490216      104.52492821374886      129.25136828343508
H          112.98866770151217      101.01711334844603      128.92742596516186
H          114.16200638419151      100.97857331961424      127.58562274320668
C          109.75040268320436      100.28158590616124      122.26722551080260
H          110.98971084549277      101.98141585390186      122.39723394699763
C          110.55256586237567       99.78261229636753      121.06956653882480
H          109.53387043880871       99.47122997181202      122.96708099414593
H          108.79609484862563      100.70201005560435      121.92476465612474
C          109.69693294577891       99.04565730591455      120.04007629638350
H          111.00523619317545      100.64902734910784      120.58403541547526
H          111.36485421572344       99.13897735029248      121.41091889633699
C          110.45062342386694       98.96102445871011      118.71602789000907
H          109.44607406305865       98.04671500109973      120.40095641277158
H          108.76124408319025       99.58919302306387      119.89213138835316
C          109.68865193396925       98.23787434524847      117.60506430245401
H          110.67069853251137       99.97754240190731      118.38628191047455
H          111.40628008799422       98.46453005014304      118.88795258762451
C          110.15297538580597       98.70818450087145      116.22373199341742
H          109.82114169874016       97.15878643752644      117.69769129130152
H          108.62221855864053       98.45256136190069      117.68879489220681
N          111.58691841365254       98.64622600805946      116.07856716646204
H          109.72279496615518       98.08668142091072      115.43615789725213
H          109.82379092401760       99.74287826133677      116.07364951534942
C          112.22204387787471       98.06547654718869      115.05635146385688
H          112.13020689114110       99.16584292228350      116.76633084564274
O          109.98825912796275      100.63246338694142      125.06960559468754
C          113.73364236313810       98.12211454629478      115.19029510869942
C          114.20191584054567       97.07702310814821      116.22089859863735
H          114.18040440499934       97.92270767688909      114.21685324655030
H          114.01765800792570       99.12341731635030      115.51098499606806
C          115.23927861417033       97.59587515653352      117.21719897952691
H          113.33892626761377       96.70350825393584      116.77751090738334
H          114.62760263552897       96.22615352584914      115.68893516312102
C          114.65517609176703       98.45979894575719      118.34401969897890
H          115.71788858269669       96.72986758768869      117.67623868550835
H          116.01050836173211       98.15852546229419      116.69229593669058
C          114.37034591439567       99.88767124651015      117.92075703423596
H          113.73243142968016       98.00902011425858      118.71222536576846
H          115.37655159524033       98.49022221576804      119.16159959986126
N          115.45513497597062      100.64946005065244      117.78850751501790
C          115.38705599788517      102.04299419690938      117.40251159692876
H          116.37025480465866      100.23720507932373      117.95045639198963
O          111.65126742157486       97.51537553826198      114.11695581652350
C          116.44898245075174      102.88515084761993      118.09821118339725
H          115.49997077466354      102.13111530943941      116.31531542361844
H          114.39087194594987      102.40083257477566      117.67326358087196
C          117.83437882370238      102.67085847098018      117.49589948527633
H          116.15863692382572      103.93141815179500      118.00239867886940
H          116.46246087240313      102.63277047325163      119.15919649198136
C          118.92147195669065      103.40883948349138      118.27322262015001
H          118.06520093290459      101.60437082011224      117.49796926836149
H          117.82913221995867      103.01448321717130      116.45963936406949
C          120.28485691883097      103.25263757585746      117.60204407903626
H          118.66827315223333      104.46760768181846      118.35603676908298
H          118.97184127288249      102.99746176332125      119.28323719879401
C          121.41041870287813      103.76499425373012      118.48603875438621
N          122.70755243827007      103.44280679473204      117.92199142944688
H          121.35899669421865      104.85067581339023      118.60879745131429
H          121.32835828297330      103.30080616122663      119.47789728071935
C          123.83064790521745      104.02506259556266      118.35845136993458
H          122.76098423230118      102.62077415137202      117.32707141660379
O          113.22888349662783      100.31201016712544      117.72494434708138
C          125.10597775276409      103.40067851535213      117.81530070527045
C          126.33339552867611      104.30723283169866      117.89039224405595
H          125.29811614661769      102.50843238371743      118.41886023561779
H          124.93621731027875      103.06451571717895      116.79277747352216
C          126.24513966353720      105.53018497524531      116.98049384586584
H          126.45815869519352      104.65331517993579      118.91721094279509
H          127.21409755883172      103.71819599809332      117.62279682235452
C          126.17460825261557      105.15491065128275      115.49973391548649
H          125.37153784664999      106.11682120396911      117.26063152653109
H          127.13134588972751      106.14775121278986      117.14514060967643
C          126.35209174041360      106.35065316415827      114.58195692016145
H          126.95742213641786      104.43100019461559      115.26012963866619
H          125.20826380056010      104.70116438980786      115.26866879709682
N          125.51805084614099      107.35982418210584      114.80264903636873
C          125.50053591515199      108.58543033759243      114.03069382420789
H          124.88086295738943      107.32359750792725      115.59947052070369
H          120.46578746453970      102.19594007066405      117.39988564131802
H          120.29460414450850      103.78486527402600      116.65046988838733
O          123.80853146620500      104.95060021557336      119.16511021930738
O          127.18757804557291      106.34849033441184      113.67210162470909
C          125.16206450857815      109.78329739920696      114.91371363607676
H          126.48360254784255      108.70989460093337      113.57115286062690
H          124.75393735256930      108.48125525812796      113.23452217142088
C          124.72226275915736      111.00511498555593      114.10631671900030
H          124.36673260677532      109.49494971451212      115.60217091556576
H          126.04321349677434      110.03297642772526      115.50491956328227
C          123.33141157924520      110.84881950702707      113.49136524642661
H          124.72204469873616      111.87233252513435      114.76625016411012
H          125.45060051043558      111.18507102018927      113.31604076644869
C          122.90124901287713      112.07023059059068      112.67906707971342
H          123.32528414907523      109.98144471352731      112.82994265053422
H          122.60513991820764      110.66185159122831      114.28514446646848
C          122.46655173250076      113.25479951688818      113.53930304872100
H          123.71361432140176      112.37742202895978      112.02100547264492
H          122.05397101817361      111.80038964638764      112.04742343620093
N          121.81146909571255      114.25047624681849      112.71864538150969
H          121.76773386819428      112.90791138361988      114.31153057898106
H          123.31207285698616      113.73742484897861      114.03366466829776
C          121.96364238148422      115.57157584084516      112.86979453324544
H          121.26147331376788      113.88565200690218      111.95020962444056
C          121.12599337971886      116.40769375036409      111.91676462899449
C          119.80100257389579      116.78378381458938      112.59040963213663
H          121.67474223202085      117.31811328019131      111.66936010709661
H          120.93265718110165      115.84937732919883      111.00214416963898
C          119.07010193056843      117.88827947628839      111.82992233488257
H          119.16440757502191      115.89981676377838      112.66110880239286
H          120.00402199185933      117.12568179850733      113.60706291716539
C          117.61346921571720      118.04962913545535      112.27295977712473
H          119.61034061716687      118.82639327645551      111.96901105436973
H          119.07374886299664      117.64865702925275      110.76467431851177
C          117.45937815259060      118.39718437361344      113.74585620492755
H          117.14565447371403      118.84449665488718      111.68725075924331
H          117.07321513181377      117.11898387891358      112.09053802087560
N          117.93293263169326      119.59739342934665      114.08857159205711
C          117.79800480720301      120.13295207110838      115.42547273762708
H          118.32607260332328      120.21945959777540      113.39206226133506
O          122.68031096618461      116.07499368830582      113.72766969700994
C          118.78845154356871      121.25792246088781      115.70065422022616
H          116.77635586942480      120.51913590057264      115.55018558131317
H          117.93313147264966      119.30708129099754      116.12884787843750
C          120.22409077431473      120.79335406626365      115.95166031816946
H          118.77144558057506      121.94800328873127      114.85678958262000
H          118.43726603476256      121.80018887276923      116.57943915915025
C          120.92128754796460      120.25305358024927      114.70316956745614
H          120.79036120988243      121.64778069871090      116.32509785536602
H          120.21725785897034      120.02944923485427      116.73257765403916
C          122.43088251770408      120.11744237735662      114.89325402853245
H          120.51013988760943      119.27972897935598      114.43685255815805
H          120.72625844640552      120.92905549498860      113.87046432868971
C          123.15235769448948      119.72881313365066      113.60609792879247
H          122.84611599072582      121.06261939570626      115.25062084642970
H          122.64560133436363      119.34083130238936      115.62878242142729
N          123.06007513275335      120.76286281883469      112.59774588015945
H          124.20959919276734      119.54438451509110      113.83147555183484
H          122.73079999380664      118.81255782084691      113.18978856786514
O          116.92322070500380      117.63936331878040      114.54935876378869
C          122.74717882375366      120.54544095405146      111.31556293410878
H          123.26427781185713      121.70833617371608      112.89226789412949
C          122.83189681240520      121.78542055972170      110.43668340893760
C          124.27251462445172      122.25980562611272      110.24056591580833
H          122.39815677481941      121.54558919650536      109.46690536326277
H          122.24876246379112      122.58035075348431      110.89997934899517
C          124.34948621113897      123.42269585452769      109.25095489508254
H          124.68252821144658      122.58389593076332      111.19729267087935
H          124.88114504235240      121.42960932371420      109.87487352070872
C          125.78947381380901      123.87914355051740      109.02276288964212
H          123.92889529911405      123.12248504536801      108.28878243036222
H          123.75783060841641      124.26104275453019      109.62263365640078
C          126.46457762781635      124.45923239270935      110.24971443394739
H          126.39949686672738      123.05649861305230      108.64733522887838
H          125.79908656811794      124.66730948358988      108.26397045881497
N          127.78832373825114      124.34053748872293      110.25047525470154
O          122.42105511087179      119.45413533930027      110.86559979630790
C          128.64613161401113      124.95454505832049      111.23682722189682
H          128.25499842939567      123.91551835697265      109.45096797580354
C          129.62696942714473      125.93311638369013      110.59034209804867
H          128.00825863206481      125.46010514185321      111.96452230124461
H          129.21597046507489      124.16896286358555      111.74286728395654
C          128.94239361538706      127.03670023175287      109.78113857686050
H          130.24710945216785      126.37062181476138      111.37209789331594
H          130.28003535268360      125.36844852240371      109.92031654830483
C          128.00781814326322      127.94457445389118      110.58288556825828
H          129.71639185029306      127.65120054206471      109.31569601661606
H          128.36357109862948      126.57230256471517      108.97916571856545
C          128.72501384301839      128.73928042358230      111.67272521751130
H          127.54171084493223      128.64864024322563      109.88863518961247
H          127.20586809374973      127.35563710723002      111.02900928244162
C          127.80762084070703      129.77937196456708      112.31683364903965
H          129.08087244290340      128.06786621897527      112.45517492268792
H          129.58523945251650      129.25621343362894      111.24424244524150
N          126.71940828854078      129.14183261987341      113.02112710334141
H          128.38123001383937      130.39263064975111      113.02060850166768
H          127.36978165986619      130.43469247601669      111.55922050300450
C          125.43384904902788      129.33930705697583      112.75043031416016
H          126.97437633669762      128.46331976646294      113.73533243033989
O          125.85270307255929      125.01426217177897      111.16974180802832
C          124.47446757247207      128.51311407945173      113.58287272638420
C          124.01321562864037      129.34620839806465      114.78242813299354
H          123.61389566785680      128.25108324517925      112.96648896539116
H          124.96600911412116      127.60244244231089      113.92135861946407
C          122.79202918689811      128.74132879326913      115.46793364112297
H          124.83660912383871      129.42821604853796      115.49453525247816
H          123.77030173792080      130.35636403605707      114.44154025774424
C          122.43036355782489      129.52163215191791      116.72913790694906
H          121.94257411852188      128.75374442269245      114.78302801133661
H          122.99673426973993      127.70073116615653      115.72332345406380
C          121.00066513800076      129.29987464019314      117.18835504701524
H          123.11831826276210      129.27801685642504      117.53799391107690
H          122.52903142852061      130.59271784974848      116.52533825277253
N          120.69176626776213      129.77504317508254      118.40000673488457
C          121.58276249170267      130.47527388628305      119.30246183134732
H          119.70605062920897      129.74061329408039      118.65255375299986
O          125.03185676152583      130.16235986660141      111.92059430485149
C          120.82774485592394      131.24955789484923      120.38083183657797
H          122.24586145407527      129.75628338419196      119.79754299886928
H          122.21318652799613      131.16926480295317      118.74114458149127
C          119.85731799148837      132.29692998764816      119.82930960904282
H          120.26827281649641      130.55250322759619      121.00796839168906
H          121.57290633366624      131.73526020936157      121.01314951010384
C          120.51907589578109      133.28523486697662      118.86930174508213
H          119.03655217809900      131.78300406523411      119.33119569875527
H          119.43000003625933      132.84591182373228      120.67098366410596
C          119.56488165717117      134.36790534229328      118.36026258120764
H          121.35509260783203      133.77284724215733      119.37507079170709
H          120.91946660400052      132.75377370847218      118.00535217411297
C          118.29080141901140      133.80528284976128      117.72433646384464
H          119.26299380874362      135.01572314608720      119.18412976709061
H          120.09241089592503      134.98061801906755      117.62671900898921
N          118.57460868280884      132.76506193501456      116.75842267073486
H          117.63649496195015      133.40511480640001      118.50551761155072
H          117.75239551234067      134.59697658723539      117.19829168292736
C          118.04332565838415      132.70893076380170      115.53274854875617
H          119.01596712544540      131.93453358023004      117.12533424327958
O          120.16272216194243      128.72957255709051      116.49327823571500
C          118.46158785875068      131.50330481301702      114.71736792465327
C          119.69499584234330      131.83699368058194      113.86690832850289
H          118.67565559380247      130.65622660100078      115.36977759268683
H          117.63762749961707      131.24146962624559      114.05223678491518
C          120.03407931055662      130.67519133714580      112.93799935565170
H          119.49010132035106      132.73450503472725      113.27856054959776
H          120.54267650161543      132.05288710650760      114.52035676553305
C          121.22592564787577      130.95028264725411      112.01965827970221
H          120.23989875898560      129.78871122933140      113.54123754055925
H          119.16802728047587      130.46044706506638      112.30923363710455
C          121.35553707429345      129.84645006840762      110.97927047541855
H          121.05773469637874      131.88733775635546      111.48237508178603
H          122.15279353509753      131.04310425123481      112.58430793052536
N          122.59093237820068      129.40092360721374      110.76693301849133
O          117.30239225765747      133.58150871491165      115.07854390384637
C          122.92258932749360      128.37146597756569      109.80314822236444
H          123.39267208454568      129.82670858462703      111.23814406464469
C          124.06454115440053      128.82388142488952      108.89573287823879
H          123.22054008717609      127.46575784830091      110.34131989317876
H          122.01848341359933      128.16272044560668      109.22913740766535
C          124.58918703537368      127.70234574131209      107.99896541435734
H          123.72813294998649      129.66150965202434      108.28061682568489
H          124.87495425052126      129.18628743868888      109.53164041281889
C          123.53669211851930      127.20594109775480      107.00826837102704
H          125.45045688922808      128.08174948454777      107.44537695440977
H          124.93164091906296      126.87790383772442      108.62592366575083
C          124.11628077330745      126.30586996915011      105.91811386487274
H          122.76376560059427      126.65651550262604      107.54490873773381
H          123.06842348121305      128.07136746642882      106.53363538810726
C          123.03116275454339      125.91834735341084      104.91771068361079
H          124.91785074989217      126.82946914849737      105.39437786971041
H          124.53072246710423      125.39601312693640      106.35383214282460
N          123.55767602315611      125.07654988789285      103.86717542304729
H          122.22475085581537      125.39435380896037      105.44491110975336
H          122.61921005419472      126.81178791091574      104.44123683959343
C          123.15806128251283      125.16423323206949      102.59976567767367
H          124.15451295125446      124.30865134926329      104.18695943429616
O          120.36759276277056      129.39539543997282      110.39674052727182
C          123.85215536357174      124.21800756904878      101.63581702848570
C          123.48661771618686      122.76018383575183      101.91934623581938
H          123.55747884458749      124.49043645846994      100.62093392392502
H          124.93129579315563      124.35419406258410      101.72679056167418
C          124.20100615318005      121.79055987461098      100.98147185906295
H          123.74732364403138      122.51778126568196      102.94891590479418
H          122.40926479216553      122.63390511911079      101.80110108813010
C          123.96132804364569      120.34285260001774      101.42594270100430
H          123.82997392390727      121.92391004692489       99.96357074299225
H          125.27346904515781      121.99472163173952      100.97832222030932
C          124.56454830490848      119.39274786832983      100.41596363777084
H          124.43415410687589      120.18108633242208      102.39537860750288
H          122.88925939332955      120.16471622869796      101.50206507811845
N          123.74825341737339      119.05382944722405       99.42425992880030
C          124.10984076520151      118.16445409725273       98.33743542046668
H          122.81505798237728      119.45223809940192       99.40392797707032
O          122.29382106881707      125.95897181643812      102.21928523345038
C          123.22268062820905      118.38762460508850       97.11680265207599
H          125.15764736067084      118.34453897087114       98.07770823413341
H          124.02098607675381      117.12518196042321       98.67659864296691
C          121.76790223580178      117.97716114841607       97.35128115782808
H          123.26069442906383      119.44121947223934       96.83602682634499
H          123.63093848356485      117.80632225410963       96.28848260745765
C          120.93019540645732      118.16109461870181       96.08575578493486
H          121.73768987941095      116.93369058947530       97.66790702209491
H          121.33514751198432      118.59161688909118       98.14089477932016
C          119.42719967809603      118.00767435095827       96.32250129168364
H          121.11045114807899      119.16465945453116       95.69497185388330
H          121.24952373242634      117.44868763011709       95.32184723516676
C          119.01385007303567      116.57805445365577       96.66718353042062
H          119.11132932812717      118.66410927688904       97.13633966636851
H          118.89040917686853      118.31146257408595       95.42117947790135
N          117.58600361365473      116.48365182702896       96.86954899184560
H          119.27438893885686      115.88958816024844       95.85869447358158
H          119.51353068263955      116.25393294788852       97.58512683323718
C          116.78356791544316      115.67540402743911       96.16809902171912
H          117.17092572263010      117.20098231760723       97.45759884838341
O          125.72780852881088      118.98422848977992      100.52198263078006
C          115.31751317950282      115.78112828753228       96.55838231373674
C          115.06838515270918      115.21165676532985       97.95885763905031
H          115.02568974355435      116.83240671594191       96.54157989598650
H          114.72777279654582      115.24243327093450       95.81678273850606
C          115.56577607586878      113.77581150042815       98.12807674064548
H          115.57426867261340      115.84632281090273       98.68760317098376
H          113.99657388316155      115.25026341889617       98.16594246459751
C          114.83510847420227      112.79934987870649       97.20646429567282
H          116.63429592296849      113.73609805245044       97.91339527848650
H          115.40607365352649      113.47644274476959       99.16576951634579
C          115.01552673111794      111.33892694602780       97.56484157498524
H          113.76103862562874      113.00115226221801       97.22054868178388
H          115.19445378574663      112.93127191324986       96.18317950930336
N          116.26367218591899      110.89991880093426       97.74652172182644
O          117.18322453615602      114.89224817027844       95.30890480344954
C          116.52510354268237      109.48192765175055       97.91714793875819
H          117.05849633161104      111.51625448584163       97.63335986235623
C          117.96152008298922      109.18877829153260       98.32439143554268
H          115.83200220763413      109.08968018464758       98.66921821668664
H          116.29699376921134      108.96732141482607       96.97419237064652
C          118.14435091075927      107.68343606544214       98.51768104719834
H          118.63699174047485      109.55543137623449       97.54972098185304
H          118.19279193237705      109.71551575652666       99.25057299586767
C          119.59959836154658      107.27225151770651       98.73810541304060
H          117.53970462790218      107.35966591703774       99.36693390449982
H          117.76413319771751      107.16703045833302       97.63305946409807
C          119.69408312714093      105.78937974720616       99.09469101580062
H          120.17213794109855      107.46999538097036       97.82975337183262
H          120.03184247975948      107.87011627032501       99.54198168231304
C          121.11953610513714      105.24129731121907       99.03930502905681
H          119.29924486254593      105.63867085642633      100.10108970805732
H          119.07356450785500      105.21652226219366       98.40175181421303
N          121.16373120353360      103.91386248131737       99.65385852107467
H          121.46591513163068      105.23510437066862       97.99481311180945
H          121.79504340079161      105.88860399808084       99.60305892553473
H          120.56058690955435      103.28306479544158       99.13369752710770
H          122.10621080580161      103.53696295180994       99.60174477100966
O          114.04355394950984      110.58643773203634       97.67214180187902
C          121.47042876357821      125.32568130893878      113.09739830872523
C          122.82556515953971      124.83798335240003      112.64160697965205
C          120.37173276722032      124.30997601256425      112.76535689165767
C          119.98370699967155      124.36267735938462      111.28929834185222
H          120.71402394913773      123.30858916411735      113.03201807602282
H          119.48785673785223      124.52857381978936      113.36679822807207
C          118.76841447306360      123.48118354948356      110.97283388856451
H          119.72779437130239      125.39169056494984      111.03200351859660
H          120.83153590727954      124.06829326351099      110.66632034862592
C          119.07297941281770      122.02208459652923      111.22104095909367
H          117.95395801635186      123.77421744817745      111.63759299058120
H          118.43930471927713      123.65090143034148      109.95073377152687
N          119.38886066924222      121.24267223776255      110.18322879298759
O          123.39833842143381      125.63030200373301      111.76913177820072
O          123.32945636634324      123.80934052433153      113.04963186389256
H          124.33396391538174      125.33338922675907      111.51170511505110
H          121.26030487106526      126.28782521284022      112.62989683364890
H          121.52155131924518      125.46176958323201      114.17807110445233
C          119.45102101825907      121.58609856652626      108.77944923701946
H          119.63170235153457      120.28590774745737      110.40960114741473
C          120.09467162334684      120.43788036764229      108.00659387667324
H          118.43866969910488      121.76759068963328      108.39639052309670
H          120.03801931940228      122.49916253903727      108.65758211962985
C          120.17053049575843      120.70972148143225      106.50498702208486
H          121.09484151601734      120.25313553690626      108.40109712928654
H          119.50581068557432      119.53415632800180      108.17155167542928
C          120.90811296632374      122.00397038845655      106.16380912827717
H          120.68004999765839      119.87056079247672      106.02980088333753
H          119.15923985998469      120.75951447236091      106.10101918993826
C          121.26961731268872      122.10066737837991      104.68219637645234
H          120.28920009436285      122.85908545504915      106.43693189424351
H          121.83521531309448      122.06174735939707      106.73591053610635
C          120.08029620992434      121.95205983795707      103.74190051190654
H          121.75836381184443      123.05803998151363      104.49619341701673
H          121.98583318336912      121.31772449479539      104.43133987613059
N          119.04630659282124      122.93123238987042      104.00942144347417
H          120.42862588077550      122.04896501937951      102.70526000063701
H          119.61646277779992      120.96960983303437      103.84344673000989