3258
 energy: -3427.520250858375 gnorm: 0.000687034313 xtb: 6.6.1 (8d0f1dd)
C          122.56640534538855      104.90356506078599       99.63860009549910
C          123.78720629048095      105.81257532312159       99.57687520494579
C          123.40036788961903      107.26992162372589       99.33397960700758
C          124.62720586767237      108.17554111260912       99.24699552791776
C          124.30216616668703      109.60405535904721       98.80866005442087
C          123.50830995518540      110.39580539131320       99.84440738022728
C          123.28721345002148      111.84272918219942       99.40813349624385
C          122.50833807641961      112.62857061431025      100.45860651170538
C          122.16087942048037      114.05612312921573      100.04161251849570
C          123.38365300334624      114.95246098434215       99.85957214308800
C          123.02023565238218      116.42843296211458       99.69354182546603
C          122.17040176362092      116.69768484354148       98.45379668115315
C          122.00339506723594      118.18999103120370       98.17790968530872
C          121.04670163599779      118.43461324585277       97.01318747699588
C          121.00245893748112      119.88926637094036       96.54569607758248
C          120.54584847376165      120.85916741783254       97.63381874352636
C          120.18596414143447      122.22701093036079       97.05826384472533
C          119.87365387739482      123.26950456288272       98.13192922465345
C          118.66499255372000      122.90813152366448       98.99193873691102
C          118.28657264259529      124.04167080701865       99.94242335215127
C          117.24834103066988      123.59832004368739      100.97022031376352
C          116.73224206643756      124.73380202886723      101.85406239792849
C          117.84703656134447      125.45955678425200      102.60427983914707
C          117.33189738036673      126.41308948857697      103.68354604906457
C          116.75889995702993      125.68709958074336      104.89965660477063
C          116.57224835964954      126.63130503116911      106.08540725315683
C          115.92409341304401      125.96869698914290      107.30425432254609
C          116.58786265702537      124.66711933185140      107.75371429732890
C          118.05279390409943      124.83066897215674      108.15137252119874
C          118.68712663891834      123.48421587152244      108.48626362834054
C          120.11714762292667      123.62451609778660      109.00044605138048
C          120.71601382312654      122.30005335671017      109.47525942833390
C          120.98174620650099      121.31274912175836      108.34129645628914
C          121.60857012346591      120.02188050108892      108.86031001334423
C          122.08283379615892      119.08273265514768      107.75235388945809
C          120.95584053870488      118.55207210607051      106.86816892454983
C          121.44714891549019      117.43071790213062      105.95568148285230
C          120.38409854974024      116.98675470732373      104.95501407294661
C          120.84793416485665      115.83846217765706      104.05828296755831
C          120.89064829726654      114.49523858796113      104.78124012128352
C          121.35338858527101      113.36693648724788      103.86432627689989
C          121.34193835641456      112.01503197162941      104.56995382429379
C          121.71843328291119      110.85384821537039      103.65432887539268
C          121.75000255761032      109.53246929997836      104.41725540452794
C          121.92935306421943      108.31918758855331      103.50787849474840
C          122.11068115005207      107.04046256320464      104.32166359902580
C          122.23600243682583      105.78842887429062      103.45676521154047
C          122.63647544151380      104.58062310404301      104.29956327598713
C          122.84721975731274      103.29488038899633      103.50007958335090
C          121.57362757822631      102.62324419792665      102.98433364081401
C          120.58360009358216      102.26404859982057      104.09409387602395
C          119.63482615232526      101.13761330499554      103.68124536124952
C          118.42516243353522      101.04952579024672      104.60878410050347
C          117.52642083869623       99.84879867398259      104.31420758720836
C          116.15248432231600      100.01280389897521      104.95822359579532
C          115.22832785148522       98.81990241760079      104.72809924505529
C          113.81248533871006       99.11703004569614      105.21480237515132
C          112.86822426487558       97.92407671428441      105.09956669954853
C          111.42827455139157       98.32888401568115      105.40438877192291
C          110.45971480050864       97.15044642485607      105.35885598191392
C          109.00701980376991       97.61107936087477      105.44806600808934
C          108.02763883811124       96.44548395546217      105.56263039100843
C          106.58321690644681       96.88522945104685      105.32903896767480
C          105.58998418087106       95.77204898771414      105.65566588977228
C          104.18666489989199       96.01595110003180      105.10289331008101
C          103.51272615172583       97.26147612679291      105.67381272050463
C          102.02753605195269       97.30086235870304      105.32182300573068
C          101.33626413801021       98.60269045667644      105.72776826937645
C          101.47160769062403       98.92575540662577      107.21471405103712
C          100.47661924399556       99.98671921002693      107.68321246091793
C          100.61643152074016      101.32009945711532      106.94938008531406
C           99.94658703302518      102.47368990025952      107.69667608248679
C           98.43900583564510      102.28588449170395      107.84163009497914
C           97.74705633426102      103.44085317111298      108.56440526638617
C           98.24346365207441      103.64184395700966      109.99708516724010
C           97.25215457394911      104.44673774349765      110.83433298624708
C           97.78822907042900      104.84156389446683      112.20988902557542
C           98.19474694419240      103.64932316635343      113.07479047796491
C           98.43004949439008      104.05779730800926      114.52717562374447
C           98.77971250688154      102.88866764421348      115.44887371852492
C          100.13505031049513      102.25795227947428      115.14231544422672
C          100.56696452528048      101.24545400540212      116.20274917951230
C          101.77610351396501      100.42889688814905      115.74669778851907
C          102.36872905484464       99.58399043277494      116.87211505827673
C          103.34235008725034       98.51238095287363      116.37883733961647
C          104.57180596601279       99.06514510658600      115.65939972918963
C          105.56307332170373       97.95135692033756      115.32655349089340
C          106.73647891455292       98.42182802976683      114.46866324445048
C          107.72915101546060       97.28621014014844      114.22260561018271
C          108.79101132852016       97.59292054920920      113.16596668723278
C          109.75240751866804       98.71375451631273      113.55456757879706
C          110.95137684418677       98.77644142451422      112.61003110626724
C          111.88222424482908       99.94523869264250      112.92127632434820
C          113.14996070123458       99.91252148763998      112.07039471818703
C          114.02927586290210      101.14030434667681      112.29115055036273
C          115.33156989776465      101.07271940396856      111.49659503727263
C          116.15419845137079      102.35117329200339      111.63141188921139
C          117.44863509703372      102.30338726843523      110.82317244713737
C          118.21885148106722      103.61866347566632      110.90355746421275
C          119.47883311910857      103.61732792885975      110.04217606343721
C          120.21799164651749      104.95072822891089      110.11634013015598
C          121.45996038641712      104.98383856631669      109.23091195220046
C          122.20724485175553      106.30978325681761      109.34671273641328
C          123.46241498126911      106.33247424772767      108.48020590712541
C          124.32497622998912      107.57464135177317      108.69395937948050
C          123.63520042173117      108.87996979342707      108.30161285917927
C          124.63673379141493      110.02816523248248      108.19929206311950
C          123.96390672728124      111.39136472133504      108.06671718414680
C          124.98610482826984      112.49312724887861      107.79235151403593
C          124.41816428415642      113.90681104188971      107.93565235170755
C          124.29495959039306      114.32719095568943      109.39730029649419
C          123.77951855594551      115.75143802726787      109.57348984575594
C          123.69359044823749      116.14229123848770      111.04795066688507
C          123.03443233835459      117.50493193700336      111.24568408722376
C          122.76321799089916      117.81849399202210      112.71471170483115
C          121.91911879828693      119.07972382145552      112.88475304766671
C          121.64792332937670      119.39903171527271      114.35262913945506
C          120.73867365695510      120.61274174721264      114.52776859250412
C          120.56301831664210      120.99252108332482      115.99630765005820
C          119.60602533357807      122.16482833299301      116.17206762492191
H          120.18138523165963      120.13081037689317      116.54972503159544
H          121.53670166923644      121.24859054134657      116.42178410380569
H          121.15930180326767      121.46312456900590      113.98510887183653
H          119.76002359758220      120.39748452665964      114.09065819357077
H          121.18018270292529      118.53229536912562      114.82759930440908
H          122.59654343390973      119.58496055185405      114.86264004881637
H          122.42886346395680      119.92635534921241      112.41826239426589
H          120.96754013737710      118.94421522486864      112.36502541335720
H          122.23475578107224      116.97592694067050      113.16708096214002
H          123.70958767770782      117.93565300105291      113.24768503849934
H          123.66727394893981      118.28465100006551      110.81511596206720
H          122.08611242991459      117.51914403326703      110.70580516033689
H          123.11171369020174      115.38542132128072      111.57990052980055
H          124.69583801096336      116.14942942147643      111.48424321714387
H          124.43970343617455      116.44635526708537      109.04780057735015
H          122.78683398959386      115.83101077189670      109.12368539908262
H          123.62696017536685      113.64049763799841      109.92189187336366
H          125.27768811210338      114.24715917095035      109.86781197292676
H          125.07735870702865      114.61328453897879      107.42379613630136
H          123.43947829047993      113.96092143938672      107.45149359684925
H          125.82714054479843      112.38011276652368      108.48171300215552
H          125.37488387327517      112.35983190983039      106.78050270836688
H          123.23568370507034      111.36093992015121      107.25155592503930
H          123.41864224558405      111.60530500934607      108.98791151111827
H          125.26742250675764      110.03427752498429      109.09278356213291
H          125.28923460458677      109.85986133702227      107.33740185800013
H          123.13115916984232      108.75103260933480      107.34032763100986
H          122.87311627984204      109.13129513955099      109.04175681294031
H          124.62457199617556      107.62876098618938      109.74426843049170
H          125.23829839929580      107.46843333118164      108.10109867339766
H          124.06528287580954      105.45036253812555      108.70942042986154
H          123.17471246189291      106.26907771491307      107.42728286308753
H          121.54318295644924      107.12147086015740      109.04724203465226
H          122.48929863521394      106.47232202867967      110.38927230733459
H          122.12981559274144      104.16704351076478      109.51101558770206
H          121.16723871434546      104.82263023337966      108.18996717929976
H          119.54285351457273      105.75155407318755      109.80780537007597
H          120.51111438739932      105.14242880136364      111.15128621009703
H          120.14480421932727      102.81327553997623      110.36678806156301
H          119.20451423017607      103.41319409486694      109.00475611242459
H          117.56749799138595      104.43139907842738      110.57345234810040
H          118.49311517302361      103.81368608947216      111.94353215951382
H          118.07940681143391      101.48805067237501      111.18883227860194
H          117.21211137554874      102.08848205190607      109.77913516271278
H          115.55271801361565      103.19647001111630      111.28791266127372
H          116.39173761983581      102.51988413823602      112.68526609629679
H          115.92338081714884      100.22005468653886      111.84241441763994
H          115.10195829082824      100.90489532528647      110.44240918108048
H          113.47356043117502      102.03341007417184      111.99450757556262
H          114.25983909031703      101.23421133443324      113.35598681796310
H          113.71930045304063       99.01013225535972      112.31063540178138
H          112.87522229024208       99.85592622586377      111.01493605084863
H          111.35103116604296      100.88423116655039      112.74714352872472
H          112.15657207822009       99.91613439404047      113.97962078399956
H          111.51213713739396       97.84101077355159      112.68450579331861
H          110.59659972614780       98.86552359500999      111.58071627766276
H          109.22727887443591       99.66982723178099      113.53752616541529
H          110.10600997453351       98.55253198820621      114.57690070950727
H          109.36880649542336       96.68067512856612      112.99251384238120
H          108.30237731503773       97.85345231224282      112.22440208699392
H          108.22198749791724       97.02849722983646      115.16444450964933
H          107.17169950449109       96.40226396289231      113.89919985226491
H          106.35692950008843       98.78343716975284      113.51056200374776
H          107.23866082731966       99.25328740795098      114.96543661373529
H          105.94665325495993       97.52163280191736      116.25681901566874
H          105.03459261171743       97.15498647919935      114.79589322077111
H          104.26358000975370       99.55897999028321      114.73677025233096
H          105.05906211235173       99.81260921171659      116.28919491098782
H          103.67395963020581       97.92229337052700      117.23882875088698
H          102.81183413752878       97.83345977656822      115.70558353467257
H          102.87885972720019      100.23856958210109      117.58336880314025
H          101.55514187454644       99.08678447807840      117.40863866789402
H          101.47196903381533       99.77187482350391      114.92853441393527
H          102.54184874281160      101.10749830460692      115.36785778106659
H          100.80993887471209      101.77256201805166      117.12939835936697
H           99.73718778057102      100.56739724020134      116.42136126223809
H          100.08212333337460      101.75676155989889      114.17532392250627
H          100.89149465478845      103.04224183988308      115.06958299122120
H           98.78227986020592      103.24832691997528      116.48103920404334
H           98.00287882842871      102.12494168140191      115.37645945244607
H           99.23242146216663      104.79835180066084      114.56445105799075
H           97.52417733507436      104.53794424481571      114.90797874703330
H           97.40555007533519      102.89326337390065      113.03822486218546
H           99.10423797007081      103.20384586884720      112.67154706258709
H           98.64579563036391      105.50568274591036      112.08692513930993
H           97.01175090337196      105.41182771323452      112.72799257381391
H           96.98609416921370      105.35718948810019      110.29217601007021
H           96.33666895301822      103.86352435140526      110.96190233376831
H           98.39098734783455      102.66474443484461      110.45914449955666
H           99.20579736947491      104.15818431636745      109.98943829235901
H           97.88614715841705      104.36217943445081      107.99773691937473
H           96.67329120521465      103.23380750357384      108.58992410930527
H           97.99829886838508      102.17488738108165      106.84663439779115
H           98.24292914928823      101.36509835150555      108.39386384038485
H          100.39839979367592      102.55927636579941      108.68726739682617
H          100.13892584306625      103.40778827349187      107.16114525608513
H          101.67912856198997      101.54911287613305      106.83349575008894
H          100.18537415016829      101.23754818717111      105.95076701389124
H           99.46306104220102       99.59985045876923      107.55238361389871
H          100.63179805457517      100.15891073496647      108.75054473916745
H          101.30598376491047       98.01399580206403      107.79647633079222
H          102.48675765888468       99.26967515915443      107.42313429601427
H          101.75125597213162       99.42640889251588      105.14498926363945
H          100.27495254619880       98.52015215972845      105.47608864148107
H          101.91579134011860       97.16894210449513      104.24161800875450
H          101.52630082230942       96.45843955546083      105.80675678184319
H          103.62622927402597       97.25820712426143      106.75908072385677
H          104.00005336738280       98.15791512508588      105.28506762828120
H          104.23688242910525       96.09816212112206      104.01444866646663
H          103.56946908265790       95.14439634726304      105.33903126609499
H          105.96384096053272       94.83058903901596      105.24378991137088
H          105.53024224050277       95.65453076703808      106.74023384120619
H          106.36898620726630       97.76069207090244      105.94513860298385
H          106.46661329988142       97.18260376604587      104.28359767703225
H          108.28989572697915       95.67638579259192      104.83059230361890
H          108.11739542164372       95.99322223673649      106.55337445551883
H          108.88933728340760       98.26538370360689      106.31497912966543
H          108.76539889128159       98.19566517472961      104.55742996983551
H          110.60401391039358       96.59765732320518      104.42645505904754
H          110.67945691007351       96.46683542658965      106.18240198068085
H          111.38437717491813       98.79296231434708      106.39244894932689
H          111.11218525208058       99.08104885376282      104.67590064853098
H          112.92049659664234       97.51261943842522      104.08743415516787
H          113.18220519911702       97.13670289994116      105.78874696883759
H          113.85047400478328       99.44325499747117      106.25647251288159
H          113.40615331625160       99.94244247872648      104.62526287492324
H          115.20047043118394       98.58291101656748      103.66085830291726
H          115.62133772662582       97.94263349004366      105.24841762126438
H          116.27449017595258      100.16891798927418      106.03189023618908
H          115.68115562333308      100.90791736859482      104.54455221142382
H          117.40345001168497       99.74255676305805      103.23297148799274
H          118.00107854945153       98.93261081606671      104.67532447146279
H          118.76443507088369      100.99902978033123      105.64512549020488
H          117.83848890504360      101.96503498153906      104.50017643928905
H          119.28994922616569      101.31057407703598      102.65895013361019
H          120.17418193812900      100.18628336458336      103.68511005364408
H          121.13146940290737      101.95556425377346      104.98678754682187
H          119.99541896924734      103.14617802655407      104.35396432692154
H          121.08055943524521      103.26524374310009      102.25295659541788
H          121.86961867734222      101.70751907056025      102.46359983364445
H          123.50154614484558      103.50930383642049      102.65039347646493
H          123.36830827309861      102.57821133611802      104.13999533757492
H          123.57685119642910      104.81831841478596      104.80425638034561
H          121.88498417105822      104.41077677341005      105.07249917400225
H          121.28696289578372      105.59779895907369      102.95276926140437
H          122.99565666108877      105.95703658280219      102.68963221460403
H          123.01211325970583      107.13906577215396      104.93237322240986
H          121.26539541373567      106.92310354590965      105.00539063053715
H          121.05957840889052      108.21862460131699      102.85302540934961
H          122.80365256899024      108.46941304945400      102.87012163713860
H          122.57095477286887      109.56193157428066      105.13845369873486
H          120.82230162854881      109.42071872247456      104.98471439383212
H          120.99696281726840      110.78684012991855      102.83614192828550
H          122.69707909716547      111.03795652579724      103.20855898879184
H          122.03710420399955      112.04676739398190      105.41263694998730
H          120.34443719805107      111.83183029111680      104.97588403253852
H          120.69933971359742      113.32412931286561      102.99113337547085
H          122.36236045296521      113.58542157977561      103.50886182347260
H          121.56462460902380      114.55476163371344      105.63810902038914
H          119.89218402551664      114.26626336062959      105.16226089308080
H          120.16459611122004      115.75423032455427      103.21010110406492
H          121.84013114343549      116.06758495968008      103.66063316656816
H          119.48235757776179      116.68398562166364      105.49231734147526
H          120.12034601761206      117.84246815540641      104.32702327377064
H          122.32669591930609      117.77440860022210      105.40695963448962
H          121.75604425913860      116.58295324757270      106.57091519206692
H          120.14359560567823      118.17891778439741      107.49708823289633
H          120.55358840243771      119.36191507100799      106.25703456733739
H          122.81513492748648      119.60371400543131      107.12904185972056
H          122.59440578204585      118.23570344636924      108.21602902448394
H          122.46551074029179      120.27438912648987      109.49061295701917
H          120.88303772065478      119.50253120882836      109.49061592368315
H          120.04469364460589      121.07717057273230      107.83705675942414
H          121.65312627789004      121.77551955785447      107.61271662845802
H          121.65957483385334      122.50606938732530      109.98835775197060
H          120.04126230401452      121.84079740931979      110.20163062260825
H          120.74807590285944      124.04808181500351      108.21463146122917
H          120.11988928197935      124.32853053934753      109.83733815898236
H          118.08348535893197      122.98637987567058      109.24805822190882
H          118.67360257095140      122.85848185587245      107.59245728654949
H          118.61429707670231      125.29138506761522      107.33737421044805
H          118.12054263809479      125.49542864746850      109.01678838796306
H          116.03400536717469      124.27583299312684      108.61133624473216
H          116.50914896269680      123.92559698985434      106.95718979588590
H          115.93627153958548      126.68225320691445      108.13273850392913
H          114.87755691108127      125.75399877700849      107.07460028689366
H          117.54294895351021      127.04510073423810      106.36837387484701
H          115.94486106669265      127.47241928787615      105.77675143774854
H          115.80047960724220      125.23119293927392      104.64774969600417
H          117.44883368129929      124.88978830730079      105.17968352072039
H          118.16500974298810      127.03944228260477      104.01529592875548
H          116.57605298021703      127.07602855812202      103.25531399191783
H          118.50684523037135      124.72248027524363      103.06959227943929
H          118.44323876407496      126.03311103003492      101.89165656820806
H          116.18338348173712      125.45436925042218      101.24284836196661
H          116.03133776966934      124.31097531584913      102.57559943981337
H          116.39932608704341      123.14722345273577      100.44820620556773
H          117.69237628963141      122.82920392663394      101.60622658207043
H          119.18754521293974      124.37655375719586      100.45983757072987
H          117.89838738994951      124.88721342262848       99.36871872262562
H          117.81812430404297      122.67450646295906       98.34304941779799
H          118.88824801299903      122.01683471844045       99.58087798586762
H          120.74785933159369      123.39593275801653       98.77593029876621
H          119.68517847727652      124.22918409175297       97.64289101733981
H          121.02155322074978      122.58752041778219       96.45214320620607
H          119.32191362530254      122.12282892361020       96.39649780842845
H          119.67364408889686      120.43879726590394       98.13598550464265
H          121.33647242763931      120.97879416243933       98.37699637886860
H          121.99054296624918      120.18667051740593       96.18534678675027
H          120.31288956238605      119.95840816820450       95.69944808041171
H          121.35133917196114      117.80886681480757       96.16952527684310
H          120.04245278799142      118.12164622675087       97.30958732967893
H          121.61940530551827      118.67685382231923       99.07588072450797
H          122.97733772183689      118.63038358707280       97.94853790116052
H          122.63664867119809      116.22250528225217       97.58649834097442
H          121.18264199142290      116.25418458895614       98.58454750736878
H          122.48273580491148      116.77367131506247      100.58007777404694
H          123.94388995293399      117.00979734380442       99.62403909061098
H          124.03343374178787      114.84834427437328      100.73307634742230
H          123.95272908390817      114.62862837778370       98.98555657227379
H          121.58572462668627      114.02448270951258       99.11548795685121
H          121.52522726846641      114.49489995846366      100.81496014558903
H          121.57958334921059      112.09370235681196      100.66996066972435
H          123.08934019118477      112.65514827515148      101.38271064280512
H          124.25656498117408      112.31449103429198       99.23371067021104
H          122.73866781712135      111.85511445903211       98.46280771266586
H          122.53977800081306      109.92209245885961      100.01293477694882
H          124.05069514773747      110.38610082246868      100.79339496409661
H          125.24085279535835      110.12957027609531       98.61146592007645
H          123.74271212998568      109.57299202676920       97.86999112717660
H          125.13049275192195      108.20003332000887      100.21698813794660
H          125.32820958851775      107.74370861951374       98.52707016016332
H          122.83721240054183      107.33847982033704       98.39948609025004
H          122.74772019094824      107.60434359901504      100.14260724673034
H          124.34386905750634      105.73906458566607      100.51462421539432
H          124.45075547006532      105.47622876494798       98.77588315309835
H          122.86174229230129      103.87229898668821       99.81952762527303
H          121.90529806491458      105.21775322119882      100.44239264339936
H          122.01333071730799      104.94273045574188       98.70216081602761
H          119.97518367688787      123.04167999313439      115.64386286828481
H          118.62373487529422      121.91678030274173      115.77627478714933
H          119.49855919659576      122.41894947632356      117.22438435461584
C           97.57012279936995      120.76888413428297       96.29338314686366
C           96.69194548667062      119.94573144351550       97.22764632521002
C           97.11700383380624      118.48034197940002       97.31719028228737
C           96.78482858003888      117.66620893246916       96.06955050746222
C           97.20339006626774      116.20574437689602       96.22183813519842
C           96.82795423912711      115.37509830065093       94.99695711166638
C           97.38258388391019      113.95095069565656       95.03111058663259
C           96.77334490600467      113.07898868572038       96.12642076589916
C           97.32247725891776      111.65703607820407       96.07785274042665
C           96.72085347090000      110.74499370903833       97.14466163942731
C           97.35983826430659      109.36121577093022       97.09345462435982
C           96.75083556317432      108.35279161948964       98.06388610810993
C           97.46832469646728      107.01042335323596       97.94534828773415
C           96.92022001975636      105.93728005635063       98.88060585995072
C           97.60968948185923      104.58451873283654       98.69047017753225
C           99.09519477746261      104.61050152553028       99.04401623613784
C           99.77511783596212      103.26441136352265       98.80825115688009
C          101.27819004300764      103.35536947602780       99.05405698584161
C          102.01334704439152      102.05361347823188       98.74845930334857
C          103.51841702829904      102.20983079451895       98.94599052811036
C          104.28784419046983      100.91632157096014       98.69586933548663