3864
 energy: -5104.233431920390 gnorm: 0.000874635879 xtb: 6.6.1 (8d0f1dd)
C           48.51507962663550       52.27121307560815       60.17435236139980
C           47.15649598632607       52.04299415121427       60.33803621809879
C           46.58984803750818       52.34726939578682       61.57402283662099
C           47.34298017409220       52.87366128550338       62.60482864615514
C           48.70150840694065       53.07573172904198       62.43304641020541
C           49.28111782404736       52.76038493171318       61.21867212765391
C           46.26577207599883       51.45815695542363       59.26053520000003
C           45.20209098015924       52.48213207956229       58.85839780010593
C           47.03684576666863       50.96245199863153       58.03120709263185
C           46.22277808645251       50.09034481330828       57.05798869788079
C           47.06258417656165       49.75639925416977       55.85100462027045
C           48.23518381307547       49.02056026616840       55.96150058307543
C           48.97840240423039       48.69869927533629       54.84204380647424
C           48.56250884729541       49.11072578137200       53.58843478571060
C           47.40288686506747       49.85392873337969       53.46374981618382
C           46.66040175157553       50.16826868354921       54.58731234724760
C           45.71401539603632       48.82310274499093       57.76321391670476
C           45.29819672325697       47.66314824557524       56.84339739943122
C           44.41922000886633       48.11471022523697       55.70697384540026
C           44.69839213598613       47.70514256627824       54.40818994362680
C           43.92746511361730       48.13679889778453       53.34446139927561
C           42.86838414538768       49.00173228358428       53.55952144869895
C           42.56855425209361       49.40429181776271       54.84966222603877
C           43.33101000881273       48.95523195565787       55.91413470815130
C           44.61550458939946       46.59351265950369       57.71511631876803
C           44.51405007675046       45.19847071933442       57.06812196890469
C           44.76632723058619       44.12461627604267       58.09946693916014
C           45.87280972032821       43.28989222808500       57.99891274188029
C           46.10908096442304       42.30392445566296       58.94124223682095
C           45.23878633075881       42.13598868278537       60.00418921492891
C           44.13708784283040       42.96651328483052       60.12199397121531
C           43.90895661618247       43.95372264294115       59.18116339709866
C           43.15369731283532       44.99681092319781       56.39382875481721
C           43.05511218502824       43.65407980367166       55.65186465376890
C           43.92183247558761       43.68407067448636       54.42028741816511
C           45.07595262753021       42.91345049222641       54.35761518914553
C           45.91896171198568       42.98223053170011       53.26330279204416
C           45.60125010189840       43.80081621212101       52.19357826309432
C           44.44887030846525       44.56518968601478       52.23841355883204
C           43.62956766017684       44.52036618537743       53.35122256323714
C           41.57562929379091       43.34790432419245       55.36904398741806
C           41.31669623267051       42.12009375619586       54.47980455446393
C           42.28274887614496       40.98519741281120       54.70772690461555
C           42.91907741182096       40.38794273476902       53.62757489314443
C           43.69982785360455       39.25898138785246       53.79953609092914
C           43.86537408546416       38.71827870801379       55.06163617956695
C           43.26593258834331       39.32479367749321       56.15264248110295
C           42.47471920916909       40.44479481061056       55.97488887438256
C           39.90584462847766       41.54913090115542       54.72767260290439
C           38.73835996432218       42.38790219941364       54.15963833965586
C           37.59151769021730       42.31226734668214       55.13738154096084
C           37.52725756115683       43.24736832356266       56.16603090215029
C           36.52969316325678       43.19142439930985       57.12193394640382
C           35.57145079137749       42.19325379241097       57.06665785485594
C           35.62965663364001       41.25130889505254       56.05449869055474
C           36.63423261952126       41.30628463544662       55.10341114608666
C           38.39302970258065       41.89818410975629       52.75115417459356
C           37.21595041584783       42.59624875142956       52.04751724629124
C           36.99921715350656       41.88642206638064       50.73278475054529
C           35.88929312140004       41.07868575528593       50.52840658936639
C           35.71401671716837       40.40212317532422       49.33255990467823
C           36.65319642829824       40.51878835880204       48.32352360075160
C           37.76371105682124       41.32354780483147       48.51513059804937
C           37.93136205228155       42.00262165590585       49.70668078484884
C           37.44421719378389       44.09908539833161       51.81741148430117
C           36.80070113220519       44.98222193482668       52.89261468341441
C           35.29785245408357       44.86262771571471       52.88408102392640
C           34.61485641386039       44.50567806635650       54.04022684440984
C           33.23271545045013       44.43027565915919       54.05657122918826
C           32.50795262968652       44.71234295053900       52.91153303754506
C           33.17658126862356       45.06491525634218       51.75052368687337
C           34.55745136340706       45.14092134469803       51.73933632668543
C           37.20775040157915       46.44660574800323       52.68072116350214
C           36.87977923920288       47.31752240190892       53.89997070074534
C           37.83695313043556       47.04877205179947       55.03616494356917
C           39.20775614275244       47.21787057912458       54.86323328035070
C           40.08397783024617       47.05479308142515       55.91924178620012
C           39.60228656073153       46.72775673928996       57.17541086072206
C           38.24225490993230       46.55770549608368       57.36389251874255
C           37.36841004224626       46.71345884563662       56.29986533414293
C           36.94357202752934       48.81734464259793       53.55125164503266
C           35.58879898038684       49.48140572011437       53.25861523296993
C           35.85409306035122       50.95396186698445       53.05356603824226
C           36.55516822099565       51.41590593788548       51.94499179065152
C           36.87297410250297       52.75511880896779       51.81195338992918
C           36.49670565621537       53.66034053920801       52.78973127440900
C           35.79474146578568       53.21521247931806       53.89689001595004
C           35.47758628035655       51.87344596738576       54.02585278784587
C           34.86791633047807       48.82851859646197       52.07498722458418
C           33.58308221890233       49.57249962971867       51.69187959464907
C           32.66259128084743       49.70595961159717       52.88006211758616
C           32.20582912940769       48.58516060835308       53.56570285867633
C           31.34531807057999       48.71540434161437       54.64009072246879
C           30.92929971502246       49.97007709862925       55.05384877521495
C           31.38440831287069       51.09287682599226       54.38549886305146
C           32.24138409672471       50.95858724508320       53.30713303206530
C           32.81614823600481       48.87630270218749       50.55213231396895
C           33.65726396046256       48.49467942651457       49.32200787752698
C           32.75869571599586       47.84775624089188       48.29734796779940
C           31.81065953178424       48.58162479558008       47.59391367334149
C           30.98578246926806       47.97182845354045       46.66607535718403
C           31.08975797203030       46.61176120128573       46.42784287202951
C           32.02509852887984       45.86821014714708       47.12589682674837
C           32.85007357867529       46.48344963830652       48.05066592386476
C           34.41850751602747       49.69093345824838       48.74151930231750
C           35.28822281710030       49.32522628639859       47.52628095877974
C           36.07717563558979       48.06361250946346       47.77087165343389
C           37.04420997361765       47.99033386341168       48.76759961353088
C           37.73474465785500       46.81468380412514       49.00409719842529
C           37.46387888270332       45.68652356936209       48.24800089131195
C           36.51616765134454       45.74943252375820       47.24128644029110
C           35.83278247675548       46.93005879428684       47.00499520022092
C           36.20029317613266       50.51617704027068       47.19904114238852
C           37.14893786290836       50.24662878312179       46.02576713424055
C           36.37420276230858       49.82989592659682       44.79992358736061
C           35.44656186594979       50.68316477067909       44.21226273999363
C           34.72685728080594       50.28895619886468       43.09951040538288
C           34.92503693667906       49.03456460552963       42.54657933619149
C           35.85258227223955       48.18017291858623       43.11621149470984
C           36.56761969865662       48.57749882866025       44.23218234552814
C           37.99272602482941       51.48921533792220       45.70136309467075
C           39.09954130633895       51.81938004412459       46.71861052171943
C           39.50398500111894       53.26556605493275       46.56201369706978
C           39.41713865428620       54.14737109483068       47.63192969798283
C           39.73795681460017       55.48642100825560       47.48046952561250
C           40.14143708942223       55.96830049106423       46.24711418821055
C           40.24912402022736       55.09569832491317       45.17781455558811
C           39.94360557703008       53.75752422915684       45.33740493545258
C           40.30353540597266       50.88855002882871       46.53972793154158
C           41.40855280538909       51.11615568847709       47.57622990616110
C           40.92230795617940       51.00700445304054       48.99956968643082
C           41.33436846929026       51.92178079452793       49.96103234838179
C           40.95174793328570       51.78892859724880       51.28531059577571
C           40.13741427457270       50.73969398081853       51.67396268685191
C           39.71837392599935       49.82376022910237       50.72421232736018
C           40.10900479687050       49.95353509997751       49.40383890242766
C           42.54036216040284       50.09440105082945       47.35677121366509
C           43.88584541955810       50.59215716018158       47.90834704610354
C           44.63325463518462       51.37253717191800       46.85702812632385
C           44.96826347791811       52.70548229359363       47.04845698504675
C           45.67159924231704       53.40839290547189       46.08418415454741
C           46.04788170154553       52.78398568936834       44.90893730643437
C           45.71409481542415       51.45567113910916       44.70211777600953
C           45.01735164857242       50.75870440096630       45.67002474273009
C           44.74818700519194       49.42847082461194       48.42164353863402
C           46.11992972824380       49.91108531223698       48.91489222767958
H           45.75180045538656       50.60567757874415       59.71983344376154
H           47.40819904236721       51.82876829264293       57.47688959697508
H           47.89782060371844       50.37967743212800       58.36517188565560
H           45.36075455215585       50.66373153379789       56.70346487689133
H           46.49386712633525       48.44983116309614       58.43273206092319
H           44.85476962250442       49.09889915485696       58.37417378112195
H           46.20651291110893       47.23087157005692       56.41137018080802
H           45.19297501910025       46.50419097303677       58.63948025616206
H           43.61819325667842       46.94493385414116       57.98538270567948
H           45.28503922879520       45.11049037398605       56.29666416507779
H           42.99005851716660       45.81236254438562       55.68773407966189
H           43.44088114602430       42.87091174068080       56.31375942543773
H           41.08496645505114       43.19943401318017       56.33479703123671
H           41.11130227798692       44.22245918873538       54.90877222797875
H           41.40578606625964       42.42125481097164       53.43137369365100
H           39.85251415816438       40.54608748434489       54.29622867321068
H           39.77251016469477       41.43357586164264       55.80618834180893
H           39.06111807145751       43.43079768300614       54.10400434532595
H           39.28541839907327       42.00020521270921       52.13129355139300
H           38.16563797456247       40.82953945669089       52.79554374461291
H           36.31654150659688       42.47070622638892       52.66021429936034
H           37.15883803304165       44.66561076972693       53.87607001604275
H           38.28029754510462       46.49009672147930       52.48599245442086
H           36.69722371944349       46.83192857312739       51.79910792040622
H           35.86659917004715       47.07663074587297       54.24040917376643
H           37.38394715371898       49.35391113272625       54.39296466895370
H           37.60388761474354       48.96261205395915       52.69617829485458
H           34.95172743405478       49.37541517520718       54.14388702623344
H           35.53870025131926       48.80625444710189       51.21789149815237
H           34.61857432907755       47.79882800031932       52.33335971077068
H           33.85257251009200       50.58211645241015       51.36470768036698
H           32.36164315614442       47.96107633701715       50.93912329702439
H           32.00061486820481       49.53495914207239       50.24214962846428
H           34.38709249491028       47.74228153609548       49.63467520616450
H           33.71718140274272       50.47439323488182       48.44890484293469
H           35.06032715829473       50.10913768081720       49.51629647012207
H           34.62768902546863       49.14347957243523       46.67063092843334
H           35.57345471221299       51.38173888007732       46.97318846484274
H           36.79160818767884       50.76533425590710       48.08127726237220
H           37.81141025194938       49.42095990092121       46.30393038708338
H           38.44965860695724       51.34060890860513       44.72040928184948
H           37.32056671650406       52.34634591467637       45.63003293479105
H           38.70544412816324       51.68792125502833       47.73038879143599
H           39.97054873044868       49.85061888072683       46.57994995915811
H           40.73727918923043       51.05093180847563       45.55190371198941
H           41.81423145608468       52.12270081440164       47.42015865772991
H           42.26370783776638       49.15844661930844       47.84537450005431
H           42.63456616371797       49.88504253263006       46.28982406642652
H           49.00457485434588       52.05601990920635       59.23753283565340
H           50.34353897724853       52.87869415608783       61.07656464037148
H           49.30308021197304       53.46709868861711       63.24238406640899
H           46.86556352502511       53.10902786482684       63.54540304234033
H           45.53922287738651       52.16313767947739       61.74801217926326
H           48.57587968856205       48.68259434511037       56.92913548473921
H           49.88283997530009       48.11899697763327       54.95593699725992
H           49.13566165785780       48.85551520975111       52.70829443116848
H           47.07227338148718       50.18882377190079       52.49062351841325
H           45.74599633722794       50.73337612958605       54.47667323652922
H           45.53663468997501       47.04698782219525       54.22449303813430
H           44.16036940246705       47.79868465274270       52.34474506078861
H           42.27994175194386       49.36839137501907       52.72958114711395
H           41.73686105849181       50.07043013672978       55.03175672254341
H           43.07138901928097       49.27434629258568       56.91366393379905
H           46.55768896169472       43.41175900560287       57.17061790506620
H           46.97612988971229       41.66482727174026       58.84664904207325
H           45.41626652655864       41.36199925849641       60.73727347460873
H           43.44739587618255       42.83998377366581       60.94622408471304
H           43.04668145043482       44.59346758727673       59.29237453681330
H           42.36522931068435       45.03983486913238       57.14813436481293
H           45.32370430371494       42.25520259501108       55.17972163232867
H           46.82783623235021       42.39846562800952       53.25460325234500
H           46.25400952375156       43.84562624241040       51.33285586499744
H           44.18605859181128       45.20642088435717       51.40841485457457
H           42.75733651978648       45.15310329736359       53.38634627250645
H           42.79372086585655       40.79500433317448       52.63418766995355
H           44.15947052622663       38.79369064167073       52.93985978604569
H           44.44650599851181       37.81686405984809       55.19641966816948
H           43.40223731506173       38.91309888125669       57.14326844199824
H           41.99232240778834       40.89168931232025       56.83244765347281
H           38.26913630831353       44.03204534709131       56.21879174125836
H           36.49647892342509       43.93045669094456       57.90983196852789
H           34.78632273371473       42.14818238232593       57.80809179595671
H           34.88905520135101       40.46504329692237       56.00684249586855
H           36.66409396251198       40.54998280973071       54.33379143630465
H           35.15054698556456       40.98032186757547       51.31315918431645
H           34.84220362620741       39.77819504069318       49.19026881792875
H           36.52111751126944       39.98639521108537       47.39241291519307
H           38.50691476598420       41.40882861554095       47.73474672325674
H           38.79684099437242       42.63361061763914       49.84242664800464
H           38.51353392968738       44.30524262410504       51.78250976584275
H           37.03016968226385       44.37616299054041       50.84603515899111
H           35.17080856227669       44.28051775172944       54.93976726058576
H           32.72041485880306       44.15162325429232       54.96708968869310
H           31.42827204283128       44.65831205986832       52.92180768769183
H           32.61525547986560       45.28546933147116       50.85285243392466
H           35.06129282219960       45.41916898556763       50.82416614266749
H           39.59857032550488       47.50881947752286       53.89960705469351
H           41.14133790105621       47.21056990962350       55.76701125294397
H           40.28472132059687       46.62386324625930       58.00540445094533
H           37.85597160410994       46.31031872503682       58.34313373442449
H           36.30647972888543       46.58309358534794       56.45872422689218
H           36.87145552549303       50.72389042828298       51.17923664776400
H           37.42951772664929       53.09133586950080       50.94839855885183
H           36.75035959760887       54.70618021600620       52.69484886771290
H           35.50327792219668       53.91538217498348       54.66790984810631
H           34.93638684669676       51.53219499154506       54.89866854370537
H           32.52097802451863       47.59657763257155       53.26218440835521
H           30.99552884147184       47.83161818945698       55.15607666609008
H           30.25498280038614       50.07237846100202       55.89237754994776
H           31.06889488302907       52.07626248436380       54.70439260155108
H           32.59227609431188       51.84191347188804       52.79153848894175
H           31.71143417046793       49.64325041173812       47.76765725324175
H           30.25646253997249       48.55939685250954       46.12619264396360
H           30.44460385138952       46.13571255751690       45.70327179644962
H           32.11420165801503       44.80567737819063       46.94899976727741
H           33.58316273934366       45.89272152392158       48.58198974116524
H           37.25985891823231       48.86379163832638       49.36464826520776
H           38.48876702150410       46.76970615365365       49.77644829942440
H           37.98724665775883       44.76214334042843       48.44283545259211
H           36.30465554540205       44.87740125248932       46.63836835400195
H           35.09069946790014       46.96938035271788       46.21886195590518
H           35.27415022135906       51.66332273445447       44.63239671570430
H           33.99899634384428       50.96074272425754       42.66437917074063
H           34.35804859107160       48.72662239033020       41.67934915013871
H           36.01111770160271       47.19676640980173       42.69806444891627
H           37.27298151506685       47.89208095360527       44.68037154440754
H           39.09774913482379       53.78278335321620       48.59897163796291
H           39.66998117296619       56.15019698941693       48.33247690990655
H           40.38434257850628       57.01248605811838       46.11515083516804
H           40.58041066153318       55.45823970882483       44.21576108599473
H           40.04998992394777       53.09402100977636       44.49346491684128
H           41.96489947951344       52.75001505700798       49.66504268872113
H           41.29097054058790       52.50141138453237       52.02412928291045
H           39.83275852974041       50.64053785634133       52.70677804855622
H           39.09215432357833       48.99130847730737       51.01384908867154
H           39.77209330177669       49.22186156150818       48.68426807701161
H           44.76916315055538       49.72201811788690       45.49623088710182
H           45.98647541465312       50.96040995305342       43.78277373215160
H           46.59589349229648       53.33266306911989       44.15649875684608
H           45.92232903023459       54.44612231407198       46.24937100998096
H           44.68524350693755       53.20022121501258       47.96701984645957
H           45.65414597687003       53.30386339895647       58.30621720236996
H           44.45085343672084       52.01035874722825       58.22964038678670
H           44.70647823175976       52.89218437323616       59.73579409813860
H           43.68697998996740       51.25239226297762       48.75818236520396
H           44.21885722686562       48.92230334072601       49.23184508642262
H           44.89086780748157       48.70750484437333       47.61587519384999
C           46.95719249795874       48.77409680468444       49.52435582056474
C           45.98503891335714       51.05018836026413       49.89633483614973
C           45.08216302055902       51.00474265317253       50.95312910374218
C           44.93038225342141       52.08607000272078       51.80280216413541
C           45.69169817068554       53.22850450550465       51.62370482557506
C           46.61416946176826       53.27507110776270       50.59296519182313
C           46.75569978516017       52.19568643138779       49.73885575537847
H           44.47904431899961       50.12454875254549       51.11789981573852
H           44.20447176025024       52.02929321546883       52.60259304907201
H           45.57830862578361       54.07843538900454       52.28209187569643
H           47.21692257473222       54.16079804175227       50.45049572098482
H           47.47184313553016       52.24640556069799       48.92992889713419
C           47.17564540950858       47.62330629928468       48.53149628051423
H           47.92834702240270       49.18574624106831       49.81560120690406
H           46.47650356635538       48.40089730821926       50.43138807732630
C           48.33825894203000       46.74465125527505       48.89986882944815
C           49.47333130609497       46.70767654347607       48.09931404232004
C           50.54638517390215       45.89601965679629       48.42373701693512
C           50.49448888295595       45.09748787694689       49.55260927734072
C           49.36615345572378       45.12047186924172       50.35515410054733
C           48.30022073586760       45.94209745535440       50.03485834941552
H           49.51990481145202       47.31691844943737       47.20712044959846
H           51.42273732218863       45.88883421556130       47.79060804551764
H           51.32862052158855       44.45855535163118       49.80600670284365
H           49.31899410469805       44.48935078496628       51.23205475531430
H           47.42538444760169       45.95815609350095       50.67044448378411
H           46.67057413426019       50.29050234698329       48.04517142980569
H           46.26775963350434       47.01716504889170       48.48485956893551
H           47.35376137763954       48.04251540490878       47.53839264685793
C           62.17327754094939       63.25670077117462       65.08940714535288
C           62.28054279670970       64.13834596580242       66.15901227832863
C           61.45477210639348       63.94578365172623       67.25983518632702
C           60.55034564358490       62.89828935062800       67.29897310715269
C           60.45537867017807       62.02663942144439       66.22886720650736
C           61.27011128765584       62.21035782451900       65.12509361748734
C           63.31518859689043       65.23537905065565       66.17103808885810
C           64.71433296094405       64.61424107447824       66.24901028030125
C           63.21930718379722       66.16559045263431       64.95513094372349
C           61.87111878867961       66.89228607207818       64.85307500027835
C           61.51738973106693       67.58895674507035       66.14406259218757
C           60.31732650800279       67.31555900684977       66.78782730709051
C           59.98246395656304       67.95618201664961       67.96790726991225
C           60.84542926043473       68.88308499954853       68.52473989026004
C           62.04120390972914       69.17088823959527       67.88859121333957
C           62.37093961765522       68.53115419154501       66.70773530838255
C           61.88352689536809       67.93104273482517       63.71734811629547
C           61.81865666872349       67.32698358361300       62.30224533659239
C           62.40177407775109       68.30303963576775       61.31245276843563
C           63.57978723734337       67.99781359228733       60.64155058261733
C           64.14803017579963       68.89450792757269       59.75385767443205
C           63.54976610314862       70.12259204290395       59.53101763412513
C           62.38074894691253       70.44193531803569       60.20066005174595
C           61.80971191131904       69.53913174353067       61.07905392951574
C           60.37756668894157       66.94437268116137       61.95206225821570
C           60.22618481833872       66.24294683464089       60.59447158751111
C           61.16619177409892       65.06565843012125       60.51054883293525
C           61.00933897353622       63.96126722102198       61.34110674640779
C           61.89139454108956       62.89770842000650       61.27869084066706
C           62.95224816348053       62.92135634031691       60.38883771814347
C           63.11318249706719       64.01066331367089       59.55027676857507
C           62.22512471261422       65.07045989937659       59.61085991111712
C           58.76902035178355       65.78958586440845       60.39256962305432
C           57.80234568996449       66.91823493027121       59.97929676480233
C           56.43458211801939       66.64787406771468       60.55666741265568
C           55.78413376046188       65.44835542849661       60.28878949281425
C           54.53388888141089       65.18769981805617       60.81621173499173
C           53.92019224717260       66.11525734446202       61.64192869377541
C           54.56912103149951       67.30180682673618       61.93699374656642
C           55.80985378608525       67.57142985371715       61.38440425937948
C           57.71943299419866       67.04889564364989       58.44983332103548
C           56.75073087909021       68.15638607378285       58.01522036580207
C           57.14700390736457       69.49733249113893       58.58408839394212
C           56.20253311279134       70.28291248598579       59.23352857121471
C           56.54025597263331       71.52009794088470       59.75291550010590
C           57.83271284690184       71.99861320822734       59.62321625306578
C           58.77853673317203       71.23220187167078       58.96387691887704
C           58.43847187798023       69.99410596918845       58.45011123612584
C           56.63648285534517       68.30652566903242       56.48550866929098
C           56.15083297253696       67.06021059535799       55.72742438756950
C           56.28876078360577       67.26745429720228       54.23807199333768
C           55.59074644481973       68.27537289979207       53.58195197795539
C           55.68713172302595       68.42705100705521       52.21162837583525
C           56.48671731488706       67.57280910853321       51.47118383206681
C           57.19575203052523       66.57329629777337       52.11171902643318
C           57.09419626744191       66.42423500649056       53.48411970512858
C           54.69970326161928       66.67347728707324       56.05479357912244
C           54.41668351574933       65.19691866784569       55.71886550879737
C           52.93920112434927       64.94503618603997       55.57028002574351
C           52.06656632887330       65.17948210869538       56.62674395130779
C           50.71173387893247       64.93810337351682       56.49260705763135