3864
 energy: -5104.088427107869 gnorm: 0.000788722333 xtb: 6.6.1 (8d0f1dd)
C           48.52865683952271       52.27240712044111       60.17176550178274
C           47.17039244532868       52.04144065078944       60.33293133145280
C           46.59863366330850       52.34688287498091       61.56627214612026
C           47.34655588759445       52.88083885659790       62.59696658403719
C           48.70476534587265       53.08727374916167       62.42793579941397
C           49.28956464861405       52.76761643885902       61.21717243145761
C           46.28380145205107       51.45215986957575       59.25412922721917
C           45.21752494565193       52.47245572713709       58.84873886417716
C           47.05779773799698       50.95783346719319       58.02572235193563
C           46.24581255426813       50.08141165350050       57.05444679781120
C           47.08291353376490       49.74681416924759       55.84523119493041
C           48.25413139054235       49.00838833172831       55.95319612202599
C           48.98985749073918       48.67890916150508       54.83089639872007
C           48.56800284810197       49.08610120525208       53.57765371570708
C           47.41131402068110       49.83454617754860       53.45623829087997
C           46.67572201780718       50.15644961573206       54.58236725319172
C           45.74390132767892       48.81282082582553       57.76251366266430
C           45.32518982121820       47.65210608277258       56.84462267508032
C           44.44209966215519       48.10535092102288       55.71157001799826
C           44.72365145886993       47.70540479536455       54.41010182955261
C           43.95106226667295       48.14156007024194       53.34942197041121
C           42.88887518310923       49.00142611832172       53.56993464790953
C           42.58708522320234       49.39449764305154       54.86264113522478
C           43.35090539700413       48.94075298555386       55.92428629143721
C           44.64782797097921       46.58233246386420       57.72046150474650
C           44.54569803182353       45.18699139542283       57.07497653576502
C           44.78640254715766       44.11036454371690       58.10697885468335
C           45.88109734397872       43.26073523693081       58.00216703384023
C           46.10468337589689       42.26946081670464       58.94218615370348
C           45.23308849530991       42.11142291618955       60.00554545031176
C           44.14265392658046       42.95611893982618       60.12664760961089
C           43.92712268102525       43.94885690855936       59.18850889396816
C           43.18741711452309       44.99156237811841       56.39480464323522
C           43.08697843262075       43.65128210267459       55.64864363343383
C           43.94945516533853       43.68602234528741       54.41374771544179
C           45.09989313850405       42.91024043073296       54.34229838790959
C           45.94152293527119       42.98538676679664       53.24722303477680
C           45.62643680124047       43.81588915512698       52.18570732329136
C           44.47698731581092       44.58430515611261       52.23870490492655
C           43.65878918622683       44.53275191014432       53.35232927068999
C           41.60527784583254       43.34825738646698       55.37517273261170
C           41.33337139364061       42.12395532720905       54.48480107257477
C           42.30359625459532       40.98789837965499       54.69007882295467
C           42.91523812475075       40.39519908703452       53.59316320474018
C           43.69846057769261       39.26472510003898       53.74294045574973
C           43.89156749347359       38.71886089118929       54.99884937848232
C           43.31877618470432       39.32235813930319       56.10567401399013
C           42.52382691184646       40.44323039659968       55.95066333219057
C           39.92370754345238       41.55830950740167       54.75181053116789
C           38.75591138136660       42.39609161658398       54.18314610218987
C           37.60996067010065       42.33587629033919       55.16382854249827
C           37.56323913727999       43.27183848149506       56.19250151161229
C           36.56240571136696       43.23587253652559       57.14606198720083
C           35.58430196221299       42.25756727797452       57.08737473099647
C           35.62656436214996       41.31397433992160       56.07636474048483
C           36.63428167590281       41.34810181021657       55.12779559470586
C           38.40434056018201       41.89451125867196       52.78018658295558
C           37.22900103324507       42.58858214979262       52.06947913588468
C           37.01597033203019       41.86642520976147       50.76044671925448
C           35.91381560516126       41.04554879305304       50.56710858535400
C           35.74527328805959       40.35236188941441       49.38022557858953
C           36.68306616359813       40.46433330176849       48.36951522557575
C           37.78477130931029       41.28367310915049       48.54948026087392
C           37.94587851189850       41.98010077030987       49.73227909055556
C           37.45687624677423       44.09002498649946       51.83061024820541
C           36.81570265456970       44.97722201741314       52.90397129435429
C           35.31167514246445       44.86573272524834       52.89849668433212
C           34.62942833683855       44.53561746131169       54.06288474718351
C           33.24663326235049       44.47630304978576       54.08382713564774
C           32.52222600490177       44.74692372445035       52.93597685700332
C           33.19063234189801       45.07137492709657       51.76680279305589
C           34.57235891352576       45.13220660761435       51.75051893171858
C           37.22530284102226       46.44101378017343       52.69063523987813
C           36.89818744098783       47.31247017381763       53.90976321840029
C           37.85350252857393       47.04470099452573       55.04783657900749
C           39.22551815145569       47.20276924494821       54.87453711524480
C           40.09978356456862       47.04352198623009       55.93294895081922
C           39.61420862784079       46.73270834596657       57.19172189573242
C           38.25275941877173       46.57467437421575       57.38078185051224
C           37.38109785315977       46.72566772240966       56.31453184865833
C           36.96135007626605       48.81321686020001       53.56367686847803
C           35.60460949393589       49.47768447301744       53.28120960708534
C           35.86408774347373       50.95415083365842       53.09560535088742
C           36.56317000738490       51.43388008546025       51.99331634059077
C           36.87550951974170       52.77638594203688       51.87843753255746
C           36.49495812506778       53.66686084186930       52.86811783008433
C           35.79404156758450       53.20381681074726       53.96868570450378
C           35.48310795858180       51.85910302452186       54.08019773664320
C           34.88744436628956       48.83464926662824       52.09003971221519
C           33.59972294709947       49.57623913141391       51.71120208751188
C           32.68346969506020       49.70024348869818       52.90417201256111
C           32.23146656897248       48.57290992426348       53.58177623163222
C           31.37806897277568       48.69394273461800       54.66283550672387
C           30.96583780715289       49.94512002223824       55.09022701466966
C           31.41773828803153       51.07378653673457       54.43012993275715
C           32.26742521807814       50.94946851898720       53.34491447187320
C           32.83616394703539       48.88095065666123       50.56887992116838
C           33.68166769215416       48.49819560988447       49.34263504387523
C           32.79436272474017       47.84434318291064       48.31206022252888
C           31.84446470807655       48.57162749082448       47.60491850725380
C           31.03791097893615       47.95750555009778       46.66409611688496
C           31.16457645336488       46.60148817979339       46.41547354355761
C           32.10118874671677       45.86453707251308       47.11834575507785
C           32.90586456744065       46.48292636868729       48.05879596952156
C           34.43901972320819       49.69693694548842       48.76063260187869
C           35.30709977399339       49.33323021778021       47.54353006323115
C           36.09502574921648       48.06977178217417       47.78277630740461
C           37.06136394183831       47.99114774804269       48.77987204639957
C           37.74913942549774       46.81308070911287       49.01329029901463
C           37.47487395036468       45.68743464651045       48.25457962390255
C           36.52841138111948       45.75602361078162       47.24697484997207
C           35.84929901446420       46.93932146480610       47.01239662065681
C           36.22195256855080       50.52213685976433       47.21648046743191
C           37.16754604591703       50.24740421466225       46.04170661730713
C           36.39060982612626       49.83354877667755       44.81578570507112
C           35.46342059926832       50.68937704973975       44.23156709998982
C           34.74378458388301       50.29879117376345       43.11758349423988
C           34.94177181065321       49.04628290598078       42.56071095906623
C           35.86792110337232       48.18906936361818       43.12801523164629
C           36.58329451513035       48.58237056680523       44.24537364243049
C           38.01741698052577       51.48481918760037       45.71405603507075
C           39.12972175683316       51.81019428959915       46.72667613996327
C           39.54127131819450       53.25412655861662       46.56570986288457
C           39.45258019723946       54.14073254902941       47.63143000556927
C           39.77566424109438       55.47855493706931       47.47445231786939
C           40.18375733728161       55.95385783063496       46.24016949343785
C           40.29389618665925       55.07625066606804       45.17521984722933
C           39.98546255626287       53.73936055032578       45.34009568654645
C           40.32780806578041       50.87168324913821       46.54671923864408
C           41.43820029023960       51.09855156354575       47.57797277415320
C           40.95616724546239       50.99793943809276       49.00382621444469
C           41.37275692030601       51.91774679165096       49.95869660599934
C           40.99086800710211       51.79502150662233       51.28425383734897
C           40.17361548965523       50.75086864802788       51.68071362495315
C           39.75207296455922       49.82900679661801       50.73782235995512
C           40.14140405793771       49.94869266873138       49.41604994766681
C           42.56600681285877       50.07221879830389       47.35863732039072
C           43.91239547306557       50.56717681795573       47.91046097547075
C           44.65635336513444       51.35781822657209       46.86382353556608
C           44.99333496538472       52.68835608047585       47.06880447665736
C           45.69550520441668       53.40030619638650       46.11031644533485
C           46.06699799094065       52.78815423293106       44.92710457715170
C           45.73039977159218       51.46268120119388       44.70668593354063
C           45.03639173168271       50.75579722284795       45.66957818192537
C           44.77896204142702       49.40192757366353       48.41413821385169
C           46.15231820330339       49.88588474593023       48.90336254094517
H           45.77199158574125       50.59877204660287       59.71384945426891
H           47.42421311078765       51.82464530112832       57.46968380773275
H           47.92083203576303       50.37854692170719       58.35983372455510
H           45.38057591065142       50.65029102120831       56.70113140962727
H           46.52793090575270       48.44138523679548       58.42808424271584
H           44.88710641459379       49.08625996640709       58.37808796941837
H           46.23138388558141       47.22114926221852       56.40808486626331
H           45.22990301026051       46.49584308698490       58.64217043805984
H           43.65130134650977       46.93293039146296       57.99549496988278
H           45.32011209394506       45.09675520780016       56.30778972878836
H           43.02772853391600       45.81037280507071       55.69142047606078
H           43.47577273427265       42.86671967917688       56.30586006267843
H           41.12306635145980       43.19913343028048       56.34508628981641
H           41.13925098446398       44.22611311263392       54.92183093544795
H           41.40707303615564       42.43165373289716       53.43687813155770
H           39.86368608753493       40.55178639899017       54.33069798576577
H           39.79927744433270       41.45581285761892       55.83240762356785
H           39.08329958157103       43.43759146599389       54.11633919289725
H           39.29640090283863       41.98554765441018       52.15709576897910
H           38.17187752069575       40.82803704975048       52.83813316046242
H           36.32884000530174       42.46979787255061       52.68120375326853
H           37.17620771592723       44.66276300681324       53.88731498399515
H           38.29798814631739       46.48496859693969       52.49255459005763
H           36.71482376572126       46.82735180040522       51.80875662693893
H           35.88501386845380       47.07139860870399       54.24825558005068
H           37.40892742107523       49.34684104584679       54.40332457903367
H           37.61755714301248       48.96006203672119       52.70480468538079
H           34.97007849130752       49.35776452496462       54.16559772651777
H           35.56226907917601       48.82236495977723       51.23509810292190
H           34.64331051860542       47.80105059134161       52.33782018826052
H           33.86777095703921       50.58767936585472       51.38780367918293
H           32.38100695266777       47.96576069317610       50.95409611111310
H           32.02331727417865       49.54060459758033       50.25555520577394
H           34.41579419426402       47.75166492605813       49.66020484962459
H           33.73582489850821       50.47845049672853       48.46779744471997
H           35.08192777800200       50.11878779312234       49.53326518216584
H           34.64674157562303       49.15517905489062       46.68796011207146
H           35.59919938215847       51.39079999390054       46.99137148630707
H           36.81627938307797       50.77026263264712       48.09780781257582
H           37.82816845540404       49.41954061567730       46.32002131345786
H           38.47120829095192       51.33450067535679       44.73131504466073
H           37.35094829611599       52.34663326797496       45.64489896291048
H           38.73838503580790       51.68237132261233       47.74019817112807
H           39.98966099319681       49.83526059211424       46.59310059735917
H           40.75870581479359       51.02597053506561       45.55592279137646
H           41.84710018039277       52.10250910514883       47.41542558291185
H           42.28613397813363       49.13737627155973       47.84796686472783
H           42.65915616296834       49.86163015930735       46.29167772742202
H           49.02113500547170       52.05483574527598       59.23746299510844
H           50.35187358162127       52.88688127701968       61.07764952059924
H           49.30264511753186       53.48538584538118       63.23622701669473
H           46.86537742684893       53.11835425888055       63.53414231495013
H           45.54887993075196       52.15732410000975       61.73710565452900
H           48.59801558564862       48.67422100478470       56.92044383581862
H           49.89172654377523       48.09641180392499       54.94305934228824
H           49.13341064288799       48.82327923419249       52.69551322002430
H           47.07646540457799       50.16685124805037       52.48422770720301
H           45.76277548653070       50.72381627829930       54.47520765017793
H           45.56412573814103       47.05275927990053       54.22186876924140
H           44.18536742142367       47.81120887771712       52.34771564487311
H           42.29963645347579       49.37151639588894       52.74208660455780
H           41.75344584266961       50.05653850490774       55.04895558763812
H           43.09013913591960       49.25228249211865       56.92578731321606
H           46.56501932363641       43.37609663265691       57.17268134792122
H           46.96301690163600       41.62013311964795       58.84511414474831
H           45.40043713260868       41.33354833787406       60.73622056542009
H           43.45123779622025       42.83692018106571       60.94987393766336
H           43.07422941423356       44.60098519312544       59.30100423960058
H           42.39723078771932       45.03486839017651       57.14746080413823
H           45.34533822698761       42.24440661084810       55.15771171012096
H           46.84761399918455       42.39858953294517       53.23148691192323
H           46.27777356512498       43.86716735192078       51.32435679085398
H           44.21577620670950       45.23430187193756       51.41485000506633
H           42.78959348358347       45.16934542229448       53.39451314497686
H           42.76788436783565       40.80689135490414       52.60502475258862
H           44.13718112714518       38.80320422563955       52.87078195813108
H           44.47248653599178       37.81495599036243       55.11430217824860
H           43.47726429605093       38.90774775610557       57.09102318557181
H           42.06067016686647       40.88780238178792       56.81960932412704
H           38.32171316872952       44.04087634285546       56.24531074698632
H           36.54369095754168       43.97578982246424       57.93321934639120
H           34.79701150290536       42.22952709454642       57.82632447304844
H           34.87170036595732       40.54256930507189       56.02655587094808
H           36.65318800826036       40.59118491576586       54.35893804044852
H           35.17784272032691       40.95171404785355       51.35383215291082
H           34.87909851917627       39.72095110078512       49.24469997454096
H           36.55789974390949       39.91826601106738       47.44602345033933
H           38.52722654831618       41.36953207974706       47.76825812632055
H           38.80469104595874       42.62284371907963       49.85872211295431
H           38.52639047044010       44.29779494083939       51.79097643968772
H           37.04117144410240       44.36298021048415       50.85854666989484
H           35.18772460876442       44.32052547707796       54.96297292265456
H           32.73541322837710       44.21946744642154       55.00038108108109
H           31.44276340598588       44.70577334632544       52.94948545218151
H           32.63134240192708       45.28232808880564       50.86600645607582
H           35.07826609184136       45.39046049552906       50.83030052582450
H           39.62007443434427       47.48157957775806       53.90841951848298
H           41.15840354360654       47.18968202901008       55.77932858750051
H           40.29650379331137       46.63220349533493       58.02219339766963
H           37.86534022202955       46.34054937527458       58.36206639811972
H           36.31883178165175       46.60513869534945       56.47255230613536
H           36.88262641785745       50.75368859999127       51.21738658762229
H           37.43095088227111       53.12487360165834       51.01854560205388
H           36.74493509210996       54.71446593971500       52.78633390079658
H           35.49913004575382       53.89281061829438       54.74730695417786
H           34.94427629803090       51.50323871840441       54.94768660726499
H           32.54524618240518       47.58778641540360       53.26652104255781
H           31.03210356160307       47.80491978958107       55.17139638775193
H           30.29606253442821       50.04072220271484       55.93255451723652
H           31.10581813246505       52.05440706032469       54.75934042183549
H           32.61670233566813       51.83622711502166       52.83429594650001
H           31.73097754215172       49.63049757197361       47.78619962887205
H           30.30683698994624       48.53981993305196       46.12181928213896
H           30.53556854894514       46.12322237026682       45.67900843575241
H           32.20965533066395       44.80554640603334       46.93322628496360
H           33.63997683010454       45.89894769307556       48.59601069044176
H           37.27892901372626       48.86194290543028       49.38106265301334
H           38.50262964240414       46.76502964506454       49.78664212278087
H           37.99531647443944       44.76149268688287       48.44971915542282
H           36.31477742819418       44.88585183687670       46.64356161845201
H           35.11006456402352       46.98338830733179       46.22531188324817
H           35.29335203624303       51.66774608980871       44.65648692000019
H           34.01657819915778       50.97223595168455       42.68648915862331
H           34.37642862949799       48.74123052932089       41.69238673379588
H           36.02722608365071       47.20661276908795       42.70838857292665
H           37.28875099357299       47.89621059690398       44.69305108334401
H           39.12859137491692       53.78052663923837       48.59833435786138
H           39.70499751960050       56.14587695862640       48.32278893351480
H           40.42796930597262       56.99690384898278       46.10397671436944
H           40.62857446052921       55.43253874782680       44.21209778562415
H           40.09177825919539       53.07121174273507       44.49954134029568
H           42.00527169210790       52.74135887245725       49.65563195374490
H           41.33279741112844       52.51177711103755       52.01716679648618
H           39.86856637943302       50.65948499959313       52.71368206397229
H           39.12418293000785       48.99978177057668       51.03297406927737
H           39.80216995314634       49.21301844157341       48.70145258086340
H           44.78718028068753       49.72104415883513       45.48620854574794
H           45.99739054180247       50.97657229139658       43.78119075796659
H           46.61329303236949       53.34429239819555       44.17909658175101
H           45.94838644553943       54.43517711973144       46.28558135866300
H           44.71288111465662       53.17272293068405       47.99283507484627
H           45.66705488477797       53.29012193013624       58.28881638393851
H           44.46434915307352       51.99503569892965       58.22614012628789
H           44.72523143952569       52.88799156276323       59.72519478655335
H           43.71329424557019       51.22040468336181       48.76517026619465
H           44.25339380701855       48.89059532924761       49.22362724840153
H           44.91876814843286       48.68481959275663       47.60406165058777
C           46.99407347234955       48.74997219836492       49.50910626020103
C           46.01897366911491       51.02658915624630       49.88399857069746
C           45.10709425415537       50.98932780418902       50.93349186448866
C           44.95311548071889       52.07537690323137       51.77703773815836
C           45.72151564240479       53.21337096376418       51.59942195112129
C           46.65472214640243       53.25013253918583       50.57789729674163
C           46.79848381929370       52.16654190113212       49.72937541438786
H           44.49810996297501       50.11300673221952       51.09594017756175
H           44.21957941441708       52.02460645062663       52.56972347243263
H           45.60586717790048       54.06702243769144       52.25185922109166
H           47.26339897250904       54.13128246269093       50.43753132360990
H           47.52184727906511       52.20860354556828       48.92712506710518
C           47.20010514400537       47.59574701186435       48.51708584116707
H           47.96799541828650       49.16282577811546       49.78686637459602
H           46.52158073716575       48.38111102889791       50.42188644629849
C           48.39025891462028       46.73837996449174       48.84846556571534
C           49.48794342804068       46.70606406766957       47.99712501673747
C           50.58651867945967       45.91400927987244       48.28265454418830
C           50.59701963480042       45.13002584851249       49.42305598039773
C           49.50674123164614       45.14973864431250       50.27722030175843
C           48.41539482627206       45.95257194459413       49.99569358670521
H           49.48488350613908       47.30347811216538       47.09607703539342
H           51.43173729700938       45.91253580602122       47.60893377931096
H           51.45000201750725       44.50498124268859       49.64452100335568
H           49.50887679906059       44.53150621263798       51.16378348921334
H           47.57063092654010       45.96762850325397       50.67029306903872
H           46.69820252123875       50.26558964673791       48.03100931927454
H           46.30076653047028       46.97467011507034       48.50227687844913
H           47.33837700111852       48.01124499644456       47.51578227469321
C           62.12786572696748       63.28664027663917       65.06549707251432
C           62.24225496702827       64.15941417008058       66.14152975797715
C           61.42112478359716       63.96049790764908       67.24468334180978
C           60.51397028611607       62.91537838379354       67.27968998578652
C           60.41118205036734       62.05278497237946       66.20291363298237
C           61.22151845165610       62.24289430035289       65.09698080642647
C           63.28156915030372       65.25190749282920       66.15900745753636
C           64.67634602765321       64.62258900194382       66.24289445960646
C           63.19657765687961       66.18378515626202       64.94381974943819
C           61.84775172527991       66.90796716932763       64.83059330646989
C           61.48455186876668       67.60222217217998       66.12038563427457
C           60.29265554778319       67.30723306252214       66.76952520123815
C           59.95264470133646       67.94270573193575       67.95097822575198
C           60.80160837104975       68.88544755483736       68.50222685699595
C           61.98865960868184       69.19432871163681       67.86030685099612
C           62.32434429843516       68.55947442574106       66.67873801324579
C           61.86770572365718       67.94411391754311       63.69279634973880
C           61.80340986475248       67.33511730051433       62.28014900344942
C           62.37869560794297       68.30847583711949       61.28291207955499
C           63.56018104040245       68.00674615260155       60.61687595941110
C           64.12054593651658       68.89913887034923       59.72013420928165
C           63.51041187879036       70.11844844193007       59.48333060080569
C           62.33780726678059       70.43394408783732       60.14796868742054
C           61.77454181775074       69.53596344120461       61.03623972533115
C           60.36351883656805       66.94416777464899       61.93495251910646
C           60.21199474366330       66.24634970889306       60.57570141051850
C           61.15578825864130       65.07262805425472       60.48538988104760
C           61.00335653323010       63.96409902917388       61.31125330469290
C           61.88984037694667       62.90437024966825       61.24370998835609
C           62.95012329831835       62.93684032375963       60.35353502070423
C           63.10589662561787       64.03006361438376       59.51925838899951
C           62.21370935911542       65.08585625582579       59.58455298880339
C           58.75559392725113       65.78980464310479       60.37632054827843
C           57.78825864861910       66.91763219955735       59.96221446449762
C           56.42292368278381       66.65133342004358       60.54708760119379
C           55.77213234575472       65.44964745268932       60.28993875810173
C           54.52558331010584       65.19071994862922       60.82702330880513
C           53.91683558877782       66.12231876045462       61.65194929832837
C           54.56665103909453       67.31103429038930       61.93647578309641
C           55.80306405377197       67.57921902050677       61.37380376476696
C           57.70108326885680       67.04200595494756       58.43249336990046
C           56.72185779603790       68.13911487010617       57.99494523021727
C           57.09416996948242       69.48418719669888       58.57099672265653
C           56.12322157823567       70.26204242850078       59.18956854413923
C           56.43459100479988       71.50196055881156       59.71824773115605
C           57.72674081126865       71.98975893591113       59.62886247634794
C           58.69856784027630       71.23107672954396       58.99965061218164
C           58.38514797857834       69.99017454144409       58.47548306552832
C           56.61504912308080       68.28877505803293       56.46481090717081
C           56.13874949259062       67.03847621491322       55.70762419149612
C           56.28111667525449       67.23633749240474       54.21714610261836
C           55.57708583110146       68.23360306829930       53.55165720270885
C           55.67293386410320       68.37157820395677       52.17990127096814
C           56.47897066975260       67.51535112478871       51.44898286551113
C           57.19632116783259       66.52840639801119       52.09945540768399
C           57.09430106527252       66.39179732211549       53.47320653413251
C           54.68725263929237       66.64842626893407       56.03091736438678
C           54.41066595345204       65.16919971792404       55.70277808443008
C           52.93429288223452       64.90578477224432       55.56239459367978
C           52.06474032891237       65.14985838276930       56.61917356430540
C           50.71151123458369       64.89508787119253       56.49532570706512