      -----------------------------------------------------------      
     |                   =====================                   |     
     |                           x T B                           |     
     |                   =====================                   |     
     |                         S. Grimme                         |     
     |          Mulliken Center for Theoretical Chemistry        |     
     |                    University of Bonn                     |     
      -----------------------------------------------------------      

   * xtb version 6.6.1 (8d0f1dd) compiled by 'stahn@M-Bot' on 2023-08-01

   xtb is free software: you can redistribute it and/or modify it under
   the terms of the GNU Lesser General Public License as published by
   the Free Software Foundation, either version 3 of the License, or
   (at your option) any later version.
   
   xtb is distributed in the hope that it will be useful,
   but WITHOUT ANY WARRANTY; without even the implied warranty of
   MERCHANTABILITY or FITNESS FOR A PARTICULAR PURPOSE.  See the
   GNU Lesser General Public License for more details.
   
   Cite this work as:
   * C. Bannwarth, E. Caldeweyher, S. Ehlert, A. Hansen, P. Pracht,
     J. Seibert, S. Spicher, S. Grimme, WIREs Comput. Mol. Sci., 2020, 11,
     e01493. DOI: 10.1002/wcms.1493
   
   for GFN2-xTB:
   * C. Bannwarth, S. Ehlert and S. Grimme., J. Chem. Theory Comput., 2019,
     15, 1652-1671. DOI: 10.1021/acs.jctc.8b01176
   for GFN1-xTB:
   * S. Grimme, C. Bannwarth, P. Shushkov, J. Chem. Theory Comput., 2017,
     13, 1989-2009. DOI: 10.1021/acs.jctc.7b00118
   for GFN0-xTB:
   * P. Pracht, E. Caldeweyher, S. Ehlert, S. Grimme, ChemRxiv, 2019, preprint.
     DOI: 10.26434/chemrxiv.8326202.v1
   for GFN-FF:
   * S. Spicher and S. Grimme, Angew. Chem. Int. Ed., 2020, 59, 15665-15673.
     DOI: 10.1002/anie.202004239
   
   for ALPB and GBSA implicit solvation:
   * S. Ehlert, M. Stahn, S. Spicher, S. Grimme, J. Chem. Theory Comput.,
     2021, 17, 4250-4261. DOI: 10.1021/acs.jctc.1c00471
   
   for DFT-D4:
   * E. Caldeweyher, C. Bannwarth and S. Grimme, J. Chem. Phys., 2017,
     147, 034112. DOI: 10.1063/1.4993215
   * E. Caldeweyher, S. Ehlert, A. Hansen, H. Neugebauer, S. Spicher,
     C. Bannwarth and S. Grimme, J. Chem. Phys., 2019, 150, 154122.
     DOI: 10.1063/1.5090222
   * E. Caldeweyher, J.-M. Mewes, S. Ehlert and S. Grimme, Phys. Chem. Chem. Phys.
     2020, 22, 8499-8512. DOI: 10.1039/D0CP00502A
   
   for sTDA-xTB:
   * S. Grimme and C. Bannwarth, J. Chem. Phys., 2016, 145, 054103.
     DOI: 10.1063/1.4959605
   
   in the mass-spec context:
   * V. Asgeirsson, C. Bauer and S. Grimme, Chem. Sci., 2017, 8, 4879.
     DOI: 10.1039/c7sc00601b
   * J. Koopman and S. Grimme, ACS Omega 2019, 4, 12, 15120-15133.
     DOI: 10.1021/acsomega.9b02011
   
   for metadynamics refer to:
   * S. Grimme, J. Chem. Theory Comput., 2019, 155, 2847-2862
     DOI: 10.1021/acs.jctc.9b00143
   
   for SPH calculations refer to:
   * S. Spicher and S. Grimme, J. Chem. Theory Comput., 2021, 17, 1701-1714
     DOI: 10.1021/acs.jctc.0c01306
   
   with help from (in alphabetical order)
   P. Atkinson, C. Bannwarth, F. Bohle, G. Brandenburg, E. Caldeweyher
   M. Checinski, S. Dohm, S. Ehlert, S. Ehrlich, I. Gerasimov, C. Hölzer
   A. Katbashev, J. Koopman, C. Lavigne, S. Lehtola, F. März, M. Müller,
   F. Musil, H. Neugebauer, J. Pisarek, C. Plett, P. Pracht, F. Pultar,
   J. Seibert, P. Shushkov, S. Spicher, M. Stahn, M. Steiner, T. Strunk,
   J. Stückrath, T. Rose, and J. Unsleber
   
 * started run on 2024/10/04 at 20:53:46.227     

           -------------------------------------------------
          |                Calculation Setup                |
           -------------------------------------------------

          program call               : /home/abt-grimme/AK-bin/xtb input.xyz --input input.inp --opt
          hostname                   : boar072.thch.uni-bonn.de
          coordinate file            : input.xyz
          omp threads                :                     8

   ID    Z sym.   atoms
    1    6 C      1-146, 294-300, 306, 309-314, 323-468, 616-622, 628,
                  631-636, 645-790, 938-944, 950, 953-958, 967-1112,
                  1260-1266, 1272, 1275-1280, 1289-1434, 1582-1588, 1594,
                  1597-1602, 1611-1756, 1904-1910, 1916, 1919-1924,
                  1933-2078, 2226-2232, 2238, 2241-2246, 2255-2400,
                  2548-2554, 2560, 2563-2568, 2577-2722, 2870-2876, 2882,
                  2885-2890, 2899-3044, 3192-3198, 3204, 3207-3212,
                  3221-3366, 3514-3520, 3526, 3529-3534, 3543-3688,
                  3836-3842, 3848, 3851-3856
    2    1 H      147-293, 301-305, 307, 308, 315-322, 469-615, 623-627, 629,
                  630, 637-644, 791-937, 945-949, 951, 952, 959-966,
                  1113-1259, 1267-1271, 1273, 1274, 1281-1288, 1435-1581,
                  1589-1593, 1595, 1596, 1603-1610, 1757-1903, 1911-1915,
                  1917, 1918, 1925-1932, 2079-2225, 2233-2237, 2239, 2240,
                  2247-2254, 2401-2547, 2555-2559, 2561, 2562, 2569-2576,
                  2723-2869, 2877-2881, 2883, 2884, 2891-2898, 3045-3191,
                  3199-3203, 3205, 3206, 3213-3220, 3367-3513, 3521-3525,
                  3527, 3528, 3535-3542, 3689-3835, 3843-3847, 3849, 3850,
                  3857-3864

molecular fragmentation (1/2 indicates fragments):
111111111111111111111111111111111111111111111111111111111111111111111111
111111111111111111111111111111111111111111111111111111111111111111111111
111111111111111111111111111111111111111111111111111111111111111111111111
111111111111111111111111111111111111111111111111111111111111111111111111
111111111111111111111111111111111122222222222222222222222222222222222222
222222222222222222222222222222222222222222222222222222222222222222222222
222222222222222222222222222222222222222222222222222222222222222222222222
222222222222222222222222222222222222222222222222222222222222222222222222
222222222222222222222222222222222222222222222222222222222222222222222222
222222222222222222222222222222222222222222222222222222222222222222222222
222222222222222222222222222222222222222222222222222222222222222222222222
222222222222222222222222222222222222222222222222222222222222222222222222
222222222222222222222222222222222222222222222222222222222222222222222222
222222222222222222222222222222222222222222222222222222222222222222222222
222222222222222222222222222222222222222222222222222222222222222222222222
222222222222222222222222222222222222222222222222222222222222222222222222
222222222222222222222222222222222222222222222222222222222222222222222222
222222222222222222222222222222222222222222222222222222222222222222222222
222222222222222222222222222222222222222222222222222222222222222222222222
222222222222222222222222222222222222222222222222222222222222222222222222
222222222222222222222222222222222222222222222222222222222222222222222222
222222222222222222222222222222222222222222222222222222222222222222222222
222222222222222222222222222222222222222222222222222222222222222222222222
222222222222222222222222222222222222222222222222222222222222222222222222
222222222222222222222222222222222222222222222222222222222222222222222222
222222222222222222222222222222222222222222222222222222222222222222222222
222222222222222222222222222222222222222222222222222222222222222222222222
222222222222222222222222222222222222222222222222222222222222222222222222
222222222222222222222222222222222222222222222222222222222222222222222222
222222222222222222222222222222222222222222222222222222222222222222222222
222222222222222222222222222222222222222222222222222222222222222222222222
222222222222222222222222222222222222222222222222222222222222222222222222
222222222222222222222222222222222222222222222222222222222222222222222222
222222222222222222222222222222222222222222222222222222222222222222222222
222222222222222222222222222222222222222222222222222222222222222222222222
222222222222222222222222222222222222222222222222222222222222222222222222
222222222222222222222222222222222222222222222222222222222222222222222222
222222222222222222222222222222222222222222222222222222222222222222222222
222222222222222222222222222222222222222222222222222222222222222222222222
222222222222222222222222222222222222222222222222222222222222222222222222
222222222222222222222222222222222222222222222222222222222222222222222222
222222222222222222222222222222222222222222222222222222222222222222222222
222222222222222222222222222222222222222222222222222222222222222222222222
222222222222222222222222222222222222222222222222222222222222222222222222
222222222222222222222222222222222222222222222222222222222222222222222222
222222222222222222222222222222222222222222222222222222222222222222222222
222222222222222222222222222222222222222222222222222222222222222222222222
222222222222222222222222222222222222222222222222222222222222222222222222
222222222222222222222222222222222222222222222222222222222222222222222222
222222222222222222222222222222222222222222222222222222222222222222222222
222222222222222222222222222222222222222222222222222222222222222222222222
222222222222222222222222222222222222222222222222222222222222222222222222
222222222222222222222222222222222222222222222222222222222222222222222222
222222222222222222222222222222222222222222222222
# atoms in fragment 1/2:   322  3542
 fragment masses (1/2) :     2085.00    22935.05
CMA distance (Bohr)    :  19.816
constraining FC (au)   :  0.0500

           -------------------------------------------------
          |                 G F N 2 - x T B                 |
           -------------------------------------------------

        Reference                      10.1021/acs.jctc.8b01176
      * Hamiltonian:
        H0-scaling (s, p, d)           1.850000    2.230000    2.230000
        zeta-weighting                 0.500000
      * Dispersion:
        s8                             2.700000
        a1                             0.520000
        a2                             5.000000
        s9                             5.000000
      * Repulsion:
        kExp                           1.500000    1.000000
        rExp                           1.000000
      * Coulomb:
        alpha                          2.000000
        third order                    shell-resolved
        anisotropic                    true
        a3                             3.000000
        a5                             4.000000
        cn-shift                       1.200000
        cn-exp                         4.000000
        max-rad                        5.000000


          ...................................................
          :                      SETUP                      :
          :.................................................:
          :  # basis functions                9624          :
          :  # atomic orbitals                9624          :
          :  # shells                         5784          :
          :  # electrons                      9624          :
          :  max. iterations                   250          :
          :  Hamiltonian                  GFN2-xTB          :
          :  restarted?                      false          :
          :  GBSA solvation                  false          :
          :  PC potential                    false          :
          :  electronic temp.          300.0000000     K    :
          :  accuracy                    1.0000000          :
          :  -> integral cutoff          0.2500000E+02      :
          :  -> integral neglect         0.1000000E-07      :
          :  -> SCF convergence          0.1000000E-05 Eh   :
          :  -> wf. convergence          0.1000000E-03 e    :
          :  Broyden damping             0.4000000          :
          ...................................................

 iter      E             dE          RMSdq      gap      omega  full diag
   1  -5195.7350766 -0.519574E+04  0.369E+00    4.32       0.0  T
   2  -5198.2957837 -0.256071E+01  0.218E+00    4.28       1.0  T
   3  -5198.2321592  0.636244E-01  0.492E-01    4.07       1.0  T
   4  -5198.4344484 -0.202289E+00  0.240E-01    3.97       1.0  T
   5  -5198.5811810 -0.146733E+00  0.452E-02    4.05       1.0  T
   6  -5198.5828023 -0.162131E-02  0.277E-02    4.04       1.0  T
   7  -5198.5838298 -0.102753E-02  0.109E-02    4.05       1.0  T
   8  -5198.5841471 -0.317248E-03  0.287E-03    4.05       1.0  T
   9  -5198.5841647 -0.176312E-04  0.124E-03    4.05       1.3  T
  10  -5198.5841664 -0.173398E-05  0.530E-04    4.05       3.0  T
  11  -5198.5841667 -0.272352E-06  0.283E-04    4.05       5.7  T
  12  -5198.5841669 -0.170692E-06  0.992E-05    4.05      16.2  T

   *** convergence criteria satisfied after 12 iterations ***

         #    Occupation            Energy/Eh            Energy/eV
      -------------------------------------------------------------
         1        2.0000           -0.6503262             -17.6963
       ...           ...                  ...                  ...
      4806        2.0000           -0.3815514             -10.3825
      4807        2.0000           -0.3815348             -10.3821
      4808        2.0000           -0.3814269             -10.3792
      4809        2.0000           -0.3814189             -10.3789
      4810        2.0000           -0.3813110             -10.3760
      4811        2.0000           -0.3811827             -10.3725
      4812        2.0000           -0.3768409             -10.2544 (HOMO)
      4813                         -0.2279720              -6.2034 (LUMO)
      4814                         -0.2277304              -6.1969
      4815                         -0.2274099              -6.1881
      4816                         -0.2268197              -6.1721
      4817                         -0.2262421              -6.1564
       ...                                ...                  ...
      9624                          0.6845447              18.6274
      -------------------------------------------------------------
                  HL-Gap            0.1488689 Eh            4.0509 eV
             Fermi-level           -0.3024064 Eh           -8.2289 eV

 SCC (total)                   0 d,  0 h, 44 min, 36.170 sec
 SCC setup                      ...        0 min,  0.713 sec (  0.027%)
 Dispersion                     ...        0 min,  6.846 sec (  0.256%)
 classical contributions        ...        0 min,  0.153 sec (  0.006%)
 integral evaluation            ...        0 min, 13.939 sec (  0.521%)
 iterations                     ...       39 min, 12.259 sec ( 87.896%)
 molecular gradient             ...        4 min, 37.852 sec ( 10.382%)
 printout                       ...        0 min, 24.409 sec (  0.912%)

         :::::::::::::::::::::::::::::::::::::::::::::::::::::
         ::                     SUMMARY                     ::
         :::::::::::::::::::::::::::::::::::::::::::::::::::::
         :: total energy           -5104.081390421805 Eh    ::
         :: gradient norm              0.020747956631 Eh/a0 ::
         :: HOMO-LUMO gap              4.050929129351 eV    ::
         ::.................................................::
         :: SCC energy             -5198.584166891864 Eh    ::
         :: -> isotropic ES            0.263977219738 Eh    ::
         :: -> anisotropic ES          0.781094148628 Eh    ::
         :: -> anisotropic XC          3.253703262540 Eh    ::
         :: -> dispersion             -7.016628456450 Eh    ::
         :: repulsion energy          93.356879592503 Eh    ::
         :: add. restraining           0.000000000000 Eh    ::
         :: total charge              -0.000000000031 e     ::
         :::::::::::::::::::::::::::::::::::::::::::::::::::::

      ----------------------------------------------------------- 
     |              Fast Inertial Relaxation Engine              |
      ----------------------------------------------------------- 

          ...................................................
          :                      SETUP                      :
          :.................................................:
          :   energy convergence        0.5000000E-05 Eh    :
          :   grad. convergence         0.1000000E-02 Eh/a0 :
          :   optimization log               true           :
          :   writing optlog all                1     steps :
          :   Hessian reset                    20     steps :
          :   time step scaling                 5     steps :
          :   maximium step len.        1.0000000     a0    :
          :   initial time step         0.2500000     fs    :
          :   maximum time step         1.2500000     fs    :
          :   power reset thr           0.0000000     au    :
          :   alpha parameter           0.1000000           :
          :   BFGS update                   false           :
          :   preconditioning               false           :
          ...................................................

........................................................................
.............................. CYCLE    1 ..............................
........................................................................

 iter      E             dE          RMSdq      gap      omega  full diag
   1  -5198.5853703 -0.519859E+04  0.289E-04    4.05       0.0  T
   2  -5198.5853703 -0.132331E-07  0.179E-04    4.05       9.0  T
   3  -5198.5853703  0.256896E-07  0.783E-05    4.05      20.6  T
     SCC iter.                  ...        9 min, 53.286 sec
     gradient                   ...        4 min, 38.375 sec
 * total energy  : -5104.0814392 Eh     change    :  -0.4879934E-04 Eh
   gradient norm :     0.0194162 Eh/a0  converged?    E=F G=F D=F
   time step     :     0.2500000 fs     power     :   0.2503768E-08
   step length   :     0.0024316 a0     speed     :   0.2352719E-03

........................................................................
.............................. CYCLE    2 ..............................
........................................................................

 iter      E             dE          RMSdq      gap      omega  full diag
   1  -5198.5871517 -0.519859E+04  0.423E-04    4.05       0.0  T
   2  -5198.5871517 -0.256332E-07  0.260E-04    4.05       6.2  T
   3  -5198.5871517  0.368382E-07  0.956E-05    4.05      16.8  T
     SCC iter.                  ...        9 min, 51.467 sec
     gradient                   ...        4 min, 38.909 sec
 * total energy  : -5104.0815050 Eh     change    :  -0.6577685E-04 Eh
   gradient norm :     0.0175386 Eh/a0  converged?    E=F G=F D=F
   time step     :     0.2500000 fs     power     :   0.3307031E-08
   step length   :     0.0035686 a0     speed     :   0.3452854E-03

........................................................................
.............................. CYCLE    3 ..............................
........................................................................

 iter      E             dE          RMSdq      gap      omega  full diag
   1  -5198.5894931 -0.519859E+04  0.544E-04    4.05       0.0  T
   2  -5198.5894931 -0.396813E-07  0.334E-04    4.05       4.8  T
   3  -5198.5894930  0.558102E-07  0.115E-04    4.05      14.0  T
     SCC iter.                  ...        9 min, 47.332 sec
     gradient                   ...        4 min, 35.719 sec
 * total energy  : -5104.0815797 Eh     change    :  -0.7474454E-04 Eh
   gradient norm :     0.0153059 Eh/a0  converged?    E=F G=F D=F
   time step     :     0.2500000 fs     power     :   0.3674221E-08
   step length   :     0.0045920 a0     speed     :   0.4443002E-03

........................................................................
.............................. CYCLE    4 ..............................
........................................................................

 iter      E             dE          RMSdq      gap      omega  full diag
   1  -5198.5923748 -0.519859E+04  0.647E-04    4.05       0.0  T
   2  -5198.5923749 -0.526898E-07  0.398E-04    4.05       4.0  T
   3  -5198.5923748  0.837590E-07  0.136E-04    4.05      11.8  T
     SCC iter.                  ...        9 min, 50.725 sec
     gradient                   ...        4 min, 37.008 sec
 * total energy  : -5104.0816552 Eh     change    :  -0.7548382E-04 Eh
   gradient norm :     0.0129767 Eh/a0  converged?    E=F G=F D=F
   time step     :     0.2500000 fs     power     :   0.3612065E-08
   step length   :     0.0054735 a0     speed     :   0.5295866E-03

........................................................................
.............................. CYCLE    5 ..............................
........................................................................

 iter      E             dE          RMSdq      gap      omega  full diag
   1  -5198.5957737 -0.519860E+04  0.730E-04    4.05       0.0  T
   2  -5198.5957737 -0.620794E-07  0.451E-04    4.05       3.6  T
   3  -5198.5957736  0.121461E-06  0.158E-04    4.05      10.2  T
     SCC iter.                  ...        9 min, 48.546 sec
     gradient                   ...        4 min, 38.743 sec
 * total energy  : -5104.0817245 Eh     change    :  -0.6925080E-04 Eh
   gradient norm :     0.0108777 Eh/a0  converged?    E=F G=F D=F
   time step     :     0.2500000 fs     power     :   0.3207873E-08
   step length   :     0.0061904 a0     speed     :   0.5989581E-03

........................................................................
.............................. CYCLE    6 ..............................
........................................................................

 iter      E             dE          RMSdq      gap      omega  full diag
   1  -5198.6000849 -0.519860E+04  0.875E-04    4.05       0.0  T
   2  -5198.6000849 -0.829450E-07  0.545E-04    4.05       3.0  T
   3  -5198.6000847  0.226799E-06  0.207E-04    4.05       7.8  T
     SCC iter.                  ...        9 min, 50.367 sec
     gradient                   ...        4 min, 38.857 sec
 * total energy  : -5104.0817884 Eh     change    :  -0.6387439E-04 Eh
   gradient norm :     0.0092173 Eh/a0  converged?    E=F G=F D=F
   time step     :     0.2750000 fs     power     :   0.2534502E-08
   step length   :     0.0074595 a0     speed     :   0.6561313E-03

........................................................................
.............................. CYCLE    7 ..............................
........................................................................

 iter      E             dE          RMSdq      gap      omega  full diag
   1  -5198.6053872 -0.519861E+04  0.101E-03    4.05       0.0  T
   2  -5198.6053873 -0.100550E-06  0.636E-04    4.05       2.5  T
   3  -5198.6053869  0.383594E-06  0.263E-04    4.05       6.1  T
     SCC iter.                  ...        9 min, 49.135 sec
     gradient                   ...        4 min, 38.555 sec
 * total energy  : -5104.0818414 Eh     change    :  -0.5308094E-04 Eh
   gradient norm :     0.0083756 Eh/a0  converged?    E=F G=F D=F
   time step     :     0.3025000 fs     power     :   0.1753321E-08
   step length   :     0.0086796 a0     speed     :   0.6940518E-03

........................................................................
.............................. CYCLE    8 ..............................
........................................................................

 iter      E             dE          RMSdq      gap      omega  full diag
   1  -5198.6116024 -0.519861E+04  0.112E-03    4.05       0.0  T
   2  -5198.6116025 -0.115953E-06  0.712E-04    4.05       2.3  T
   3  -5198.6116020  0.559567E-06  0.318E-04    4.05       5.1  T
     SCC iter.                  ...        9 min, 52.070 sec
     gradient                   ...        4 min, 38.494 sec
 * total energy  : -5104.0818817 Eh     change    :  -0.4030281E-04 Eh
   gradient norm :     0.0081690 Eh/a0  converged?    E=F G=F D=F
   time step     :     0.3327500 fs     power     :   0.1059997E-08
   step length   :     0.0097220 a0     speed     :   0.7067321E-03

........................................................................
.............................. CYCLE    9 ..............................
........................................................................

 iter      E             dE          RMSdq      gap      omega  full diag
   1  -5198.6184346 -0.519862E+04  0.120E-03    4.05       0.0  T
   2  -5198.6184348 -0.133598E-06  0.763E-04    4.06       2.1  T
   3  -5198.6184341  0.654322E-06  0.353E-04    4.05       4.6  T
     SCC iter.                  ...        9 min, 47.699 sec
     gradient                   ...        4 min, 38.771 sec
 * total energy  : -5104.0819103 Eh     change    :  -0.2858212E-04 Eh
   gradient norm :     0.0080018 Eh/a0  converged?    E=F G=F D=F
   time step     :     0.3660250 fs     power     :   0.5371277E-09
   step length   :     0.0105285 a0     speed     :   0.6957776E-03

........................................................................
.............................. CYCLE   10 ..............................
........................................................................

 iter      E             dE          RMSdq      gap      omega  full diag
   1  -5198.6253790 -0.519863E+04  0.125E-03    4.05       0.0  T
   2  -5198.6253792 -0.151603E-06  0.787E-04    4.06       2.0  T
   3  -5198.6253786  0.627430E-06  0.362E-04    4.06       4.4  T
     SCC iter.                  ...        9 min, 48.751 sec
     gradient                   ...        4 min, 38.954 sec
 * total energy  : -5104.0819287 Eh     change    :  -0.1836720E-04 Eh
   gradient norm :     0.0076798 Eh/a0  converged?    E=F G=F D=F
   time step     :     0.4026275 fs     power     :   0.1263288E-09
   step length   :     0.0111173 a0     speed     :   0.6678988E-03

........................................................................
.............................. CYCLE   11 ..............................
........................................................................

 iter      E             dE          RMSdq      gap      omega  full diag
   1  -5198.6317194 -0.519863E+04  0.126E-03    4.06       0.0  T
   2  -5198.6317196 -0.154869E-06  0.777E-04    4.06       2.1  T
   3  -5198.6317191  0.489644E-06  0.332E-04    4.06       4.8  T
     SCC iter.                  ...        9 min, 50.480 sec
     gradient                   ...        4 min, 39.431 sec
 * total energy  : -5104.0819369 Eh     change    :  -0.8197897E-05 Eh
   gradient norm :     0.0076765 Eh/a0  converged?    E=F G=F D=F
   time step     :     0.4428903 fs     power     :  -0.2127868E-09
   step length   :     0.0114738 a0     speed     :   0.6266537E-03

........................................................................
.............................. CYCLE   12 ..............................
........................................................................
 * reset velocities

 iter      E             dE          RMSdq      gap      omega  full diag
   1  -5198.6315465 -0.519863E+04  0.557E-05    4.06       0.0  T
   2  -5198.6315465 -0.447744E-08  0.488E-05    4.06      33.0  T
   3  -5198.6315465 -0.956879E-08  0.180E-05    4.06      89.4  T
     SCC iter.                  ...        9 min, 55.158 sec
     gradient                   ...        4 min, 36.008 sec
 * total energy  : -5104.0819402 Eh     change    :  -0.3274891E-05 Eh
   gradient norm :     0.0075427 Eh/a0  converged?    E=T G=F D=T
   time step     :     0.2214451 fs     power     :   0.1595064E-09
   step length   :     0.0003529 a0     speed     :   0.3855257E-04

........................................................................
.............................. CYCLE   13 ..............................
........................................................................

 iter      E             dE          RMSdq      gap      omega  full diag
   1  -5198.6311932 -0.519863E+04  0.684E-05    4.06       0.0  T
   2  -5198.6311932 -0.105501E-08  0.476E-05    4.06      33.8  T
   3  -5198.6311932  0.177533E-08  0.206E-05    4.06      78.2  T
     SCC iter.                  ...        9 min, 50.447 sec
     gradient                   ...        4 min, 37.382 sec
 * total energy  : -5104.0819453 Eh     change    :  -0.5160582E-05 Eh
   gradient norm :     0.0072408 Eh/a0  converged?    E=F G=F D=T
   time step     :     0.2214451 fs     power     :   0.3034885E-09
   step length   :     0.0006997 a0     speed     :   0.7643144E-04

........................................................................
.............................. CYCLE   14 ..............................
........................................................................

 iter      E             dE          RMSdq      gap      omega  full diag
   1  -5198.6306638 -0.519863E+04  0.980E-05    4.06       0.0  T
   2  -5198.6306638 -0.224099E-08  0.689E-05    4.06      23.4  T
   3  -5198.6306638  0.360433E-08  0.296E-05    4.06      54.3  T
     SCC iter.                  ...        9 min, 50.268 sec
     gradient                   ...        4 min, 37.193 sec
 * total energy  : -5104.0819525 Eh     change    :  -0.7230786E-05 Eh
   gradient norm :     0.0068041 Eh/a0  converged?    E=F G=F D=F
   time step     :     0.2214451 fs     power     :   0.4204205E-09
   step length   :     0.0010325 a0     speed     :   0.1127863E-03

........................................................................
.............................. CYCLE   15 ..............................
........................................................................

 iter      E             dE          RMSdq      gap      omega  full diag
   1  -5198.6299649 -0.519863E+04  0.128E-04    4.06       0.0  T
   2  -5198.6299650 -0.362343E-08  0.893E-05    4.06      18.0  T
   3  -5198.6299649  0.616183E-08  0.380E-05    4.06      42.3  T
     SCC iter.                  ...        9 min, 49.567 sec
     gradient                   ...        4 min, 37.019 sec
 * total energy  : -5104.0819613 Eh     change    :  -0.8742589E-05 Eh
   gradient norm :     0.0062535 Eh/a0  converged?    E=F G=F D=F
   time step     :     0.2214451 fs     power     :   0.5020725E-09
   step length   :     0.0013450 a0     speed     :   0.1469155E-03

........................................................................
.............................. CYCLE   16 ..............................
........................................................................

 iter      E             dE          RMSdq      gap      omega  full diag
   1  -5198.6291050 -0.519863E+04  0.154E-04    4.06       0.0  T
   2  -5198.6291050 -0.514410E-08  0.108E-04    4.06      14.9  T
   3  -5198.6291050  0.933142E-08  0.457E-05    4.06      35.2  T
     SCC iter.                  ...        9 min, 49.448 sec
     gradient                   ...        4 min, 35.482 sec
 * total energy  : -5104.0819709 Eh     change    :  -0.9637072E-05 Eh
   gradient norm :     0.0056184 Eh/a0  converged?    E=F G=F D=F
   time step     :     0.2214451 fs     power     :   0.5440076E-09
   step length   :     0.0016313 a0     speed     :   0.1781908E-03

........................................................................
.............................. CYCLE   17 ..............................
........................................................................

 iter      E             dE          RMSdq      gap      omega  full diag
   1  -5198.6280943 -0.519863E+04  0.176E-04    4.06       0.0  T
   2  -5198.6280943 -0.643104E-08  0.123E-04    4.06      13.0  T
   3  -5198.6280943  0.128721E-07  0.525E-05    4.06      30.7  T
     SCC iter.                  ...        9 min, 48.908 sec
     gradient                   ...        4 min, 36.197 sec
 * total energy  : -5104.0819807 Eh     change    :  -0.9812895E-05 Eh
   gradient norm :     0.0049374 Eh/a0  converged?    E=F G=F D=F
   time step     :     0.2214451 fs     power     :   0.5461248E-09
   step length   :     0.0018865 a0     speed     :   0.2060683E-03

........................................................................
.............................. CYCLE   18 ..............................
........................................................................

 iter      E             dE          RMSdq      gap      omega  full diag
   1  -5198.6268159 -0.519863E+04  0.216E-04    4.06       0.0  T
   2  -5198.6268160 -0.955151E-08  0.152E-04    4.06      10.6  T
   3  -5198.6268159  0.206610E-07  0.650E-05    4.06      24.8  T
     SCC iter.                  ...        9 min, 51.999 sec
     gradient                   ...        4 min, 35.808 sec
 * total energy  : -5104.0819911 Eh     change    :  -0.1033879E-04 Eh
   gradient norm :     0.0041919 Eh/a0  converged?    E=F G=F D=F
   time step     :     0.2435896 fs     power     :   0.5072944E-09
   step length   :     0.0023416 a0     speed     :   0.2325232E-03

........................................................................
.............................. CYCLE   19 ..............................
........................................................................

 iter      E             dE          RMSdq      gap      omega  full diag
   1  -5198.6252346 -0.519863E+04  0.256E-04    4.06       0.0  T
   2  -5198.6252346 -0.126101E-07  0.180E-04    4.05       8.9  T
   3  -5198.6252346  0.312975E-07  0.779E-05    4.05      20.7  T
     SCC iter.                  ...        9 min, 49.663 sec
     gradient                   ...        4 min, 37.145 sec
 * total energy  : -5104.0820010 Eh     change    :  -0.9959852E-05 Eh
   gradient norm :     0.0034798 Eh/a0  converged?    E=F G=F D=F
   time step     :     0.2679486 fs     power     :   0.4270437E-09
   step length   :     0.0028355 a0     speed     :   0.2559697E-03

........................................................................
.............................. CYCLE   20 ..............................
........................................................................

 iter      E             dE          RMSdq      gap      omega  full diag
   1  -5198.6233312 -0.519862E+04  0.293E-04    4.05       0.0  T
   2  -5198.6233313 -0.150812E-07  0.206E-04    4.05       7.8  T
   3  -5198.6233312  0.453574E-07  0.903E-05    4.05      17.8  T
     SCC iter.                  ...        9 min, 48.437 sec
     gradient                   ...        4 min, 36.360 sec
 * total energy  : -5104.0820098 Eh     change    :  -0.8725429E-05 Eh
   gradient norm :     0.0029842 Eh/a0  converged?    E=F G=F D=F
   time step     :     0.2947435 fs     power     :   0.3169552E-09
   step length   :     0.0033405 a0     speed     :   0.2741452E-03
 * RMSD in coord.:     0.0011294 a0     energy gain  -0.6193436E-03 Eh

........................................................................
.............................. CYCLE   21 ..............................
........................................................................

 iter      E             dE          RMSdq      gap      omega  full diag
   1  -5198.6216623 -0.519862E+04  0.246E-04    4.05       0.0  T
   2  -5198.6216624 -0.877844E-08  0.171E-04    4.05       9.4  T
   3  -5198.6216623  0.337695E-07  0.751E-05    4.05      21.4  T
     SCC iter.                  ...        9 min, 48.672 sec
     gradient                   ...        4 min, 35.893 sec
 * total energy  : -5104.0820154 Eh     change    :  -0.5606646E-05 Eh
   gradient norm :     0.0028678 Eh/a0  converged?    E=F G=F D=F
   time step     :     0.2500000 fs     power     :   0.2355114E-09
   step length   :     0.0028919 a0     speed     :   0.2798070E-03

........................................................................
.............................. CYCLE   22 ..............................
........................................................................

 iter      E             dE          RMSdq      gap      omega  full diag
   1  -5198.6200155 -0.519862E+04  0.232E-04    4.05       0.0  T
   2  -5198.6200155 -0.653381E-08  0.160E-04    4.05      10.1  T
   3  -5198.6200155  0.326991E-07  0.724E-05    4.05      22.2  T
     SCC iter.                  ...        9 min, 49.919 sec
     gradient                   ...        4 min, 36.706 sec
 * total energy  : -5104.0820197 Eh     change    :  -0.4362527E-05 Eh
   gradient norm :     0.0029453 Eh/a0  converged?    E=T G=F D=F
   time step     :     0.2500000 fs     power     :   0.1826087E-09
   step length   :     0.0028734 a0     speed     :   0.2780192E-03

........................................................................
.............................. CYCLE   23 ..............................
........................................................................

 iter      E             dE          RMSdq      gap      omega  full diag
   1  -5198.6184644 -0.519862E+04  0.216E-04    4.05       0.0  T
   2  -5198.6184644 -0.440014E-08  0.145E-04    4.05      11.1  T
   3  -5198.6184644  0.266027E-07  0.650E-05    4.05      24.7  T
     SCC iter.                  ...        9 min, 49.918 sec
     gradient                   ...        4 min, 36.147 sec
 * total energy  : -5104.0820235 Eh     change    :  -0.3776955E-05 Eh
   gradient norm :     0.0030849 Eh/a0  converged?    E=T G=F D=F
   time step     :     0.2500000 fs     power     :   0.1618203E-09
   step length   :     0.0028047 a0     speed     :   0.2713709E-03

........................................................................
.............................. CYCLE   24 ..............................
........................................................................

 iter      E             dE          RMSdq      gap      omega  full diag
   1  -5198.6170654 -0.519862E+04  0.202E-04    4.05       0.0  T
   2  -5198.6170654 -0.283126E-08  0.131E-04    4.05      12.3  T
   3  -5198.6170654  0.161108E-07  0.517E-05    4.05      31.1  T
     SCC iter.                  ...        9 min, 50.133 sec
     gradient                   ...        4 min, 36.402 sec
 * total energy  : -5104.0820272 Eh     change    :  -0.3657042E-05 Eh
   gradient norm :     0.0031959 Eh/a0  converged?    E=T G=F D=F
   time step     :     0.2500000 fs     power     :   0.1670019E-09
   step length   :     0.0027212 a0     speed     :   0.2632925E-03

........................................................................
.............................. CYCLE   25 ..............................
........................................................................

 iter      E             dE          RMSdq      gap      omega  full diag
   1  -5198.6158549 -0.519862E+04  0.193E-04    4.05       0.0  T
   2  -5198.6158549 -0.180717E-08  0.119E-04    4.05      13.5  T
   3  -5198.6158549  0.541695E-08  0.322E-05    4.05      50.0  T
     SCC iter.                  ...        9 min, 48.929 sec
     gradient                   ...        4 min, 36.414 sec
 * total energy  : -5104.0820311 Eh     change    :  -0.3928169E-05 Eh
   gradient norm :     0.0032375 Eh/a0  converged?    E=T G=F D=F
   time step     :     0.2500000 fs     power     :   0.1879143E-09
   step length   :     0.0026501 a0     speed     :   0.2564149E-03

........................................................................
.............................. CYCLE   26 ..............................
........................................................................

 iter      E             dE          RMSdq      gap      omega  full diag
   1  -5198.6147569 -0.519861E+04  0.209E-04    4.05       0.0  T
   2  -5198.6147569 -0.186083E-08  0.125E-04    4.05      12.9  T
   3  -5198.6147569  0.133605E-08  0.214E-05    4.05      75.2  T
     SCC iter.                  ...        9 min, 52.857 sec
     gradient                   ...        4 min, 36.068 sec
 * total energy  : -5104.0820359 Eh     change    :  -0.4802116E-05 Eh
   gradient norm :     0.0031946 Eh/a0  converged?    E=T G=F D=F
   time step     :     0.2750000 fs     power     :   0.2144801E-09
   step length   :     0.0028781 a0     speed     :   0.2531520E-03

........................................................................
.............................. CYCLE   27 ..............................
........................................................................

 iter      E             dE          RMSdq      gap      omega  full diag
   1  -5198.6138254 -0.519861E+04  0.231E-04    4.05       0.0  T
   2  -5198.6138254 -0.204363E-08  0.137E-04    4.05      11.8  T
   3  -5198.6138254  0.290675E-08  0.285E-05    4.05      56.5  T
     SCC iter.                  ...        9 min, 49.882 sec
     gradient                   ...        4 min, 37.095 sec
 * total energy  : -5104.0820418 Eh     change    :  -0.5878566E-05 Eh
   gradient norm :     0.0030627 Eh/a0  converged?    E=F G=F D=F
   time step     :     0.3025000 fs     power     :   0.2386616E-09
   step length   :     0.0031783 a0     speed     :   0.2541507E-03

........................................................................
.............................. CYCLE   28 ..............................
........................................................................

 iter      E             dE          RMSdq      gap      omega  full diag
   1  -5198.6131184 -0.519861E+04  0.263E-04    4.05       0.0  T
   2  -5198.6131184 -0.302771E-08  0.156E-04    4.05      10.3  T
   3  -5198.6131184  0.974705E-08  0.465E-05    4.05      34.6  T
     SCC iter.                  ...        9 min, 49.776 sec
     gradient                   ...        4 min, 36.346 sec
 * total energy  : -5104.0820487 Eh     change    :  -0.6889680E-05 Eh
   gradient norm :     0.0028572 Eh/a0  converged?    E=F G=F D=F
   time step     :     0.3327500 fs     power     :   0.2536852E-09
   step length   :     0.0035651 a0     speed     :   0.2591592E-03

........................................................................
.............................. CYCLE   29 ..............................
........................................................................

 iter      E             dE          RMSdq      gap      omega  full diag
   1  -5198.6126952 -0.519861E+04  0.301E-04    4.05       0.0  T
   2  -5198.6126952 -0.459750E-08  0.181E-04    4.05       8.9  T
   3  -5198.6126952  0.247719E-07  0.711E-05    4.05      22.6  T
     SCC iter.                  ...        9 min, 50.173 sec
     gradient                   ...        4 min, 37.519 sec
 * total energy  : -5104.0820563 Eh     change    :  -0.7651189E-05 Eh
   gradient norm :     0.0026144 Eh/a0  converged?    E=F G=F D=F
   time step     :     0.3660250 fs     power     :   0.2551935E-09
   step length   :     0.0040443 a0     speed     :   0.2672686E-03

........................................................................
.............................. CYCLE   30 ..............................
........................................................................

 iter      E             dE          RMSdq      gap      omega  full diag
   1  -5198.6126082 -0.519861E+04  0.342E-04    4.05       0.0  T
   2  -5198.6126082 -0.636464E-08  0.208E-04    4.05       7.7  T
   3  -5198.6126082  0.427617E-07  0.925E-05    4.05      17.4  T
     SCC iter.                  ...        9 min, 50.267 sec
     gradient                   ...        4 min, 37.890 sec
 * total energy  : -5104.0820645 Eh     change    :  -0.8185306E-05 Eh
   gradient norm :     0.0023896 Eh/a0  converged?    E=F G=F D=F
   time step     :     0.4026275 fs     power     :   0.2429477E-09
   step length   :     0.0046117 a0     speed     :   0.2770580E-03

........................................................................
.............................. CYCLE   31 ..............................
........................................................................

 iter      E             dE          RMSdq      gap      omega  full diag
   1  -5198.6128869 -0.519861E+04  0.379E-04    4.05       0.0  T
   2  -5198.6128869 -0.751243E-08  0.232E-04    4.05       6.9  T
   3  -5198.6128869  0.569198E-07  0.105E-04    4.05      15.3  T
     SCC iter.                  ...        9 min, 47.364 sec
     gradient                   ...        4 min, 37.675 sec
 * total energy  : -5104.0820729 Eh     change    :  -0.8394114E-05 Eh
   gradient norm :     0.0022361 Eh/a0  converged?    E=F G=F D=F
   time step     :     0.4428903 fs     power     :   0.2217912E-09
   step length   :     0.0052520 a0     speed     :   0.2868426E-03

........................................................................
.............................. CYCLE   32 ..............................
........................................................................

 iter      E             dE          RMSdq      gap      omega  full diag
   1  -5198.6135171 -0.519861E+04  0.405E-04    4.05       0.0  T
   2  -5198.6135171 -0.763521E-08  0.247E-04    4.05       6.5  T
   3  -5198.6135170  0.572418E-07  0.104E-04    4.05      15.4  T
     SCC iter.                  ...        9 min, 48.026 sec
     gradient                   ...        4 min, 35.682 sec
 * total energy  : -5104.0820814 Eh     change    :  -0.8485661E-05 Eh
   gradient norm :     0.0021702 Eh/a0  converged?    E=F G=F D=F
   time step     :     0.4871793 fs     power     :   0.1999322E-09
   step length   :     0.0059450 a0     speed     :   0.2951752E-03

........................................................................
.............................. CYCLE   33 ..............................
........................................................................

 iter      E             dE          RMSdq      gap      omega  full diag
   1  -5198.6144296 -0.519861E+04  0.418E-04    4.05       0.0  T
   2  -5198.6144296 -0.767432E-08  0.251E-04    4.05       6.4  T
   3  -5198.6144295  0.362488E-07  0.834E-05    4.05      19.3  T
     SCC iter.                  ...        9 min, 51.503 sec
     gradient                   ...        4 min, 36.942 sec
 * total energy  : -5104.0820901 Eh     change    :  -0.8697918E-05 Eh
   gradient norm :     0.0021752 Eh/a0  converged?    E=F G=F D=F
   time step     :     0.5358972 fs     power     :   0.1850451E-09
   step length   :     0.0066818 a0     speed     :   0.3015954E-03

........................................................................
.............................. CYCLE   34 ..............................
........................................................................

 iter      E             dE          RMSdq      gap      omega  full diag
   1  -5198.6155089 -0.519862E+04  0.416E-04    4.05       0.0  T
   2  -5198.6155089 -0.748969E-08  0.248E-04    4.05       6.5  T
   3  -5198.6155089  0.825185E-08  0.471E-05    4.05      34.1  T
     SCC iter.                  ...        9 min, 48.852 sec
     gradient                   ...        4 min, 36.967 sec
 * total energy  : -5104.0820994 Eh     change    :  -0.9277276E-05 Eh
   gradient norm :     0.0022250 Eh/a0  converged?    E=F G=F D=F
   time step     :     0.5894869 fs     power     :   0.1826083E-09
   step length   :     0.0074800 a0     speed     :   0.3069337E-03

........................................................................
.............................. CYCLE   35 ..............................
........................................................................

 iter      E             dE          RMSdq      gap      omega  full diag
   1  -5198.6166099 -0.519862E+04  0.406E-04    4.05       0.0  T
   2  -5198.6166099 -0.648106E-08  0.245E-04    4.05       6.6  T
   3  -5198.6166099  0.107739E-07  0.493E-05    4.05      32.6  T
     SCC iter.                  ...        9 min, 52.246 sec
     gradient                   ...        4 min, 39.067 sec
 * total energy  : -5104.0821100 Eh     change    :  -0.1063406E-04 Eh
   gradient norm :     0.0022381 Eh/a0  converged?    E=F G=F D=F
   time step     :     0.6484356 fs     power     :   0.1941322E-09
   step length   :     0.0083917 a0     speed     :   0.3130387E-03

........................................................................
.............................. CYCLE   36 ..............................
........................................................................

 iter      E             dE          RMSdq      gap      omega  full diag
   1  -5198.6175639 -0.519862E+04  0.403E-04    4.05       0.0  T
   2  -5198.6175639 -0.578984E-08  0.247E-04    4.05       6.5  T
   3  -5198.6175639  0.193832E-07  0.608E-05    4.05      26.5  T
     SCC iter.                  ...        9 min, 51.429 sec
     gradient                   ...        4 min, 38.522 sec
 * total energy  : -5104.0821225 Eh     change    :  -0.1246869E-04 Eh
   gradient norm :     0.0021275 Eh/a0  converged?    E=F G=F D=F
   time step     :     0.7132792 fs     power     :   0.2097396E-09
   step length   :     0.0094999 a0     speed     :   0.3221631E-03

........................................................................
.............................. CYCLE   37 ..............................
........................................................................

 iter      E             dE          RMSdq      gap      omega  full diag
   1  -5198.6181716 -0.519862E+04  0.410E-04    4.05       0.0  T
   2  -5198.6181716 -0.818363E-08  0.257E-04    4.05       6.3  T
   3  -5198.6181715  0.450846E-07  0.881E-05    4.06      18.3  T
     SCC iter.                  ...        9 min, 51.548 sec
     gradient                   ...        4 min, 38.283 sec
 * total energy  : -5104.0821368 Eh     change    :  -0.1434033E-04 Eh
   gradient norm :     0.0020485 Eh/a0  converged?    E=F G=F D=F
   time step     :     0.7846071 fs     power     :   0.2161511E-09
   step length   :     0.0108705 a0     speed     :   0.3351301E-03

........................................................................
.............................. CYCLE   38 ..............................
........................................................................

 iter      E             dE          RMSdq      gap      omega  full diag
   1  -5198.6182265 -0.519862E+04  0.436E-04    4.06       0.0  T
   2  -5198.6182265 -0.108648E-07  0.269E-04    4.06       6.0  T
   3  -5198.6182265  0.393948E-07  0.861E-05    4.06      18.7  T
     SCC iter.                  ...        9 min, 52.615 sec
     gradient                   ...        4 min, 39.809 sec
 * total energy  : -5104.0821533 Eh     change    :  -0.1647589E-04 Eh
   gradient norm :     0.0021522 Eh/a0  converged?    E=F G=F D=F
   time step     :     0.8630678 fs     power     :   0.2286297E-09
   step length   :     0.0124947 a0     speed     :   0.3501834E-03

........................................................................
.............................. CYCLE   39 ..............................
........................................................................

 iter      E             dE          RMSdq      gap      omega  full diag
   1  -5198.6177345 -0.519862E+04  0.501E-04    4.06       0.0  T
   2  -5198.6177345 -0.115724E-07  0.301E-04    4.06       5.4  T
   3  -5198.6177345  0.177415E-07  0.644E-05    4.06      25.0  T
     SCC iter.                  ...        9 min, 48.538 sec
     gradient                   ...        4 min, 38.906 sec
 * total energy  : -5104.0821733 Eh     change    :  -0.2006370E-04 Eh
   gradient norm :     0.0020869 Eh/a0  converged?    E=F G=F D=F
   time step     :     0.9493746 fs     power     :   0.2609099E-09
   step length   :     0.0144325 a0     speed     :   0.3677217E-03

........................................................................
.............................. CYCLE   40 ..............................
........................................................................

 iter      E             dE          RMSdq      gap      omega  full diag
   1  -5198.6171886 -0.519862E+04  0.578E-04    4.06       0.0  T
   2  -5198.6171886 -0.149967E-07  0.349E-04    4.06       4.6  T
   3  -5198.6171886  0.360451E-07  0.863E-05    4.05      18.6  T
     SCC iter.                  ...        9 min, 49.229 sec
     gradient                   ...        4 min, 38.079 sec
 * total energy  : -5104.0821972 Eh     change    :  -0.2386979E-04 Eh
   gradient norm :     0.0018630 Eh/a0  converged?    E=F G=F D=F
   time step     :     1.0443120 fs     power     :   0.2758872E-09
   step length   :     0.0169003 a0     speed     :   0.3914516E-03

........................................................................
.............................. CYCLE   41 ..............................
........................................................................

 iter      E             dE          RMSdq      gap      omega  full diag
   1  -5198.6176320 -0.519862E+04  0.612E-04    4.06       0.0  T
   2  -5198.6176321 -0.154605E-07  0.373E-04    4.06       4.3  T
   3  -5198.6176320  0.488690E-07  0.100E-04    4.06      16.0  T
     SCC iter.                  ...        9 min, 48.232 sec
     gradient                   ...        4 min, 36.704 sec
 * total energy  : -5104.0822235 Eh     change    :  -0.2632994E-04 Eh
   gradient norm :     0.0019973 Eh/a0  converged?    E=F G=F D=F
   time step     :     1.1487432 fs     power     :   0.2739249E-09
   step length   :     0.0198855 a0     speed     :   0.4187250E-03

........................................................................
.............................. CYCLE   42 ..............................
........................................................................

 iter      E             dE          RMSdq      gap      omega  full diag
   1  -5198.6194348 -0.519862E+04  0.673E-04    4.06       0.0  T
   2  -5198.6194348 -0.117589E-07  0.398E-04    4.06       4.0  T
   3  -5198.6194348  0.131049E-07  0.609E-05    4.06      26.4  T
     SCC iter.                  ...        9 min, 48.809 sec
     gradient                   ...        4 min, 34.685 sec
 * total energy  : -5104.0822550 Eh     change    :  -0.3149308E-04 Eh
   gradient norm :     0.0020048 Eh/a0  converged?    E=F G=F D=F
   time step     :     1.2500000 fs     power     :   0.3156209E-09
   step length   :     0.0229638 a0     speed     :   0.4443738E-03
 * RMSD in coord.:     0.0024961 a0     energy gain  -0.2452686E-03 Eh

........................................................................
.............................. CYCLE   43 ..............................
........................................................................

 iter      E             dE          RMSdq      gap      omega  full diag
   1  -5198.6197636 -0.519862E+04  0.134E-04    4.06       0.0  T
   2  -5198.6197636 -0.566615E-09  0.789E-05    4.06      20.4  T
   3  -5198.6197636  0.122964E-08  0.176E-05    4.06      91.4  T
     SCC iter.                  ...        9 min, 50.585 sec
     gradient                   ...        4 min, 37.314 sec
 * total energy  : -5104.0822615 Eh     change    :  -0.6479205E-05 Eh
   gradient norm :     0.0019291 Eh/a0  converged?    E=F G=F D=F
   time step     :     0.2500000 fs     power     :   0.3384764E-09
   step length   :     0.0045274 a0     speed     :   0.4380527E-03

........................................................................
.............................. CYCLE   44 ..............................
........................................................................

 iter      E             dE          RMSdq      gap      omega  full diag
   1  -5198.6200409 -0.519862E+04  0.142E-04    4.06       0.0  T
   2  -5198.6200409 -0.827640E-09  0.852E-05    4.06      18.9  T
   3  -5198.6200409  0.352520E-08  0.271E-05    4.06      59.4  T
     SCC iter.                  ...        9 min, 53.177 sec
     gradient                   ...        4 min, 36.800 sec
 * total energy  : -5104.0822682 Eh     change    :  -0.6717491E-05 Eh
   gradient norm :     0.0017648 Eh/a0  converged?    E=F G=F D=F
   time step     :     0.2500000 fs     power     :   0.3496591E-09
   step length   :     0.0045044 a0     speed     :   0.4358262E-03

........................................................................
.............................. CYCLE   45 ..............................
........................................................................

 iter      E             dE          RMSdq      gap      omega  full diag
   1  -5198.6202551 -0.519862E+04  0.155E-04    4.06       0.0  T
   2  -5198.6202551 -0.116415E-08  0.940E-05    4.06      17.1  T
   3  -5198.6202551  0.413820E-08  0.293E-05    4.06      54.8  T
     SCC iter.                  ...        9 min, 51.119 sec
     gradient                   ...        4 min, 38.187 sec
 * total energy  : -5104.0822749 Eh     change    :  -0.6670520E-05 Eh
   gradient norm :     0.0015848 Eh/a0  converged?    E=F G=F D=F
   time step     :     0.2500000 fs     power     :   0.3457991E-09
   step length   :     0.0045236 a0     speed     :   0.4376806E-03

........................................................................
.............................. CYCLE   46 ..............................
........................................................................

 iter      E             dE          RMSdq      gap      omega  full diag
   1  -5198.6204064 -0.519862E+04  0.164E-04    4.06       0.0  T
   2  -5198.6204064 -0.141790E-08  0.100E-04    4.06      16.1  T
   3  -5198.6204064  0.447471E-08  0.301E-05    4.06      53.5  T
     SCC iter.                  ...        9 min, 48.289 sec
     gradient                   ...        4 min, 35.370 sec
 * total energy  : -5104.0822813 Eh     change    :  -0.6447427E-05 Eh
   gradient norm :     0.0014784 Eh/a0  converged?    E=F G=F D=F
   time step     :     0.2500000 fs     power     :   0.3317963E-09
   step length   :     0.0045724 a0     speed     :   0.4424010E-03

........................................................................
.............................. CYCLE   47 ..............................
........................................................................

 iter      E             dE          RMSdq      gap      omega  full diag
   1  -5198.6205065 -0.519862E+04  0.165E-04    4.06       0.0  T
   2  -5198.6205065 -0.117234E-08  0.997E-05    4.06      16.1  T
   3  -5198.6205065  0.363525E-08  0.268E-05    4.06      60.0  T
     SCC iter.                  ...        9 min, 50.242 sec
     gradient                   ...        4 min, 36.305 sec
 * total energy  : -5104.0822876 Eh     change    :  -0.6211458E-05 Eh
   gradient norm :     0.0014844 Eh/a0  converged?    E=F G=F D=F
   time step     :     0.2500000 fs     power     :   0.3181624E-09
   step length   :     0.0046227 a0     speed     :   0.4472718E-03

........................................................................
.............................. CYCLE   48 ..............................
........................................................................

 iter      E             dE          RMSdq      gap      omega  full diag
   1  -5198.6205801 -0.519862E+04  0.171E-04    4.06       0.0  T
   2  -5198.6205801 -0.125601E-08  0.103E-04    4.06      15.7  T
   3  -5198.6205801  0.275395E-08  0.231E-05    4.06      69.6  T
     SCC iter.                  ...        9 min, 47.394 sec
     gradient                   ...        4 min, 36.215 sec
 * total energy  : -5104.0822942 Eh     change    :  -0.6670693E-05 Eh
   gradient norm :     0.0015627 Eh/a0  converged?    E=F G=F D=F
   time step     :     0.2750000 fs     power     :   0.3126532E-09
   step length   :     0.0051213 a0     speed     :   0.4504696E-03

........................................................................
.............................. CYCLE   49 ..............................
........................................................................

 iter      E             dE          RMSdq      gap      omega  full diag
   1  -5198.6206398 -0.519862E+04  0.171E-04    4.06       0.0  T
   2  -5198.6206398 -0.727596E-09  0.102E-04    4.06      15.8  T
   3  -5198.6206398  0.113323E-08  0.165E-05    4.06      97.3  T
     SCC iter.                  ...        9 min, 49.925 sec
     gradient                   ...        4 min, 36.555 sec
 * total energy  : -5104.0823016 Eh     change    :  -0.7355550E-05 Eh
   gradient norm :     0.0016345 Eh/a0  converged?    E=F G=F D=F
   time step     :     0.3025000 fs     power     :   0.3184483E-09
   step length   :     0.0056504 a0     speed     :   0.4518267E-03

........................................................................
.............................. CYCLE   50 ..............................
........................................................................

 iter      E             dE          RMSdq      gap      omega  full diag
   1  -5198.6206886 -0.519862E+04  0.173E-04    4.06       0.0  T
   2  -5198.6206886 -0.532964E-09  0.102E-04    4.06      15.7  T
   3  -5198.6206886  0.604814E-09  0.133E-05    4.06     120.6  T
     SCC iter.                  ...        9 min, 48.017 sec
     gradient                   ...        4 min, 37.336 sec
 * total energy  : -5104.0823100 Eh     change    :  -0.8379663E-05 Eh
   gradient norm :     0.0016363 Eh/a0  converged?    E=F G=F D=F
   time step     :     0.3327500 fs     power     :   0.3309323E-09
   step length   :     0.0062371 a0     speed     :   0.4533994E-03

........................................................................
.............................. CYCLE   51 ..............................
........................................................................

 iter      E             dE          RMSdq      gap      omega  full diag
   1  -5198.6207111 -0.519862E+04  0.185E-04    4.06       0.0  T
   2  -5198.6207111 -0.673026E-09  0.110E-04    4.06      14.6  T
   3  -5198.6207111  0.145519E-08  0.185E-05    4.06      87.0  T
     SCC iter.                  ...        9 min, 49.910 sec
     gradient                   ...        4 min, 36.724 sec
 * total energy  : -5104.0823195 Eh     change    :  -0.9539568E-05 Eh
   gradient norm :     0.0015581 Eh/a0  converged?    E=F G=F D=F
   time step     :     0.3660250 fs     power     :   0.3414323E-09
   step length   :     0.0069221 a0     speed     :   0.4574515E-03

........................................................................
.............................. CYCLE   52 ..............................
........................................................................

 iter      E             dE          RMSdq      gap      omega  full diag
   1  -5198.6206670 -0.519862E+04  0.209E-04    4.06       0.0  T
   2  -5198.6206670 -0.113323E-08  0.125E-04    4.06      12.8  T
   3  -5198.6206670  0.439741E-08  0.295E-05    4.06      54.5  T
     SCC iter.                  ...        9 min, 49.170 sec
     gradient                   ...        4 min, 37.402 sec
 * total energy  : -5104.0823302 Eh     change    :  -0.1069514E-04 Eh
   gradient norm :     0.0014594 Eh/a0  converged?    E=F G=F D=F
   time step     :     0.4026275 fs     power     :   0.3436789E-09
   step length   :     0.0077428 a0     speed     :   0.4651689E-03

........................................................................
.............................. CYCLE   53 ..............................
........................................................................

 iter      E             dE          RMSdq      gap      omega  full diag
   1  -5198.6204992 -0.519862E+04  0.236E-04    4.06       0.0  T
   2  -5198.6204992 -0.183718E-08  0.143E-04    4.06      11.2  T
   3  -5198.6204992  0.704858E-08  0.367E-05    4.06      43.8  T
     SCC iter.                  ...        9 min, 47.257 sec
     gradient                   ...        4 min, 38.141 sec
 * total energy  : -5104.0823418 Eh     change    :  -0.1157877E-04 Eh
   gradient norm :     0.0014314 Eh/a0  converged?    E=F G=F D=F
   time step     :     0.4428903 fs     power     :   0.3401356E-09
   step length   :     0.0087122 a0     speed     :   0.4758247E-03

........................................................................
.............................. CYCLE   54 ..............................
........................................................................

 iter      E             dE          RMSdq      gap      omega  full diag
   1  -5198.6201758 -0.519862E+04  0.260E-04    4.06       0.0  T
   2  -5198.6201758 -0.189812E-08  0.157E-04    4.06      10.3  T
   3  -5198.6201758  0.601631E-08  0.346E-05    4.06      46.5  T
     SCC iter.                  ...        9 min, 48.187 sec
     gradient                   ...        4 min, 36.298 sec
 * total energy  : -5104.0823545 Eh     change    :  -0.1276320E-04 Eh
   gradient norm :     0.0014737 Eh/a0  converged?    E=F G=F D=F
   time step     :     0.4871793 fs     power     :   0.3403895E-09
   step length   :     0.0098055 a0     speed     :   0.4868520E-03

........................................................................
.............................. CYCLE   55 ..............................
........................................................................

 iter      E             dE          RMSdq      gap      omega  full diag
   1  -5198.6197502 -0.519862E+04  0.280E-04    4.06       0.0  T
   2  -5198.6197502 -0.153977E-08  0.166E-04    4.06       9.7  T
   3  -5198.6197502  0.252294E-08  0.253E-05    4.06      63.5  T
     SCC iter.                  ...        9 min, 49.088 sec
     gradient                   ...        4 min, 35.501 sec
 * total energy  : -5104.0823689 Eh     change    :  -0.1433820E-04 Eh
   gradient norm :     0.0015048 Eh/a0  converged?    E=F G=F D=F
   time step     :     0.5358972 fs     power     :   0.3489669E-09
   step length   :     0.0110159 a0     speed     :   0.4972243E-03

........................................................................
.............................. CYCLE   56 ..............................
........................................................................

 iter      E             dE          RMSdq      gap      omega  full diag
   1  -5198.6193837 -0.519862E+04  0.301E-04    4.06       0.0  T
   2  -5198.6193837 -0.154250E-08  0.178E-04    4.06       9.0  T
   3  -5198.6193837  0.334603E-08  0.280E-05    4.06      57.5  T
     SCC iter.                  ...        9 min, 49.812 sec
     gradient                   ...        4 min, 37.125 sec
 * total energy  : -5104.0823851 Eh     change    :  -0.1623746E-04 Eh
   gradient norm :     0.0014845 Eh/a0  converged?    E=F G=F D=F
   time step     :     0.5894869 fs     power     :   0.3616956E-09
   step length   :     0.0123957 a0     speed     :   0.5086416E-03

........................................................................
.............................. CYCLE   57 ..............................
........................................................................

 iter      E             dE          RMSdq      gap      omega  full diag
   1  -5198.6193051 -0.519862E+04  0.336E-04    4.06       0.0  T
   2  -5198.6193051 -0.209366E-08  0.200E-04    4.06       8.0  T
   3  -5198.6193051  0.961973E-08  0.426E-05    4.06      37.8  T
     SCC iter.                  ...        9 min, 47.924 sec
     gradient                   ...        4 min, 39.062 sec
 * total energy  : -5104.0824034 Eh     change    :  -0.1832759E-04 Eh
   gradient norm :     0.0014176 Eh/a0  converged?    E=F G=F D=F
   time step     :     0.6484356 fs     power     :   0.3716305E-09
   step length   :     0.0140168 a0     speed     :   0.5228733E-03

........................................................................
.............................. CYCLE   58 ..............................
........................................................................

 iter      E             dE          RMSdq      gap      omega  full diag
   1  -5198.6196795 -0.519862E+04  0.380E-04    4.06       0.0  T
   2  -5198.6196795 -0.294131E-08  0.227E-04    4.06       7.1  T
   3  -5198.6196795  0.142263E-07  0.522E-05    4.06      30.8  T
     SCC iter.                  ...        9 min, 51.617 sec
     gradient                   ...        4 min, 37.721 sec
 * total energy  : -5104.0824241 Eh     change    :  -0.2070334E-04 Eh
   gradient norm :     0.0014107 Eh/a0  converged?    E=F G=F D=F
   time step     :     0.7132792 fs     power     :   0.3765406E-09
   step length   :     0.0159386 a0     speed     :   0.5405135E-03

........................................................................
.............................. CYCLE   59 ..............................
........................................................................

 iter      E             dE          RMSdq      gap      omega  full diag
   1  -5198.6204038 -0.519862E+04  0.412E-04    4.06       0.0  T
   2  -5198.6204038 -0.236832E-08  0.243E-04    4.06       6.6  T
   3  -5198.6204037  0.461660E-08  0.334E-05    4.06      48.2  T
     SCC iter.                  ...        9 min, 47.262 sec
     gradient                   ...        4 min, 36.811 sec
 * total energy  : -5104.0824475 Eh     change    :  -0.2336308E-04 Eh
   gradient norm :     0.0014588 Eh/a0  converged?    E=F G=F D=F
   time step     :     0.7846071 fs     power     :   0.3883650E-09
   step length   :     0.0181385 a0     speed     :   0.5591955E-03

........................................................................
.............................. CYCLE   60 ..............................
........................................................................

 iter      E             dE          RMSdq      gap      omega  full diag
   1  -5198.6211354 -0.519862E+04  0.454E-04    4.06       0.0  T
   2  -5198.6211354 -0.300770E-08  0.268E-04    4.06       6.0  T
   3  -5198.6211353  0.115979E-07  0.490E-05    4.06      32.9  T
     SCC iter.                  ...        9 min, 47.897 sec
     gradient                   ...        4 min, 37.728 sec
 * total energy  : -5104.0824742 Eh     change    :  -0.2671866E-04 Eh
   gradient norm :     0.0014033 Eh/a0  converged?    E=F G=F D=F
   time step     :     0.8630678 fs     power     :   0.4053857E-09
   step length   :     0.0206493 a0     speed     :   0.5787281E-03

........................................................................
.............................. CYCLE   61 ..............................
........................................................................

 iter      E             dE          RMSdq      gap      omega  full diag
   1  -5198.6215827 -0.519862E+04  0.517E-04    4.06       0.0  T
   2  -5198.6215827 -0.470573E-08  0.306E-04    4.06       5.2  T
   3  -5198.6215827  0.168784E-07  0.571E-05    4.06      28.2  T
     SCC iter.                  ...        9 min, 47.287 sec
     gradient                   ...        4 min, 38.479 sec
 * total energy  : -5104.0825045 Eh     change    :  -0.3024329E-04 Eh
   gradient norm :     0.0013844 Eh/a0  converged?    E=F G=F D=F
   time step     :     0.9493746 fs     power     :   0.4154450E-09
   step length   :     0.0236505 a0     speed     :   0.6025831E-03

........................................................................
.............................. CYCLE   62 ..............................
........................................................................

 iter      E             dE          RMSdq      gap      omega  full diag
   1  -5198.6217010 -0.519862E+04  0.572E-04    4.06       0.0  T
   2  -5198.6217010 -0.495129E-08  0.337E-04    4.06       4.8  T
   3  -5198.6217010  0.149103E-07  0.570E-05    4.06      28.2  T
     SCC iter.                  ...        9 min, 47.903 sec
     gradient                   ...        4 min, 39.781 sec
 * total energy  : -5104.0825388 Eh     change    :  -0.3436021E-04 Eh
   gradient norm :     0.0014283 Eh/a0  converged?    E=F G=F D=F
   time step     :     1.0443120 fs     power     :   0.4319103E-09
   step length   :     0.0271360 a0     speed     :   0.6285375E-03

........................................................................
.............................. CYCLE   63 ..............................
........................................................................

 iter      E             dE          RMSdq      gap      omega  full diag
   1  -5198.6215176 -0.519862E+04  0.648E-04    4.06       0.0  T
   2  -5198.6215176 -0.696673E-08  0.384E-04    4.06       4.2  T
   3  -5198.6215176  0.316932E-07  0.788E-05    4.06      20.4  T
     SCC iter.                  ...        9 min, 47.643 sec
     gradient                   ...        4 min, 35.694 sec
 * total energy  : -5104.0825785 Eh     change    :  -0.3968658E-04 Eh
   gradient norm :     0.0013614 Eh/a0  converged?    E=F G=F D=F
   time step     :     1.1487432 fs     power     :   0.4514245E-09
   step length   :     0.0311534 a0     speed     :   0.6559896E-03

........................................................................
.............................. CYCLE   64 ..............................
........................................................................

 iter      E             dE          RMSdq      gap      omega  full diag
   1  -5198.6213690 -0.519862E+04  0.743E-04    4.06       0.0  T
   2  -5198.6213690 -0.926320E-08  0.440E-04    4.05       3.7  T
   3  -5198.6213690  0.426398E-07  0.906E-05    4.06      17.7  T
     SCC iter.                  ...        9 min, 50.084 sec
     gradient                   ...        4 min, 37.646 sec
 * total energy  : -5104.0826231 Eh     change    :  -0.4455455E-04 Eh
   gradient norm :     0.0014136 Eh/a0  converged?    E=F G=F D=F
   time step     :     1.2500000 fs     power     :   0.4627176E-09
   step length   :     0.0355609 a0     speed     :   0.6881423E-03

........................................................................
.............................. CYCLE   65 ..............................
........................................................................

 iter      E             dE          RMSdq      gap      omega  full diag
   1  -5198.6219726 -0.519862E+04  0.776E-04    4.06       0.0  T
   2  -5198.6219726 -0.827731E-08  0.457E-04    4.06       3.5  T
   3  -5198.6219726  0.393984E-07  0.909E-05    4.06      17.7  T
     SCC iter.                  ...        9 min, 46.767 sec
     gradient                   ...        4 min, 36.997 sec
 * total energy  : -5104.0826693 Eh     change    :  -0.4625220E-04 Eh
   gradient norm :     0.0013988 Eh/a0  converged?    E=F G=F D=F
   time step     :     1.2500000 fs     power     :   0.4831372E-09
   step length   :     0.0370444 a0     speed     :   0.7168490E-03

........................................................................
.............................. CYCLE   66 ..............................
........................................................................

 iter      E             dE          RMSdq      gap      omega  full diag
   1  -5198.6224722 -0.519862E+04  0.800E-04    4.05       0.0  T
   2  -5198.6224723 -0.153814E-07  0.472E-04    4.06       3.4  T
   3  -5198.6224722  0.405371E-07  0.103E-04    4.05      15.6  T
     SCC iter.                  ...        9 min, 50.133 sec
     gradient                   ...        4 min, 38.093 sec
 * total energy  : -5104.0827167 Eh     change    :  -0.4740651E-04 Eh
   gradient norm :     0.0015437 Eh/a0  converged?    E=F G=F D=F
   time step     :     1.2500000 fs     power     :   0.4869557E-09
   step length   :     0.0385464 a0     speed     :   0.7459144E-03

........................................................................
.............................. CYCLE   67 ..............................
........................................................................

 iter      E             dE          RMSdq      gap      omega  full diag
   1  -5198.6226867 -0.519862E+04  0.841E-04    4.06       0.0  T
   2  -5198.6226868 -0.293194E-07  0.495E-04    4.06       3.3  T
   3  -5198.6226867  0.439923E-07  0.128E-04    4.06      12.6  T
     SCC iter.                  ...        9 min, 50.115 sec
     gradient                   ...        4 min, 37.525 sec
 * total energy  : -5104.0827647 Eh     change    :  -0.4797154E-04 Eh
   gradient norm :     0.0019153 Eh/a0  converged?    E=F G=F D=F
   time step     :     1.2500000 fs     power     :   0.4828043E-09
   step length   :     0.0397120 a0     speed     :   0.7684700E-03
 * RMSD in coord.:     0.0063415 a0     energy gain  -0.5096719E-03 Eh

........................................................................
.............................. CYCLE   68 ..............................
........................................................................

 iter      E             dE          RMSdq      gap      omega  full diag
   1  -5198.6227330 -0.519862E+04  0.161E-04    4.06       0.0  T
   2  -5198.6227330 -0.103410E-08  0.947E-05    4.06      17.0  T
   3  -5198.6227330  0.318687E-08  0.302E-05    4.06      53.2  T
     SCC iter.                  ...        9 min, 49.080 sec
     gradient                   ...        4 min, 37.850 sec
 * total energy  : -5104.0827746 Eh     change    :  -0.9921771E-05 Eh
   gradient norm :     0.0016572 Eh/a0  converged?    E=F G=F D=F
   time step     :     0.2500000 fs     power     :   0.5185676E-09
   step length   :     0.0077244 a0     speed     :   0.7473804E-03

........................................................................
.............................. CYCLE   69 ..............................
........................................................................

 iter      E             dE          RMSdq      gap      omega  full diag
   1  -5198.6227925 -0.519862E+04  0.189E-04    4.06       0.0  T
   2  -5198.6227925 -0.556338E-08  0.113E-04    4.06      14.3  T
   3  -5198.6227925  0.376531E-08  0.494E-05    4.06      32.6  T
     SCC iter.                  ...        9 min, 46.688 sec
     gradient                   ...        4 min, 37.822 sec
 * total energy  : -5104.0827845 Eh     change    :  -0.9841316E-05 Eh
   gradient norm :     0.0012721 Eh/a0  converged?    E=F G=F D=F
   time step     :     0.2500000 fs     power     :   0.4971165E-09
   step length   :     0.0076363 a0     speed     :   0.7388569E-03

........................................................................
.............................. CYCLE   70 ..............................
........................................................................

 iter      E             dE          RMSdq      gap      omega  full diag
   1  -5198.6228698 -0.519862E+04  0.192E-04    4.06       0.0  T
   2  -5198.6228698 -0.487944E-08  0.115E-04    4.05      14.0  T
   3  -5198.6228698  0.338332E-08  0.458E-05    4.06      35.1  T
     SCC iter.                  ...        9 min, 47.901 sec
     gradient                   ...        4 min, 38.764 sec
 * total energy  : -5104.0827936 Eh     change    :  -0.9119110E-05 Eh
   gradient norm :     0.0015091 Eh/a0  converged?    E=F G=F D=F
   time step     :     0.2500000 fs     power     :   0.4603609E-09
   step length   :     0.0076840 a0     speed     :   0.7434717E-03

........................................................................
.............................. CYCLE   71 ..............................
........................................................................

 iter      E             dE          RMSdq      gap      omega  full diag
   1  -5198.6229543 -0.519862E+04  0.162E-04    4.05       0.0  T
   2  -5198.6229543 -0.901309E-09  0.964E-05    4.05      16.7  T
[...]
  3615   6 C     3616   6 C                                       1.5358345
  3617   6 C     3618   6 C                                       1.3914326
  3618   6 C     3619   6 C                                       1.3828348
  3619   6 C     3620   6 C                                       1.3850443
  3620   6 C     3621   6 C                                       1.3839574
  3617   6 C     3622   6 C                                       1.3891556
  3621   6 C     3622   6 C                                       1.3840401
  3616   6 C     3623   6 C                                       1.5350290
  3625   6 C     3626   6 C                                       1.3926845
  3626   6 C     3627   6 C                                       1.3826002
  3627   6 C     3628   6 C                                       1.3841459
  3628   6 C     3629   6 C                                       1.3825945
  3625   6 C     3630   6 C                                       1.3891004
  3629   6 C     3630   6 C                                       1.3846666
  3624   6 C     3631   6 C                                       1.5322533
  3631   6 C     3632   6 C                                       1.5395619
  3633   6 C     3634   6 C                                       1.3893995
  3634   6 C     3635   6 C                                       1.3823151
  3635   6 C     3636   6 C                                       1.3839722
  3636   6 C     3637   6 C                                       1.3840739
  3633   6 C     3638   6 C                                       1.3883863
  3637   6 C     3638   6 C                                       1.3834954
  3632   6 C     3639   6 C                                       1.5316702
  3639   6 C     3640   6 C                                       1.5348834
  3641   6 C     3642   6 C                                       1.3894669
  3642   6 C     3643   6 C                                       1.3821809
  3643   6 C     3644   6 C                                       1.3839269
  3644   6 C     3645   6 C                                       1.3837747
  3641   6 C     3646   6 C                                       1.3893166
  3645   6 C     3646   6 C                                       1.3839690
  3640   6 C     3647   6 C                                       1.5349925
  3649   6 C     3650   6 C                                       1.3885486
  3650   6 C     3651   6 C                                       1.3835666
  3651   6 C     3652   6 C                                       1.3839053
  3652   6 C     3653   6 C                                       1.3850315
  3649   6 C     3654   6 C                                       1.3904473
  3653   6 C     3654   6 C                                       1.3831603
  3648   6 C     3655   6 C                                       1.5355727
  3655   6 C     3656   6 C                                       1.5315546
  3657   6 C     3658   6 C                                       1.3902727
  3658   6 C     3659   6 C                                       1.3835350
  3659   6 C     3660   6 C                                       1.3837229
  3660   6 C     3661   6 C                                       1.3841078
  3657   6 C     3662   6 C                                       1.3897773
  3661   6 C     3662   6 C                                       1.3831643
  3656   6 C     3663   6 C                                       1.5385551
  3663   6 C     3664   6 C                                       1.5391030
  3665   6 C     3666   6 C                                       1.3902859
  3666   6 C     3667   6 C                                       1.3835886
  3667   6 C     3668   6 C                                       1.3848260
  3668   6 C     3669   6 C                                       1.3846226
  3665   6 C     3670   6 C                                       1.3901023
  3669   6 C     3670   6 C                                       1.3840977
  3664   6 C     3671   6 C                                       1.5335757
  3671   6 C     3672   6 C                                       1.5350527
  3673   6 C     3674   6 C                                       1.3903284
  3674   6 C     3675   6 C                                       1.3833038
  3675   6 C     3676   6 C                                       1.3841465
  3676   6 C     3677   6 C                                       1.3832943
  3673   6 C     3678   6 C                                       1.3891385
  3677   6 C     3678   6 C                                       1.3834153
  3672   6 C     3679   6 C                                       1.5371517
  3679   6 C     3680   6 C                                       1.5344666
  3681   6 C     3682   6 C                                       1.3893601
  3682   6 C     3683   6 C                                       1.3825996
  3683   6 C     3684   6 C                                       1.3831085
  3684   6 C     3685   6 C                                       1.3835740
  3681   6 C     3686   6 C                                       1.3880860
  3685   6 C     3686   6 C                                       1.3824556
  3680   6 C     3687   6 C                                       1.5312550
  3687   6 C     3688   6 C                                       1.5371977
  3549   6 C     3689   1 H                                       1.0959672
  3551   6 C     3690   1 H                                       1.0919885
  3551   6 C     3691   1 H                                       1.0901506
  3552   6 C     3692   1 H                                       1.0936674
  3559   6 C     3693   1 H                                       1.0926076
  3559   6 C     3694   1 H                                       1.0926363
  3560   6 C     3695   1 H                                       1.0949407
  3567   6 C     3696   1 H                                       1.0914095
  3567   6 C     3697   1 H                                       1.0910809
  3568   6 C     3698   1 H                                       1.0956086
  3575   6 C     3699   1 H                                       1.0908771
  3576   6 C     3700   1 H                                       1.0960520
  3583   6 C     3701   1 H                                       1.0920149
  3583   6 C     3702   1 H                                       1.0913948
  3584   6 C     3703   1 H                                       1.0939199
  3591   6 C     3704   1 H                                       1.0922032
  3591   6 C     3705   1 H                                       1.0929856
  3592   6 C     3706   1 H                                       1.0939068
  3599   6 C     3707   1 H                                       1.0911582
  3599   6 C     3708   1 H                                       1.0924811
  3600   6 C     3709   1 H                                       1.0949541
  3608   6 C     3710   1 H                                       1.0953115
  3615   6 C     3711   1 H                                       1.0903766
  3615   6 C     3712   1 H                                       1.0923737
  3616   6 C     3713   1 H                                       1.0958696
  3623   6 C     3714   1 H                                       1.0906570
  3623   6 C     3715   1 H                                       1.0930922
  3624   6 C     3716   1 H                                       1.0973015
  3631   6 C     3717   1 H                                       1.0919190
  3631   6 C     3718   1 H                                       1.0902606
  3632   6 C     3719   1 H                                       1.0943684
  3639   6 C     3720   1 H                                       1.0918120
  3639   6 C     3721   1 H                                       1.0924890
  3640   6 C     3722   1 H                                       1.0953580
  3647   6 C     3723   1 H                                       1.0923210
  3647   6 C     3724   1 H                                       1.0920470
  3648   6 C     3725   1 H                                       1.0948324
  3655   6 C     3726   1 H                                       1.0918100
  3655   6 C     3727   1 H                                       1.0916247
  3656   6 C     3728   1 H                                       1.0941512
  3663   6 C     3729   1 H                                       1.0918442
  3663   6 C     3730   1 H                                       1.0931454
  3664   6 C     3731   1 H                                       1.0936554
  3671   6 C     3732   1 H                                       1.0907229
  3671   6 C     3733   1 H                                       1.0918643
  3672   6 C     3734   1 H                                       1.0962593
  3679   6 C     3735   1 H                                       1.0916531
  3679   6 C     3736   1 H                                       1.0915076
  3543   6 C     3737   1 H                                       1.0803054
  3548   6 C     3738   1 H                                       1.0802761
  3547   6 C     3739   1 H                                       1.0802532
  3546   6 C     3740   1 H                                       1.0803230
  3545   6 C     3741   1 H                                       1.0812129
  3554   6 C     3742   1 H                                       1.0816338
  3555   6 C     3743   1 H                                       1.0801344
  3556   6 C     3744   1 H                                       1.0798830
  3557   6 C     3745   1 H                                       1.0803056
  3558   6 C     3746   1 H                                       1.0805322
  3562   6 C     3747   1 H                                       1.0806703
  3563   6 C     3748   1 H                                       1.0794011
  3564   6 C     3749   1 H                                       1.0799482
  3565   6 C     3750   1 H                                       1.0812143
  3566   6 C     3751   1 H                                       1.0816201
  3570   6 C     3752   1 H                                       1.0813865
  3571   6 C     3753   1 H                                       1.0808900
  3572   6 C     3754   1 H                                       1.0802669
  3573   6 C     3755   1 H                                       1.0802737
  3574   6 C     3756   1 H                                       1.0796690
  3575   6 C     3757   1 H                                       1.0925166
  3578   6 C     3758   1 H                                       1.0808773
  3579   6 C     3759   1 H                                       1.0801233
  3580   6 C     3760   1 H                                       1.0802939
  3581   6 C     3761   1 H                                       1.0806731
  3582   6 C     3762   1 H                                       1.0812655
  3586   6 C     3763   1 H                                       1.0804002
  3587   6 C     3764   1 H                                       1.0798572
  3588   6 C     3765   1 H                                       1.0803777
  3589   6 C     3766   1 H                                       1.0805774
  3590   6 C     3767   1 H                                       1.0810481
  3594   6 C     3768   1 H                                       1.0822561
  3595   6 C     3769   1 H                                       1.0807335
  3596   6 C     3770   1 H                                       1.0803073
  3597   6 C     3771   1 H                                       1.0801217
  3598   6 C     3772   1 H                                       1.0798160
  3602   6 C     3773   1 H                                       1.0806061
  3603   6 C     3774   1 H                                       1.0803994
  3604   6 C     3775   1 H                                       1.0802071
  3605   6 C     3776   1 H                                       1.0806099
  3606   6 C     3777   1 H                                       1.0806886
  3607   6 C     3778   1 H                                       1.0900072
  3607   6 C     3779   1 H                                       1.0917626
  3610   6 C     3780   1 H                                       1.0809407
  3611   6 C     3781   1 H                                       1.0813868
  3612   6 C     3782   1 H                                       1.0804178
  3613   6 C     3783   1 H                                       1.0803956
  3614   6 C     3784   1 H                                       1.0811726
  3618   6 C     3785   1 H                                       1.0804944
  3619   6 C     3786   1 H                                       1.0803643
  3620   6 C     3787   1 H                                       1.0801542
  3621   6 C     3788   1 H                                       1.0803831
  3622   6 C     3789   1 H                                       1.0809711
  3626   6 C     3790   1 H                                       1.0823276
  3627   6 C     3791   1 H                                       1.0794039
  3628   6 C     3792   1 H                                       1.0798561
  3629   6 C     3793   1 H                                       1.0799512
  3630   6 C     3794   1 H                                       1.0771324
  3634   6 C     3795   1 H                                       1.0799283
  3635   6 C     3796   1 H                                       1.0799603
  3636   6 C     3797   1 H                                       1.0799676
  3637   6 C     3798   1 H                                       1.0807664
  3638   6 C     3799   1 H                                       1.0803847
  3642   6 C     3800   1 H                                       1.0797437
  3643   6 C     3801   1 H                                       1.0807512
  3644   6 C     3802   1 H                                       1.0803883
  3645   6 C     3803   1 H                                       1.0805562
  3646   6 C     3804   1 H                                       1.0813404
  3650   6 C     3805   1 H                                       1.0807706
  3651   6 C     3806   1 H                                       1.0801285
  3652   6 C     3807   1 H                                       1.0807689
  3653   6 C     3808   1 H                                       1.0818053
  3654   6 C     3809   1 H                                       1.0804024
  3658   6 C     3810   1 H                                       1.0800757
  3659   6 C     3811   1 H                                       1.0803622
  3660   6 C     3812   1 H                                       1.0804262
  3661   6 C     3813   1 H                                       1.0788510
  3662   6 C     3814   1 H                                       1.0798471
  3666   6 C     3815   1 H                                       1.0803160
  3667   6 C     3816   1 H                                       1.0799285
  3668   6 C     3817   1 H                                       1.0803754
  3669   6 C     3818   1 H                                       1.0816049
  3670   6 C     3819   1 H                                       1.0813443
  3674   6 C     3820   1 H                                       1.0798836
  3675   6 C     3821   1 H                                       1.0800406
  3676   6 C     3822   1 H                                       1.0807397
  3677   6 C     3823   1 H                                       1.0806417
  3678   6 C     3824   1 H                                       1.0816989
  3686   6 C     3825   1 H                                       1.0810658
  3685   6 C     3826   1 H                                       1.0795396
  3684   6 C     3827   1 H                                       1.0798932
  3683   6 C     3828   1 H                                       1.0807538
  3682   6 C     3829   1 H                                       1.0799180
  3550   6 C     3830   1 H                                       1.0881343
  3550   6 C     3831   1 H                                       1.0877110
  3550   6 C     3832   1 H                                       1.0877130
  3680   6 C     3833   1 H                                       1.0959448
  3687   6 C     3834   1 H                                       1.0916136
  3687   6 C     3835   1 H                                       1.0896240
  3688   6 C     3836   6 C                                       1.5373881
  3837   6 C     3838   6 C                                       1.3898823
  3838   6 C     3839   6 C                                       1.3826495
  3839   6 C     3840   6 C                                       1.3846085
  3840   6 C     3841   6 C                                       1.3832820
  3837   6 C     3842   6 C                                       1.3892993
  3841   6 C     3842   6 C                                       1.3838296
  3838   6 C     3843   1 H                                       1.0798986
  3839   6 C     3844   1 H                                       1.0806290
  3840   6 C     3845   1 H                                       1.0800298
  3841   6 C     3846   1 H                                       1.0810020
  3842   6 C     3847   1 H                                       1.0813720
  3836   6 C     3848   6 C                                       1.5343862
  3836   6 C     3849   1 H                                       1.0913910
  3836   6 C     3850   1 H                                       1.0912602
  3851   6 C     3852   6 C                                       1.3902358
  3852   6 C     3853   6 C                                       1.3827906
  3853   6 C     3854   6 C                                       1.3853240
  3854   6 C     3855   6 C                                       1.3834560
  3851   6 C     3856   6 C                                       1.3885806
  3855   6 C     3856   6 C                                       1.3840160
  3852   6 C     3857   1 H                                       1.0801663
  3853   6 C     3858   1 H                                       1.0808955
  3854   6 C     3859   1 H                                       1.0801112
  3855   6 C     3860   1 H                                       1.0807755
  3856   6 C     3861   1 H                                       1.0804210
  3688   6 C     3862   1 H                                       1.0968160
  3848   6 C     3863   1 H                                       1.0927815
  3848   6 C     3864   1 H                                       1.0937882

 * 2 distinct bonds (by element types)

   Z      Z             #   av. dist./Å        max./Å        min./Å
   1 H    6 C        1944     1.0851084     1.0978917     1.0770355
   6 C    6 C        1846     1.4186981     1.5407073     1.3803276


optimized geometry written to: xtbopt.xyz


           -------------------------------------------------
          | TOTAL ENERGY            -5104.088427107869 Eh   |
          | GRADIENT NORM               0.000788722333 Eh/α |
          | HOMO-LUMO GAP               4.050709204384 eV   |
           -------------------------------------------------

------------------------------------------------------------------------
 * finished run on 2024/10/08 at 08:09:38.131     
------------------------------------------------------------------------
 total:
 * wall-time:     3 d, 11 h, 15 min, 51.902 sec
 *  cpu-time:    22 d, 16 h, 38 min, 39.560 sec
 * ratio c/w:     6.541 speedup
 SCF:
 * wall-time:     0 d,  0 h, 44 min, 36.433 sec
 *  cpu-time:     0 d,  5 h, 28 min, 38.776 sec
 * ratio c/w:     7.368 speedup
 ANC optimizer:
 * wall-time:     3 d, 10 h, 30 min,  3.752 sec
 *  cpu-time:    22 d, 11 h,  8 min, 28.144 sec
 * ratio c/w:     6.535 speedup

