3864
 energy: -5104.238442862737 gnorm: 0.000895068296 xtb: 6.6.1 (8d0f1dd)
C           53.75242599712222       42.80563668470739       56.49738954851371
C           54.02212951291348       43.52927723817150       55.34385194813128
C           53.65033560723187       44.86753413643185       55.29974108045034
C           53.01780770674191       45.46448335322151       56.37600238140925
C           52.75443607065600       44.73112598430181       57.51928938091856
C           53.12777892735541       43.40012622827989       57.57832279436798
C           54.62354467472278       42.84007167802728       54.14857904798735
C           53.62173984530335       42.88567886639489       52.99346994693408
C           55.96707577494016       43.43752600991596       53.70536495526771
C           57.04071056047109       43.46117953688944       54.80445863133090
C           57.08298981070329       42.17377625596312       55.58683457397169
C           57.25892386401448       40.94957295400253       54.95191758195664
C           57.32535705760965       39.77692942108857       55.68193726784942
C           57.21408903648368       39.81021029477309       57.06169175007730
C           57.04466109950647       41.02282812926179       57.70718198347068
C           56.98433750414809       42.19484050179196       56.97287258388304
C           58.44003947935398       43.69890289280282       54.20692354707871
C           58.77625552437261       45.15131322371871       53.83214943272282
C           59.99957232597561       45.13502160334696       52.94725830703403
C           59.91931828240508       45.50938616877051       51.61342520315715
C           61.04573540936735       45.51959569008817       50.80876318524685
C           62.27396113045528       45.15001802057814       51.32650005172746
C           62.36055534749458       44.75314794399442       52.65046216149408
C           61.23573728884956       44.74794925473248       53.45413801279065
C           59.05670410284559       46.02668366033750       55.06856281556733
C           57.85850461890527       46.84173231222756       55.59676005588413
C           57.58142299451865       46.52869284537154       57.04737146359085
C           56.31797861032888       46.13405013763692       57.46451821082766
C           56.06377222152491       45.85030241687576       58.79520487320719
C           57.06700777462091       45.97672505875087       59.73879903686574
C           58.33015984417127       46.37985220647838       59.33678141941661
C           58.58536077856138       46.64541413541198       58.00378013452330
C           58.11436790288216       48.35286723094356       55.46716358351249
C           58.13255139606141       48.87833530279489       54.02066313306894
C           58.94495172712940       50.15142849560054       53.99168378215180
C           60.20350447963370       50.16440626249391       53.40369068611672
C           60.97022761102652       51.31691461311733       53.39020822277658
C           60.48997085644746       52.47869845713316       53.96827299746698
C           59.24442244298807       52.47416182223767       54.57205951195489
C           58.48294336469927       51.32080887529191       54.58521637042381
C           56.71577785423930       49.11236597574651       53.48285343975828
C           56.73395516698578       49.62901248114906       52.03603687177379
C           57.04807578908088       48.52639517224617       51.05670947869388
C           58.14287074423555       48.61279660310359       50.20766367270559
C           58.39651967878103       47.62690411884362       49.26947582036694
C           57.56272148090373       46.52652804677521       49.16864232173918
C           56.47622249900608       46.41915894212797       50.02179953491638
C           56.22186079695234       47.41138070750818       50.95105296345690
C           55.40587843612369       50.30373482991547       51.65050351757141
C           55.59557399139137       51.35589585488894       50.54033445241805
C           55.98128406311583       52.67430692647861       51.16476715275907
C           55.05272958659926       53.42978782074690       51.87282529232597
C           55.41194060008038       54.63082050582151       52.45615397918026
C           56.71524288193812       55.08948559833396       52.36309690758476
C           57.65285825976405       54.34082640296936       51.67430111077280
C           57.28129090605060       53.15169545388184       51.07246002116957
C           54.34081022674420       51.49819313073607       49.66218211950296
C           54.25719350074738       50.37695745558034       48.61264698966267
C           55.34010808209135       50.58034258695089       47.58439644798843
C           56.34716726301605       49.63981868116777       47.41739734748791
C           57.39019199687909       49.86417401322727       46.53811000695203
C           57.43982777916842       51.03481173559413       45.80333061028335
C           56.42794833580597       51.96807855410783       45.94311445510316
C           55.38800453982019       51.74218687073169       46.82445519090682
C           52.85533884822468       50.27950942015522       47.97735846340112
C           52.38714610899336       48.81995371155632       47.84273542123903
C           53.20702415253857       48.07711625135817       46.81803137724128
C           53.05436118859894       48.30835623723264       45.45554047789353
C           53.79220851870983       47.59464351397796       44.52924180797746
C           54.71231519109850       46.64972475124617       44.94838706555518
C           54.89552191413092       46.43076880873178       46.30126866319445
C           54.14051006641151       47.13151593272250       47.22475766021111
C           50.88516048068590       48.75077463949371       47.53444222711791
C           50.34833341799452       47.31121529191540       47.52610823962232
C           50.65393505402990       46.64160278993121       48.84294786473583
C           51.58035223376823       45.60877338561821       48.92760542717919
C           51.87599890235995       45.01157872818688       50.14088197205537
C           51.26151453721283       45.45672812888332       51.29838122118591
C           50.34531784072583       46.49266303409126       51.23213253398941
C           50.04009052176151       47.07075966635247       50.01475863627969
C           48.84016031995380       47.30880297925579       47.23515054940727
C           48.25256929032908       45.88858825516723       47.12125330310210
C           46.75709021782371       45.94676656605832       47.30983813279627
C           45.90020178660661       46.27435814643336       46.26634163792990
C           44.53046414197167       46.31527177331331       46.45698674100818
C           43.99350889603210       46.04580443301241       47.70415860794252
C           44.83573907906489       45.72356291220221       48.75426480162985
C           46.20398030547970       45.67324229213533       48.55549979644990
C           48.63995430227786       45.21203337274734       45.79489027838385
C           49.80604944222853       44.22000299940869       45.94107321462525
C           50.51023135144173       44.08002949366530       44.61677525897225
C           51.82640184641453       44.50770462748552       44.47819243064728
C           52.48752095154723       44.39841214243354       43.26797275149433
C           51.83461310422621       43.88421526578726       42.16245402111325
C           50.51550790974562       43.48134355598896       42.28165072812580
C           49.86046029229003       43.57226817381630       43.49638017011334
C           49.28863195638919       42.89419693112019       46.51192185545778
C           50.38397016485795       42.01784845657023       47.14338309235751
C           49.71634101591160       41.04925028268161       48.08688271241459
C           49.68222700011460       41.32641720340553       49.44855849770438
C           48.97363857601766       40.51927029281083       50.32075238353196
C           48.29575720350554       39.41189865950291       49.84214460913723
C           48.33897286810218       39.11100587628830       48.49247181360663
C           49.03933738355406       39.92768066593899       47.62358302879796
C           51.22417344713314       41.34236642174378       46.05953350687180
C           52.34920279957778       40.45912978003221       46.60841598487973
C           53.19507703708847       41.18289745283024       47.62093795552324
C           53.79621711924473       42.40120961201561       47.32519428841330
C           54.60826375672004       43.03329433807045       48.24898047244010
C           54.84827078605360       42.44835894418788       49.47996878594754
C           54.24597055840220       41.24100171626694       49.78855518174468
C           53.41799494489175       40.62168171838334       48.87078731836855
C           53.22885024482103       39.98659721486896       45.44223870260932
C           54.28876679947648       38.96100562266279       45.85903428723198
C           53.64865571065731       37.71611524736302       46.41693446366376
C           52.75835466982927       36.96758287182058       45.65573719210744
C           52.19485423817305       35.80955165851137       46.15790913134911
C           52.50880440923702       35.38339485274467       47.43569842213356
C           53.38200717650899       36.12622541707287       48.21001651823924
C           53.94849450212507       37.28100537362067       47.70124197925828
C           55.18031825716633       38.61179903681539       44.65879389372424
C           56.31397775080807       37.64690273242996       45.03251197976844
C           57.23464333751360       38.27786870607960       46.04664260300826
C           57.44918571513850       37.68731208636733       47.28499738334239
C           58.31918185067867       38.25383053754960       48.19996551611969
C           58.98706045891689       39.42556425317306       47.89279648817877
C           58.77309269294529       40.02996064821134       46.66723992796209
C           57.90213962526748       39.46161830598155       45.75728662432283
C           57.09479159274471       37.19761839977817       43.77641500067838
C           57.25526729244117       35.67216766437627       43.69621561300384
C           57.70774793754362       35.24177407328764       42.32290722767442
C           58.95066527215445       35.61345125515673       41.82439236377125
C           59.38027422373756       35.17098445457805       40.58724450391397
C           58.57425323896961       34.34555085720157       39.82334407888928
C           57.32490704460126       33.98651624330432       40.29752570522459
C           56.89523922123853       34.43771666587658       41.53250826319015
C           58.22111625915991       35.14066774034008       44.76354672212199
C           58.16267011180924       33.60780952734487       44.86013386628488
C           56.77869270748075       33.18971412617690       45.29038022600088
C           56.28819901928625       33.52129414044440       46.54790973784285
C           55.00845658005357       33.16210407959877       46.92720702296362
C           54.19287668523494       32.46183173699422       46.05558431057766
C           54.66728746157846       32.12862594607039       44.79899191807182
C           55.94642539165796       32.49504499627744       44.41946438858772
C           59.26036421802684       33.06388443253314       45.79492114412414
C           59.84355504758769       31.73106647491464       45.29870968356386
H           54.78617292488666       41.78805385795032       54.40985043133610
H           56.33070870879977       42.84378892269378       52.86240902301981
H           55.81234935682981       44.45630572401951       53.34337385814827
H           56.81147093099239       44.26461656599083       55.50904511932553
H           59.18884106302363       43.35812422413590       54.92568041604162
H           58.54590388997933       43.07394194252354       53.31579768265426
H           57.94854776301225       45.57760311694836       53.25632252867223
H           59.43276356347700       45.38057136949631       55.86289121092869
H           59.86572799753307       46.71811351335572       54.82083851294064
H           56.96298671564332       46.59398401608166       55.01932898440065
H           59.07778799501705       48.58000330338795       55.92999088950442
H           58.62973281171987       48.14049367862978       53.38167351269810
H           56.14517313854024       48.18466559478127       53.54514969977555
H           56.21609908469932       49.85264477425034       54.10999828458647
H           57.51957669943221       50.39118021838391       51.97860352934114
H           54.69557294738854       49.54314862068198       51.32324023251851
H           54.98602128733074       50.79716472976736       52.52956442637109
H           56.41423614763141       51.03038577533641       49.88791629008397
H           53.44572931238049       51.48329477337970       50.28489213406787
H           54.37202231321491       52.46732070710667       49.16110733542624
H           54.46081257157427       49.43083909015522       49.12500702264668
H           52.54159411399501       48.33657116196608       48.81523327498293
H           50.35146182217979       49.32342217698773       48.29429200009682
H           50.67895301800887       49.20505451531053       46.56377377047484
H           50.86274658143846       46.77525831527502       46.72298917548379
H           48.31780771770499       47.84294181237991       48.03191761916887
H           48.65649821200967       47.85855847164503       46.31004888539813
H           48.66136542800908       45.30084975489396       47.95092996688703
H           47.78574751838065       44.66526378163361       45.38998812154492
H           48.92014371389588       45.97694994229987       45.07039521326354
H           50.52046962792719       44.62947655661552       46.65773900639021
H           48.55596857694415       43.12714060781509       47.28879274672164
H           48.77199380481908       42.32416301701606       45.73760905856398
H           51.03964022798531       42.66411024404692       47.73881929658125
H           50.57837311991184       40.73527119978491       45.42315547442553
H           51.65808043688312       42.11655893462223       45.42677063470140
H           51.90502694288718       39.58127989922351       47.09271309709690
H           52.59209921661217       39.55558479690536       44.66719905465560
H           53.73209697768967       40.85671274369935       45.01401947118821
H           54.91877988205203       39.40959104559553       46.63651304072539
H           54.56503070377052       38.15289989296623       43.88320163355050
H           55.60447081235484       39.52990625842582       44.24821071277444
H           55.85258646400355       36.76314409669101       45.48901003308374
H           56.56257192001966       37.52507048302927       42.88019893115209
H           58.07857721289800       37.66919714168240       43.76465116991222
H           56.27259286387379       35.22425787780791       43.87842843151888
H           59.24028909836741       35.44139416591987       44.51294297057041
H           57.97168456359236       35.57701077390686       45.73057846441040
H           54.03272020457977       41.76150183015833       56.53748661995699
H           52.92288999773388       42.81877670527097       58.46520697879976
H           52.25428172442340       45.20018312122255       58.35468822734962
H           52.73288045095605       46.50504867293703       56.32963369146879
H           53.84978873511985       45.45346214593096       54.41329037668817
H           57.34280866790054       40.90295993265008       53.87605321453236
H           57.47100508087249       38.84007040820273       55.16556800719292
H           57.25437443431269       38.89504710268866       57.63717563321028
H           56.95233695571232       41.05320360596454       58.78425090876453
H           56.85221225418030       43.14003550450854       57.48263880688295
H           58.96632365786216       45.80326429684237       51.19930494429737
H           60.96281864985630       45.81745917163082       49.77303703213311
H           63.15563522024796       45.16157965062358       50.70303015298401
H           63.31056776997156       44.44279808797896       53.06476584413723
H           61.32493306506665       44.44633932541684       54.48642224226324
H           55.51631774242982       46.04057103975769       56.74664825456227
H           55.07512724455968       45.52620470580823       59.08560138680736
H           56.87225112395392       45.76240006557035       60.78023580327498
H           59.12317901829811       46.48342081055163       60.06602207115778
H           59.58042260181701       46.93959673416915       57.70237265879943
H           57.35237567073256       48.89658895710892       56.02953758804711
H           60.58961167746702       49.25978561498694       52.95236596953930
H           61.94384167592690       51.30798321837353       52.92014324314625
H           61.08599677264596       53.38034850675093       53.94827302706785
H           58.86167763785967       53.37059441194909       55.03696322773024
H           57.51926050995834       51.34224963551146       55.06940146850222
H           58.79890028682400       49.46912010527058       50.27489302199420
H           59.24268448383850       47.71989150826239       48.60382645539941
H           57.76237668229398       45.75992446806649       48.43330627892845
H           55.82241445316455       45.56014035608069       49.96037287294378
H           55.35955389441032       47.31719031777441       51.59683168257347
H           54.03387652519186       53.08174733303903       51.96171305816981
H           54.67277350931278       55.21624118606565       52.98588386322361
H           57.00225682813699       56.03017709203486       52.81443484731390
H           58.67443923053566       54.68954620318684       51.60103860309228
H           58.01426613481517       52.58797426401532       50.51233572877921
H           56.31996497323578       48.72431387959254       47.98854648157140
H           58.17246446891861       49.12743836356402       46.42374596633153
H           58.26212852200577       51.20629878192813       45.12330162939904
H           56.45175299636734       52.88310502490025       45.36982985550163
H           54.61580604218241       52.49003096615000       46.93123948177882
H           52.13791688064029       50.81675926504928       48.60314396979416
H           52.85648768806286       50.75502499849049       46.99526817762280
H           52.34425315227229       49.04270110443257       45.10232130516753
H           53.64884262075911       47.77079463732698       43.47256837865667
H           55.28612504333638       46.08718517561341       44.22561557903474
H           55.63147321233939       45.70954175623247       46.63024440850230
H           54.27697434791728       46.93752067699450       48.28025898114911
H           52.09503589829297       45.27106019664455       48.03813750377883
H           52.59055557237959       44.20005033295529       50.17860766015449
H           51.49371239140742       44.99957896078530       52.24911144750807
H           49.86881667832952       46.85543696464025       52.13136236677398
H           49.31539853317319       47.87035915727568       49.98183316299001
H           46.30507720608650       46.48981425856270       45.28914788006625
H           43.87858413760461       46.55234197896267       45.62836081609917
H           42.92429212340549       46.08531626991699       47.85450851332234
H           44.42597164230997       45.49745970370783       49.72886254796884
H           46.85672609624918       45.41215446084116       49.37778879841802
H           52.34859352618826       44.92841555373501       45.32782533363298
H           53.51640057775564       44.71856457413841       43.19319692449965
H           52.34401026073848       43.80124983585142       41.21329479630105
H           49.99790968835816       43.09912893370559       41.41543448851893
H           48.83381848544278       43.24227944470298       43.57268814124409
H           50.20754364237095       42.19255596871124       49.82880247961932
H           48.93855644589645       40.76561121800763       51.37352096931657
H           47.72121480475048       38.78826149624588       50.51165822816512
H           47.81350541598131       38.24320008981138       48.11786591023264
H           49.04313296167129       39.69479237932707       46.56995397686440
H           53.62676224054493       42.86791337764852       46.36500625976145
H           55.05864285141849       43.98422214904304       48.00480826696607
H           55.49679405647317       42.93115462276264       50.19817814203797
H           54.41729792069312       40.77808470166178       50.74997515027624
H           52.93844058889646       39.68552635049441       49.12395176136203
H           52.49837652474605       37.28247392858425       44.65570697946150
H           51.50903423754499       35.24130336387329       45.54550931070982
H           52.07612019020998       34.47432516295282       47.82663230535807
H           53.62659370531878       35.79948787176733       49.21063845862127
H           54.63778054691329       37.85653477933823       48.30439971172847
H           56.92206836837157       36.77549095284928       47.53457206306450
H           58.47656756332678       37.78603129875327       49.16142904579937
H           59.66809363514744       39.86232324036023       48.60876304719035
H           59.28819303514929       40.94642409558539       46.41587842512201
H           57.73953207030100       39.94525113278839       44.80562707675619
H           59.59655796449828       36.25360950013111       42.40822270038754
H           60.35306854853355       35.46338391239907       40.22113721432980
H           58.92233393123435       33.98970375795719       38.86352345032392
H           56.68479567569677       33.34657192008834       39.70680205723055
H           55.91373651069644       34.16004634683953       41.89167089312011
H           56.31162640771546       32.23334500423332       43.43544054973453
H           54.03969012301994       31.57924269610806       44.11053122887972
H           53.19678949069997       32.16978206629327       46.35441111354085
H           54.65000431326004       33.43552715660122       47.90860821584854
H           56.90869056578070       34.06137276748947       47.24860300352037
H           53.98501380446929       42.30444189412052       52.15387471768647
H           52.66690688466274       42.46523831223844       53.30349422118820
H           53.46600906940333       43.90812170103867       52.65939552877366
H           58.34522788200632       33.21066607986155       43.85379606603989
H           60.08182554725516       33.78431500706443       45.83869908684889
H           58.87409444822780       32.94205917884024       46.80783337693479
C           58.82879516685666       30.58264348271982       45.37573492559262
C           61.10077956249466       31.39613669880066       46.06312614103440
C           61.05745885731442       31.05233944659919       47.41020958724307
C           62.21283725665311       30.73383715337501       48.09991541755092
C           63.43824121694998       30.76216006913540       47.45581717448215
C           63.49853494278611       31.12363570999170       46.12158611318874
C           62.33914750985021       31.43894822520938       45.43538706102169
H           60.11253489408838       31.03747212038265       47.93411908383914
H           62.15478510244449       30.46998725795261       49.14627926830278
H           64.34185515444372       30.50778153099709       47.99166998914922
H           64.45033108523947       31.16158768334246       45.61177869352719
H           62.39951103391383       31.72897103525468       44.39605934203060
C           59.18861724315407       29.44074284780941       44.41467933877730
H           58.78383529920143       30.19275471632280       46.39353687704430
H           57.83685185089703       30.95415338073062       45.12050768172902
C           58.97033631243131       29.85960878578291       42.98887728914752
C           60.03277138821227       30.20897646171229       42.16638737004386
C           59.81247448069990       30.64184472751871       40.86990743779366
C           58.52305754538564       30.73119394966400       40.37733172151847
C           57.45475262394505       30.38032180170617       41.18563828783321
C           57.67914782673537       29.94756482298863       42.47958150446070
H           61.04349775802243       30.13180283796569       42.54303315356383
H           60.65082918317022       30.90825694268853       40.24307519403093
H           58.35041001844898       31.06455673201908       39.36493010276271
H           56.44612325124971       30.44138200766243       40.80182589072207
H           56.84417617966303       29.66726072077414       43.10697466852189
H           60.11573199262903       31.87223093778731       44.24630294111798
H           60.22986004448718       29.14991886726893       44.57022656589145
H           58.55606083765271       28.57849210971669       44.63955279109300
C           35.21430082904741       54.00682652550721       53.08664062646746
C           34.59956354875791       53.81658538992740       51.85405081457903
C           35.23819319224251       54.29358521916315       50.71571555280088
C           36.45164893370232       54.95319938849130       50.80936231707169
C           37.04455924772072       55.14954603317522       52.04426514307293
C           36.42455832866531       54.67033014405607       53.18516587358272
C           33.22262789699142       53.20226928195294       51.79950201942547
C           32.19486019694180       54.33384950934614       51.67401571998622
C           33.02353018141064       52.19466370729025       50.66145693312441
C           34.00754484151742       51.01888590187433       50.70314357232861
C           34.07623809882798       50.38321087114706       52.07088510382199
C           32.93082755422174       49.88685876021950       52.68555497620058
C           33.00407425050880       49.24372095445214       53.90755707203349
C           34.22658570926532       49.07915442281207       54.53575006333155
C           35.37231430972631       49.57542793973659       53.93987003098556
C           35.29387962371204       50.22483823882619       52.71932485913763
C           33.61500882725463       49.91265291523001       49.70727255139297
C           33.65427036586301       50.29269639947692       48.21801773466182
C           32.84094870244181       49.28394752382064       47.44366835594040
C           33.16910153326989       47.93275749723886       47.45814049176077
C           32.39796753043817       47.00981900623091       46.77634955744868
C           31.28828548944379       47.42163278693040       46.05860666181403
C           30.95207406300841       48.76395545227718       46.03380763218259
C           31.72036998951625       49.68338944213978       46.72647019293402
C           35.08844384119580       50.36982714912121       47.68327034757823
C           35.15172240617772       50.96247623498871       46.26703562710385
C           34.67292850525038       52.39135810347681       46.26645363191042
C           35.36466910996585       53.38641302402750       46.94837509232279
C           34.93044468377828       54.69938730905942       46.92344733795952
C           33.78480272707458       55.03797608292036       46.22334389125738
C           33.07723907879467       54.05533121517383       45.55288055408180
C           33.52163917597521       52.74484898049968       45.57391227632219
C           36.58317989672290       50.85460048972664       45.72425000361140
C           36.77946177047471       51.50862719835614       44.34951532419165
C           35.87257688823136       50.88625514849124       43.31967846173679
C           36.02416950086015       49.56008121804468       42.93155873550447
C           35.18811470285731       48.99863889387954       41.98371283470449
C           34.18172990112979       49.75377701711938       41.40683562398673
C           34.01967189918410       51.07548320199972       41.78560493103382
C           34.85980171630753       51.63434631056754       42.73239221854627
C           38.25376455988518       51.39767990671982       43.93345107012100
C           38.51946788612423       52.01358765505522       42.55282582088038
C           38.21039201759365       53.48938018646606       42.57372396600029
C           37.16951335664798       54.00061697064572       41.80875150445414
C           36.85466835392182       55.34769688765548       41.84347504532630
C           37.58397097637190       56.21083340463464       42.64321024923406
C           38.63129736652286       55.71622331214432       43.40134543850510
C           38.93860874265084       54.36850751791575       43.36758564525755
C           39.96215464949178       51.74842421858766       42.10101466605087
C           40.21164874194590       52.28084244023839       40.68394612159460
C           39.39462813627938       51.52037522224445       39.67240861026323
C           38.42042035220827       52.17155594263554       38.92677631740050
C           37.66146391266926       51.48788107280443       37.99357383433464
C           37.87084934176286       50.13562473718051       37.78798124547733
C           38.84179130035895       49.47696607146973       38.52217076524375
C           39.59526044605214       50.16214086887561       39.45619277920130
C           41.70039172550078       52.24072332984953       40.31984381613674
C           41.96722215209282       52.92392407038159       38.96453345208154
C           42.10260619415978       51.91114609666801       37.85583958000775
C           43.14121492705493       50.98725777337312       37.85369344222935
C           43.26862257500640       50.06864942246018       36.82872622133566