3536
 energy: -3716.279495127975 gnorm: 0.000918236819 xtb: 6.6.1 (8d0f1dd)
C           74.05509652542918       50.03626358317681       37.90208048084076
C           72.60343135902949       49.60647598953397       38.11680065345925
C           71.66138765169156       50.72702829912687       37.68245216245420
C           72.40524709009266       49.21912619192661       39.58757569209609
C           70.98715497033734       48.80071068599320       40.00210199150539
C           70.97232008877663       48.53774296690374       41.50764077947093
C           70.51932159910535       47.57294311534863       39.21145186222418
C           69.10988819410480       47.05205473092801       39.53443648231405
C           68.86699443126471       45.76685256228573       38.74326366272516
C           68.05158697797731       48.11329100799842       39.21280340343945
C           66.58876548486533       47.73645289354702       39.49538441359998
C           65.70145854556993       48.91197333016873       39.08704465333845
C           66.41371706610077       47.38131492466049       40.97578950590180
C           64.98478439728105       47.14715100645013       41.48546279186438
C           65.06820049231813       46.90994759744495       42.99269625706773
C           64.31648420906494       45.96083857061856       40.77987373226239
C           62.81325081511871       45.80473615765015       41.05776874199236
C           62.37686351997775       44.37983435446228       40.71691293844364
C           61.98691525087425       46.82500146620694       40.26299814857416
C           60.59024007236110       47.08813846123269       40.84653223917601
C           59.73130543629224       47.81366088579069       39.81139046218592
C           60.67591641496854       47.89011263499345       42.15960360856496
C           59.90601348937399       47.27118019925638       43.33231850026117
C           58.40097426056911       47.46744875541187       43.15355098297574
C           60.34734884227951       47.86907419047141       44.67737894295974
C           61.77980678815285       47.53572118936467       45.10996448225158
C           61.95978213725759       46.02964582096665       45.29599347953523
C           62.15580214201916       48.26454005376709       46.40952463295824
C           62.36001377515897       49.77905433349791       46.27954573639948
C           63.48051382766121       50.09432167043676       45.28538565578339
C           62.72415678900042       50.42193865525509       47.62813492665035
C           61.74907124562459       50.21010729617037       48.79205090126814
C           60.31230247306199       50.54729111179393       48.39214974051716
C           62.12411323155911       51.09602127324867       49.99184183237175
C           63.55103667370209       50.96543536178302       50.53796095927918
C           63.89186314061643       49.51431491799576       50.87913904326238
C           63.74317254478807       51.82380537843054       51.80088044224414
C           63.44826638520071       53.32171503537692       51.66234588354958
C           64.38140542821381       53.98301324743652       50.64956479401342
C           63.59691091977040       54.05934962087368       53.00204519153751
C           62.69122725165688       53.60289449718144       54.15251549724949
C           61.23771425596588       53.45226965239711       53.70444251333419
C           62.73081155952859       54.61466095075126       55.30889389931882
C           64.10659848434064       54.95019195983108       55.89527599042979
C           64.83272290151950       53.69328437509458       56.37221369366907
C           63.96814746665922       55.90241273869605       57.09287392626161
C           63.31186555232598       57.26143784025948       56.82892615035318
C           64.13306121657963       58.09594268945605       55.84786964761070
C           63.14215992128852       58.04676907197799       58.13913767148144
C           62.17085338484708       57.43875647925331       59.15783469868863
C           60.77465008151194       57.26491871062145       58.55934185007352
C           62.04592326416044       58.31421518153919       60.41310380052064
C           63.32878031462781       58.58727874975005       61.20789612170936
C           64.06546879768209       57.28697563933053       61.52713778758081
C           62.99391792730068       59.29324657110750       62.53120031363872
C           62.37637743524477       60.69174407148702       62.40919877730904
C           63.44944256484734       61.71390724500726       62.03790281349539
C           61.69426487045377       61.12484378226656       63.71603493187672
C           60.48195474985200       60.28821982279991       64.14372100286216
C           59.37043956200753       60.32293638080428       63.09803695253909
C           59.94551848676649       60.77293600444216       65.49891899374863
C           59.05856240206763       59.73641023632597       66.21617778781194
C           57.74258630648652       60.37389102960062       66.66511560914873
C           59.75344715309438       59.12178051802039       67.43913207919795
C           61.06987125711096       58.37928054595938       67.17601581575626
C           60.85902446799567       57.14687416709904       66.29915337753546
C           61.69865910857869       57.94249378065498       68.51069346793105
C           63.23723777428859       57.91774419497731       68.51950554289836
C           63.73295458792766       56.81355640661227       69.44878488546701
C           63.76522782518665       59.29224201110495       68.95098408610427
C           65.28343460591034       59.44075587436696       69.13011695971831
C           65.57669370484331       60.86544533866283       69.60262871361491
C           66.03031978986529       59.10317952876349       67.83554370651272
C           67.54108371126263       59.38394762586492       67.81654632674694
C           68.06341566478282       59.08388706664543       66.41251464741222
C           68.27145812159250       58.54821412170215       68.87225106146828
C           69.76564403856273       58.84460650254412       69.05768345313724
C           70.34483230491237       57.85140945725126       70.06691975436846
C           70.02781878904973       60.28986432499656       69.52476213445561
C           70.70088642451162       61.17705189592552       68.47070017627718
C           72.16179873039015       60.76528706780274       68.28470016958066
C           70.65753682672859       62.65972802844610       68.86501234159496
C           69.28127840701420       63.33936190716425       68.82873254630590
C           68.72089151178426       63.40067970960774       67.41137020108529
C           69.42292738278097       64.74894604178907       69.42091205949392
C           68.11973695982178       65.53563997631021       69.60479873437562
C           68.44127233499651       66.93252646326387       70.13804839297748
C           67.08972529763449       64.82609687096331       70.49495478726610
C           67.59050629826368       64.40095624718670       71.87378233239411
C           66.46286726708965       63.79855768248363       72.70454923552607
H           74.73948588659982       49.24634727699578       38.20411248230320
H           74.23688854846507       50.26343537687509       36.85387281767967
H           74.27902694543269       50.92578286174590       38.48793191352728
H           66.83210558336906       63.47006399101085       73.67369370333027
H           65.67619857497397       64.53213568808491       72.87010824951339
H           66.02978702878950       62.94147844286859       72.19330461999067
H           66.24268722463158       65.50344887829650       70.62870753624524
H           66.71465358936663       63.94135355257863       69.97572290170719
H           69.92301821939570       64.67797178949610       70.38953785591363
H           70.07994047690401       65.32998862585141       68.76665047695160
H           68.59022988137582       62.76697238883798       69.45339718063745
H           67.71222270696147       63.80347900169110       67.41671583663278
H           69.34113736799108       64.03982502128527       66.78591714780093
H           68.68240100900982       62.41250792605081       66.96110474728582
H           71.06507927912057       62.75134958447862       69.87632860009634
H           71.32611501728027       63.21219363322124       68.19938753584634
H           69.08289565666686       60.74110956429024       69.82791596102025
H           70.66716368992810       60.27725779230265       70.41112251624369
H           67.65223984324146       65.66895858453098       68.62233300712522
H           69.08044728983131       67.46761230198156       69.43865612637904
H           67.52856169619331       67.50846871350555       70.27473200814607
H           68.96062358129986       66.87670663780179       71.09170282668303
H           70.18689869023788       61.04628069262849       67.51497251338971
H           72.61527073741922       61.31865237050708       67.46486196499184
H           72.73110526127466       60.96999404475611       69.18992445860151
H           72.24715276528079       59.70314926043284       68.06760683805318
H           70.27035107574258       58.67720615840838       68.10194614198812
H           69.87124842516694       57.97924084275381       71.03851433714686
H           70.17970173915481       56.82541082664279       69.74326726235218
H           71.41641042855922       58.00148231284995       70.18477231917819
H           67.78612326376660       58.68740605253634       69.84044965575919
H           68.16467954015692       57.49471406635615       68.59887408523494
H           67.70728180575409       60.44453750855986       68.01956052857946
H           69.12141967735612       59.31570950330387       66.32547302786493
H           67.92142089711069       58.03115871980891       66.17446971410277
H           67.52662347138245       59.67553265807671       65.67451724469142
H           65.88205792850162       58.04429471432335       67.61261081507962
H           65.57386454418595       59.67422043450769       67.02430589916302
H           65.59874486206539       58.75406036452382       69.92145468616249
H           64.93164119736019       61.12768268920412       70.44028020519484
H           66.60739303637102       60.96902396237684       69.93314998322518
H           65.39805478962448       61.57746849320088       68.79980292185621
H           63.42872836670995       60.03769701292816       68.22472524536884
H           63.30147588283707       59.53752941221655       69.91085209840992
H           63.59010892923433       57.70072236473183       67.50638066111006
H           63.26189044604419       55.86650540749898       69.19456773655037
H           64.80734912544506       56.68116546951179       69.36400852427977
H           63.49034297915815       57.05252615943561       70.48146519599111
H           61.36163520483399       58.60336721598448       69.31121467514559
H           61.32675126933408       56.94474362497433       68.74703328186605
H           61.76042669423404       59.05910952779123       66.66669210088020
H           61.79241946517435       56.59808969578613       66.19279626046577
H           60.12075134781757       56.48654874557634       66.75025459709418
H           60.51098502316197       57.41268092404675       65.30520353898959
H           59.94803698607677       59.92794465077601       68.15209901659756
H           59.05840750018631       58.42426958653309       67.91656163957505
H           58.81166188882138       58.93028451153630       65.51902696508895
H           57.10753645253234       59.64284025287815       67.16241610407791
H           57.93375728782240       61.18856651805715       67.36216033981657
H           57.19495907133948       60.77139519814185       65.81338481087521
H           60.78336341730961       61.03645806505835       66.14812912952839
H           59.37610986564847       61.69107748815630       65.33436923240609
H           60.80687188169268       59.25225688336124       64.26881211611142
H           59.10901808380049       61.35016453119074       62.85190658908243
H           59.67341505625800       59.81651890635470       62.18531163596248
H           58.47899009283503       59.82860370165533       63.47744172335732
H           62.43799551247960       61.09253093259358       64.51675109645258
H           61.37552322877303       62.16612650037082       63.61086406743607
H           61.62574683142738       60.69249636436135       61.61653100432555
H           63.01322746301420       62.70245824797794       61.91082986495562
H           64.20731912444568       61.76787601656559       62.81689504310815
H           63.93841725672739       61.43699680719950       61.10687699307454
H           62.31503543998289       58.63994560825088       63.08135286915022
H           63.90841336166949       59.37624854384563       63.12563363033283
H           63.99208027781765       59.22863449497622       60.61927669235385
H           64.47346955105195       56.83396365531606       60.62709629075211
H           64.88893145633510       57.47270006822343       62.21367292612327
H           63.38560545767515       56.57890745303744       61.99598640172736
H           61.60987776482309       59.26695879981833       60.10922090844530
H           61.33440103545776       57.82687464824526       61.08709211660189
H           62.53266964665024       56.45279600890728       59.46266207100847
H           60.77121661137258       56.51382871304523       57.77543272835565
H           60.07351056541459       56.94734991378891       59.32817085471494
H           60.41688543078608       58.20317874853153       58.13901174755302
H           64.12581143845887       58.15295179228411       58.60204375923428
H           62.78996643912635       59.05161057008483       57.89320883139842
H           62.32316021205924       57.10820391027420       56.39004260483256
H           63.66532918373195       59.06646096954875       55.69638488668068
H           65.13873593422004       58.25925378301619       56.22667968096382
H           64.20574136596574       57.60439127788181       54.88157111472214
H           63.39559788452229       55.37827015864423       57.86103121394342
H           64.96718727998739       56.08351525985194       57.49965834113013
H           64.71874241490505       55.43228167122460       55.12729602378362
H           64.23803600139709       53.17158172431679       57.11650705711046
H           65.02716991888482       53.01114150326849       55.55007467848041
H           65.78488252624187       53.95221004430832       56.83144278188098
H           62.27418275360601       55.53802288822757       54.94580281066266
H           62.10395257427408       54.23092917068347       56.11939907903119
H           63.03742665857899       52.63116482116951       54.52008784263186
H           60.59986697431241       53.23316066807664       54.55879197531922
H           60.88169105029898       54.37338463347445       53.24828354454105
H           61.12437258877393       52.64554354564082       52.98602766247258
H           64.63809805135716       53.97671123115903       53.32277117179686
H           63.39468101833524       55.11802452889406       52.81688307427110
H           62.42118151210567       53.45332945358266       51.31252179215983
H           64.29170981540459       53.52420157685778       49.66963186653737
H           64.14819626678641       55.04185869112957       50.55276117428041
H           65.41795656260224       53.89736922479661       50.97092133480032
H           63.10606018668669       51.41146811997821       52.58627442876426
H           64.77921571587517       51.71004835618123       52.13437594520900
H           64.25641913732765       51.30678012632318       49.77662085971566
H           64.86113841204129       49.45724694519193       51.37237427518424
H           63.14541311105966       49.09214380740807       51.54901777318584
H           63.93578591014964       48.89979930447272       49.98353206561027
H           61.96112009115186       52.13267206160330       49.69033283755155
H           61.42384981094783       50.87585817442403       50.80277628640299
H           61.78199666464774       49.16141279722901       49.10360935161377
H           60.25823794689294       51.56019525810227       47.99708472641858
H           59.93762385025261       49.86177721088772       47.63715736669821
H           59.65722558962337       50.48667525810699       49.25995361057208
H           63.70747681607444       50.04640744454488       47.92172558334794
H           62.81889605404155       51.49903357298134       47.46647422725351
H           61.43862584042169       50.24039931998130       45.91244148930016
H           64.37934848238497       49.53187448292982       45.53265110889007
H           63.19113483176119       49.84766820300476       44.26759436977455
H           63.73091734827921       51.15256699841633       45.31150832130419
H           61.38209077607046       48.06061126828882       47.15116363399151
H           63.08938877309398       47.83511639444689       46.78357403552100
H           62.47225596870055       47.85960051834772       44.33060331510774
H           62.95499994661649       45.80562306471028       45.67402207190900
H           61.22712570904439       45.63946266518157       45.99860950270742
H           61.83677199555998       45.50033604105653       44.35373966742949
H           60.23614096580042       48.95396111852127       44.61846358234299
H           59.66632187746839       47.50925876238017       45.45406140626013
H           60.10102267962466       46.19372040771817       43.34546477447827
H           57.85255211662601       47.02225854531131       43.98144720415246
H           58.15525408093843       48.52750298233021       43.11484474742516
H           58.05721990091032       47.00205984255175       42.23305315922208
H           61.72418827227459       47.98565787297615       42.44060121047623
H           60.29937011846419       48.90176485988341       41.99390661629567
H           60.11863304017166       46.12103450539114       41.05234899825231
H           59.63184629044509       47.21528991007266       38.90689469827438
H           58.73629249430353       48.00928719375374       40.20182818844792
H           60.18430550010534       48.76486701019150       39.53809384750466
H           62.52090089003958       47.77680403997518       40.21508548631029
H           61.88570502652239       46.46327853248305       39.23577721222876
H           62.63123755026614       45.96163185042867       42.12360032880173
H           62.59724744043041       44.15265738389252       39.67508730185707
H           62.90023070613621       43.65826506468385       41.34111262579579
H           61.30862328056379       44.24963269253404       40.87455291793489
H           64.45008844178653       46.05454772255545       39.70033737994813
H           64.82944004232871       45.04676031683336       41.09135932261976
H           64.39401408135636       48.05117486558968       41.31457526552928
H           65.69989624295327       46.04831801616695       43.19857172408396
H           65.49854090134932       47.77597093265493       43.49092498192532
H           64.09072056025529       46.72114867043231       43.42328119391549
H           66.98859298635315       46.47654862270420       41.18454123621238
H           66.84883152532434       48.19208620062317       41.56700934891413
H           66.32014931749303       46.87544831285808       38.87626428124387
H           65.92680406250429       49.22225261242274       38.06829332412485
H           64.64890198771727       48.64631881210750       39.12933409799054
H           65.87489955229267       49.75852262181530       39.74808334573481
H           68.26908304188244       49.01175153999100       39.79243694020816
H           68.14259013447548       48.37382003521862       38.15396391910643
H           69.06787017176336       46.80634084920293       40.59789039166996
H           68.84625388085330       45.97419138800041       37.67483199169563
H           69.65937326077774       45.04655121112426       38.93611154898272
H           67.92305521498125       45.30770945750517       39.02366352347064
H           70.55086324470430       47.80664164321665       38.14514033817492
H           71.23331138527037       46.76365602530186       39.38955281947814
H           70.31581576965901       49.63830880029955       39.79769058231259
H           69.95938461746546       48.37614750231937       41.86554176511683
H           71.56781659246926       47.65963419916304       41.74848301052467
H           71.38716383406097       49.38801495544824       42.04614658581615
H           73.09151202918383       48.40076250043981       39.82310746320105
H           72.69954896442373       50.07496557904215       40.20268812835086
H           72.41817565647004       48.72976043786947       37.48713426044119
H           71.90772189836011       51.05523606687074       36.67468219285144
H           70.62699532172283       50.39395496025039       37.68307079223569
H           71.75144018983841       51.58052866990261       38.35062580806170
H           68.38606588316155       63.66127305896737       71.76986818358111
H           68.00153340418522       65.26235029439833       72.40307629154873
C           61.23914172337080       49.62279788868571       74.62064499680967
C           61.73670787578810       50.01919362198859       73.23066580229461
C           62.74670483268866       48.99300739908140       72.72577594435903
C           62.33514711649518       51.42923812962579       73.28605732515406
C           62.88796367867617       51.99540735213306       71.96886455374640
C           63.39647612112972       53.41161589098268       72.23190051068451
C           61.82569802231997       51.98727638736314       70.86524989095606
C           62.25704606133276       52.54354246215686       69.49888557925760
C           61.04643516227188       52.48727288771153       68.56892517896860
C           63.45171139508399       51.75217981474082       68.94989856448298
C           63.82659487220467       51.97866016157631       67.47694198699617
C           65.02683218264481       51.09074772407072       67.14772055307614
C           64.12810316967369       53.45121929075876       67.18282333176663
C           64.39410382353829       53.80862410591533       65.71144929428664
C           64.88554115722857       55.25489576713618       65.65231417844781
C           63.14196298666609       53.62439399145446       64.84400043467924
C           63.40647521836603       53.65728981465166       63.33151102868752
C           62.08822681958362       53.86938941393386       62.58658430191305
C           64.10763990343820       52.37516812757774       62.84158294012613
C           65.37851281586032       52.62858423815211       62.02244578040456
C           65.07222747752596       53.40242916717985       60.74018302347686
C           66.07295439794748       51.31740291826087       61.62832189973232
C           66.53419465094873       50.39534655903793       62.76197214042811
C           67.46916725630108       51.11176979585746       63.73532779354731
C           67.27430810689877       49.17385722314465       62.19567912549556
C           66.47616171588203       48.25423691395738       61.26352778476925
C           65.25461584918547       47.67210841428965       61.97048646029722
C           67.36801576256141       47.10624939245240       60.76346030819287
C           68.32802211166162       47.48704999436346       59.63121451766338
C           67.56222010615478       47.62378156715064       58.31433418395550
C           69.44102621323634       46.44583183885895       59.43790524200913
C           70.36041512592382       46.16965036376723       60.63618501246771
C           70.85953904165950       47.45786221665384       61.28973414584335
C           71.59018253952452       45.35793484129497       60.20091714567469
C           71.32793814434321       43.99638926303363       59.54447652682556
C           70.63213444122314       43.04509960317742       60.51448954491396
C           72.66952240542118       43.42412569270989       59.06398093292259
C           72.58825479857651       42.22724487365961       58.10648501861635
C           74.00620244261422       41.75522501082233       57.78146807539380
C           71.82027651785036       42.57223773292882       56.81703370359939
C           70.40318854285796       41.98207989371996       56.77503224503832
C           70.46968078970833       40.50161225607518       56.40276944431436
C           69.50420281073696       42.75206897303146       55.79998544308217
C           68.00493812233586       42.53243647000058       56.04614289920742
C           67.21043609927221       42.94323647930300       54.80959125259007
C           67.52548882593229       43.31674078412081       57.27598144589437
C           66.35352229508054       42.66231308849775       58.02129968517486
C           65.67069428829566       43.69725750171537       58.91186482719700
C           66.86093220963018       41.47528190848402       58.84922348163477
C           65.78532000787357       40.53673455052341       59.41448794401809
C           66.42740973330420       39.63324022780571       60.46853930193829
C           65.14515464528365       39.69572268006741       58.30263243582478
C           63.79901254826270       39.04275598461258       58.65823173615185
C           63.50090581393663       37.93340325362798       57.64881592850697
C           62.68401202689834       40.09658320670955       58.68133023792834
C           61.28917499416648       39.59668992075081       59.07771340308751
C           60.25568322282291       40.68882522318784       58.79944369636461
C           61.18598465979887       39.09050507073615       60.52648125884987
C           61.48996558517042       40.12746535928621       61.62693827304441
C           62.82683630068723       39.81761974416278       62.29936884284332
C           60.35781181062999       40.17664289718083       62.66372328339654
C           60.42604171094194       41.37481542061957       63.62064453194700
C           59.57546242839648       41.10536151440306       64.86175920687216
C           59.97577833723422       42.68469847564263       62.95214044191511
C           60.83262947801840       43.88620091155340       63.37402221762989
C           60.11213510894450       45.19124096789597       63.04482468230725
C           62.21505964878259       43.84257337036253       62.69494833922635
C           63.41438559077866       43.90141734812824       63.64957606959324
C           63.46226181578153       45.24330550482228       64.37160299467283
C           64.69116284802693       43.64725477223853       62.83673955161519
C           65.99239713714023       43.45710279862150       63.62881194432405
C           67.16092824910500       43.48617751623974       62.64420493093720
C           65.96611676005411       42.14314160276020       64.41629419006603
C           67.15274201707484       41.89901293470529       65.35886031755325
C           67.01932372319304       40.50002671493414       65.96410526108632
C           67.24160070124910       42.95505659635312       66.47569799794582
C           68.29148742493305       44.05024031467589       66.24296297339913
C           69.69815892216448       43.49250538771702       66.46191972104776
C           68.06985875762916       45.24254837407200       67.18520248872991
C           66.88591351471699       46.15114343358138       66.82426706816908
C           67.22817866881803       47.02393148568405       65.61656512542407
C           66.48062081491713       47.03493211236655       68.01894075579577
C           65.21362031502761       46.58416062877869       68.75966741624623
C           64.84633229881605       47.64076358014296       69.79910835062417
C           65.38823388241896       45.21313932941854       69.42128012824037
C           64.09453667469528       44.64369512533585       70.03658110187818
C           64.22861066266090       44.50076565018355       71.55244888481961
C           63.71052438860341       43.29432515567112       69.41607715826979
C           63.19698978379736       43.41507048937581       67.98312821982211
C           62.81438972842983       42.05874959216450       67.40445141330888
H           60.77733713613290       48.63761531652611       74.59634624348145
H           62.06616476172026       49.59345221659717       75.32761201301493
H           60.50248630532545       50.33586244858341       74.98491752219272
H           62.41699472270057       42.16622055140868       66.39743706695742
H           63.68057624086934       41.40066424134098       67.36455056585756
H           62.05371462001801       41.58097427310373       68.01884863755627
H           64.57282133920344       42.62253174831593       69.44058132740413
H           62.92566415839141       42.83651603318535       70.02507238988140
H           65.76373350518581       44.51014185495627       68.67939013093584
H           66.15304304214054       45.30014577721795       70.19679565484533
H           64.39668301907766       46.51543374145314       68.03110998014438
H           65.64385278587385       47.73616205845068       70.53378157381330
H           64.69904222597835       48.60941983684963       69.32557932954633
H           63.93188605868144       47.37528557442371       70.32147843166619
H           67.30782268285969       47.09281922982827       68.73001803900168
H           66.30120714567222       48.04957584841710       67.65691945074022
H           67.93980470028993       44.85444087836640       68.19734365696405
H           68.97382954140585       45.85771350685213       67.19082999331619
H           63.27150719764998       45.33692139982752       69.83950024858015
H           64.49377235669476       45.45370123750332       72.00449054080048
H           63.29159679027858       44.16394518062440       71.99264663060532