3795
 energy: -5103.112597476387 gnorm: 0.000905672253 xtb: 6.6.1 (8d0f1dd)
C          114.74645728625869      100.04353950730979      101.70572875621225
C          113.65193308100719       99.75228605141812      102.71355189992258
C          114.14352835594536      100.67525984669705      100.44086152241363
C          113.39579028354440      101.97181225354878      100.74686621504246
H          114.95652251929721      100.88339306090406       99.74161161085352
H          113.46662627039048       99.95996716241157       99.96900158631303
C          113.09757456793712      102.78475816441437       99.48621824284609
H          112.45421537489364      101.74464434559992      101.25135173449343
H          114.00688178606073      102.57997941087710      101.41155550481095
C          112.12851548104018      103.91529670742385       99.77567818838871
H          114.01739778706123      103.18354215982957       99.05921162877998
H          112.61956754584655      102.13590250471979       98.74727693855033
N          112.56183282381375      105.13927610056481       99.45677336218075
O          113.43471618707379      100.66518318233702      103.63755241624864
O          112.97383724693735       98.74935274340962      102.65450812597163
H          114.10606072022881      101.40402236867871      103.63524817745761
H          115.22788220007226       99.10396436713096      101.43208767824095
H          115.48357796581266      100.71915841985901      102.14081922881459
C          111.67087703649486      106.28162414798126       99.47330462992262
H          113.50441839882679      105.26894361444512       99.10145357569648
C          112.39952131043189      107.61257144128776       99.59719351179439
H          111.08300301469717      106.27687327262115       98.54743494012261
H          110.98313127206995      106.14813041007476      100.31057317985766
C          111.43134233625756      108.80023975846773       99.59331414278533
H          112.97537150783799      107.62479665338704      100.52458313518827
H          113.10201838775541      107.71384752842005       98.76810003130717
C          110.67594023628034      108.95122711795733       98.27049582288846
H          110.71940313237371      108.69052422887864      100.41254278668579
H          112.00577225315979      109.71088150994180       99.77666476677871
C          110.01078843985735      110.31841876336689       98.09555210757617
H          111.37771157824088      108.80729247267234       97.44516300264732
H          109.90879821861809      108.17850036800085       98.19632522375346
C          108.93506125122956      110.62911008057168       99.13846119087560
H          110.76344616056919      111.10690909891851       98.14406755595468
H          109.55624985758892      110.36232677690585       97.10307071160763
N          107.89005893667080      109.62849674758878       99.17333458190117
H          109.37353727594058      110.65626558943265      100.13735713407667
H          108.49689824944927      111.60736005101568       98.91377106264987
C          107.63626851783407      108.88123409870282      100.25131245647306
H          107.36852152186293      109.45766350042648       98.32249820426762
O          111.01629601574399      103.71222485018798      100.25908219099348
C          106.52929041792062      107.85786185638896      100.08331162216928
C          107.00785465520680      106.66275312214120       99.25139947285787
H          106.22256855926808      107.52753866539386      101.07520923114872
H          105.67799666245682      108.32353251534980       99.58517959028663
C          108.23404524576819      105.98054396133543       99.85696019306145
H          106.19640732576920      105.93839864896961       99.16248919080500
H          107.25557825867219      107.01940874750092       98.25076476816277
C          107.89109378007203      104.95249831386654      100.93970326899655
H          108.79831761183627      105.47218206132958       99.07282461344009
H          108.87791703800377      106.74422952125704      100.29235079360254
C          107.30149352738214      103.70779608701245      100.30917694468971
H          108.80352581655751      104.67744672911554      101.46728552209025
H          107.18382830203809      105.37653318841805      101.65067224942629
N          108.22686729397074      102.82578241766051       99.91799487625732
C          107.91403104834875      101.53706746327674       99.34692181041360
H          109.20595043827805      103.03814886932696      100.08089008914423
O          108.25311364067623      109.00110190083838      101.30561783131554
C          108.11717472340408      100.40000317144310      100.35316138344605
H          106.86697266953458      101.56843336848037       99.03269889151201
H          108.54498104834542      101.37546763334005       98.46747747507840
C          109.58179518169902      100.21518048599297      100.74925135632441
H          107.51536790368894      100.61315929341126      101.23697870887612
H          107.74588498573878       99.47554443059948       99.90592722316693
C          109.79547717015939       99.02061059699828      101.68218625090589
H          110.16938331202407      100.06034391763944       99.84091620704555
H          109.95055221262321      101.12203694777244      101.23118767938253
C          109.28110879382953       99.26524583822548      103.10149829735748
H          109.29171091509713       98.14705826241058      101.26122973616144
H          110.86168763883246       98.79674720602048      101.72835277267424
C          109.38757069371458       98.01968413862693      103.97817655821632
N          110.74699857835357       97.74041926809564      104.38619758004067
H          108.79607559293163       98.13735574297735      104.89149976698309
H          108.98379513074104       97.15629775150522      103.43230753563088
C          111.04196556334760       97.15865787573232      105.55495781889417
H          111.49638222092879       97.98985498014657      103.74890654416268
O          106.09512296688023      103.54705638935305      100.14173609402303
C          112.51129957961138       96.88340684495635      105.77985933595775
C          113.12228732077864       97.98672096872941      106.64599556413302
H          112.60152723480823       95.92826750051755      106.30089392990641
H          113.04759342528151       96.82260470275668      104.83399558288717
C          114.54046438610872       97.61695232517171      107.06742114311005
H          113.13938698336173       98.92122258617363      106.08148907634320
H          112.50102452093928       98.13466916528300      107.53238590646605
C          115.23110798552877       98.79204357791049      107.76292188414081
H          114.51347686644142       96.75896916018664      107.74197677983841
H          115.11210058099799       97.33700636368347      106.18128165755707
C          114.49036564070171       99.18468910992543      109.01938573339005
H          116.24582329778356       98.49908953922380      108.03825557862118
H          115.26030533192127       99.63749750104041      107.08199916084970
N          113.83865683806789      100.35250528719941      108.97262813494041
C          113.08941754176098      100.79918959711325      110.12593806571584
H          113.81919201304869      100.89822423853300      108.11415593681076
H          109.84970663779855      100.07752719900925      103.55717558062666
H          108.23151609920802       99.56174766547669      103.07036662033789
O          110.19651130550700       96.88905873467154      106.40368222883269
O          114.48130818396803       98.48440997122422      110.02891314960672
C          112.85736160640064      102.30251024720374      110.16974978751419
H          112.12485729943185      100.27759389602646      110.17295044136490
H          113.66939180148744      100.49089328010079      111.00183389483902
C          112.04490509209091      102.63957591496511      111.41902598803919
H          113.81523377267222      102.82600913030133      110.18942500504852
H          112.31234097537804      102.62391010279812      109.28182046434308
C          111.89552293486632      104.13700696343602      111.66280206034388
H          111.06037749753108      102.18143131911334      111.32067647480036
H          112.52627628271198      102.19306377369597      112.29180264740725
C          111.05843340666728      104.43128856548880      112.90814772342536
H          112.89040037430721      104.57195806466352      111.78206500119229
H          111.41570513799822      104.60161701603189      110.80183190505589
C          109.56942794554818      104.23212695092822      112.62414419267104
H          111.35901574779861      103.77549945427434      113.72880205718216
H          111.21609949177390      105.46164900631071      113.23209010689627
N          108.77885672786182      104.37577226089532      113.82373959101817
H          109.23279290065733      104.97222534834233      111.89528308747926
H          109.40828023226113      103.23020156690623      112.22326239378805
C          107.97213434699403      105.40907742142039      114.05333943652172
H          108.82179689266198      103.59623882538192      114.47216799168021
C          107.30202643330608      105.43021722523635      115.41483217052462
C          106.55860297772679      104.15090717714440      115.80323530606755
H          108.08795936582692      105.61297127547311      116.15238217607821
H          106.61591710043342      106.28008114079381      115.43934149471403
C          105.94141140464671      104.30825989621431      117.19162126469043
H          105.77764098072974      103.93709383910429      115.07391247796393
H          107.24879397186820      103.30690637723285      115.81973652774411
C          105.41126499484750      102.98631613660741      117.75359034924377
H          106.71507742700216      104.68381836066644      117.86199056560783
H          105.13452088767829      105.04409521136540      117.16104474749532
C          105.07863082311550      103.14390877336130      119.22906931678446
H          104.52433351675442      102.65760985114643      117.21342567759035
H          106.18153210618843      102.22018859459425      117.65257536570161
N          106.16645050742770      103.32713834488212      119.98198874435064
C          106.16716665797782      103.56842336444534      121.40550380459300
H          107.06958846770797      103.40321586521866      119.52647953069520
O          107.81191878968539      106.32022266473048      113.24145484203159
C          107.51397336602876      103.13457936118817      121.97367227489202
H          106.01108081357931      104.63846660113148      121.60326915769878
H          105.33529045960391      103.01942387218791      121.85483785069431
C          107.73163426880085      103.60207729628988      123.40862511559997
H          107.59431444795095      102.04724076096261      121.92504828324157
H          108.28540169623854      103.55761064542349      121.32900988324715
C          109.09923696742322      103.19114311649020      123.95942504094837
H          107.63266705191758      104.68791706923096      123.45822759937224
H          106.95628010693973      103.17628048041723      124.04975789730179
C          110.29109336308606      103.69100996491085      123.14053551771909
H          109.18785074337183      103.57037594363983      124.98001988081990
H          109.14929378650614      102.10152515831128      124.00771852186466
C          110.29970315097255      105.20595760485099      122.97882289155245
H          111.21140771612643      103.39110757232201      123.64508629081053
H          110.29636930463084      103.22140623273991      122.15703961597977
N          111.57778707912132      105.66184205431014      122.46649912474800
H          109.51857289977973      105.53289307561215      122.28574946876539
H          110.11057720237552      105.68355666850573      123.94949871496102
O          103.93796961124586      103.11767089026911      119.67403139859249
C          111.73010653763677      106.85694673109239      121.89923405398217
H          112.34394660720089      104.99227591459019      122.49108549041051
C          113.13546995201780      107.18333543175133      121.43131743427413
C          113.42524884217683      106.46301246129742      120.11423498966228
H          113.20042834970025      108.26354503870218      121.28676044485739
H          113.85679350334476      106.87700204705348      122.19018527081195
C          114.75959068232126      106.87580881737132      119.50077426243169
H          113.43275701150012      105.38840376734441      120.29314766503386
H          112.62432992865368      106.67873120686313      119.40626908130398
C          115.07759498098272      106.03451335647046      118.26216461055964
H          114.73370060286844      107.93201483150602      119.22451925331258
H          115.55796150606031      106.73852088172589      120.23321329440751
C          114.00892015150423      106.20449425800879      117.19764628555389
H          116.04384911795107      106.33645176708005      117.85569623001503
H          115.12098324060611      104.98129541680645      118.54249970605181
N          114.09018014164039      107.34459510767664      116.50855734434926
O          110.80334946493315      107.65066424512119      121.74373039881648
C          113.26030974219941      107.64467718313817      115.36398648075240
H          114.83951282007237      108.00904126520153      116.69439807222976
C          114.13279296347132      108.08164912659659      114.18781900092172
H          112.69855011878933      106.73830914271949      115.11992589709483
H          112.55435965030898      108.44012912879457      115.62026559713452
C          113.36868857142760      108.11354868358839      112.86613563703520
H          114.55123567191960      109.06341558252736      114.41180186613593
H          114.96528730176227      107.38093041217508      114.09555584573449
C          112.26031052704937      109.16443027948034      112.82787153478519
H          114.07229078945379      108.31691491503419      112.05551913518271
H          112.93953747969657      107.12682371136297      112.68893331051156
C          111.51915520733402      109.17371334360007      111.49164695250066
H          111.54130962319577      108.97169815586153      113.62477537627453
H          112.69424653058678      110.15065003929720      113.00648917395966
C          110.71874938722176      107.89405322414223      111.27598691860808
H          110.82285215682974      110.01345059383935      111.46652715686669
H          112.23431764289602      109.30328423746569      110.67660456518597
N          109.86583723422234      108.00807832238014      110.11336404416708
H          111.37114992517731      107.03357177452469      111.11928245983955
H          110.09498770047739      107.70073213252842      112.15810416902046
C          109.48268443596346      106.95155634835645      109.40671294461687
H          109.42519375603861      108.91959362669789      109.97307440424775
O          113.13442717691842      105.36330789614614      117.00119186697356
C          108.40038030016980      107.19400652784938      108.38455872843741
C          107.02972698376846      106.97706046051242      109.04276265532960
H          108.45121927090909      108.20626948885885      107.98520975897088
H          108.51297200270417      106.47377465637223      107.57203372424621
C          106.79540191537566      107.92424131442783      110.21649680187068
H          106.25921624410655      107.13561163053458      108.28560797167650
H          106.95827497052854      105.94260105041684      109.38759261164364
C          105.38393181096517      107.76915342158541      110.78304270878738
H          107.50902182316047      107.70063578942839      111.00932392486743
H          106.95211142354319      108.95367807929675      109.89053256365256
C          105.17127438221628      108.70595145921513      111.95831256323559
H          104.63942445123092      107.99872586736599      110.01870146832084
H          105.25373913151786      106.73928102164950      111.11414479309781
N          105.84684063021427      108.36081327290496      113.06253755949105
C          105.91715708565442      109.19067058288091      114.24273874142268
H          106.52544700035570      107.59918348940403      113.02761705023386
O          109.95790656919131      105.82494112411470      109.59742168878631
C          107.36046663507251      109.61168094674433      114.53373942775457
H          105.26140709925789      110.04513710480109      114.08214197324749
H          105.53519205043060      108.62295194290358      115.10157279124741
C          108.02827304472346      110.44772861574222      113.43916617450169
H          107.38791574472150      110.15687158705653      115.47681909562948
H          107.93923409529127      108.69390157685162      114.66234888996409
C          107.71287361278499      111.94453654610626      113.46122259327268
H          109.10930617961952      110.34880996593120      113.55855463194777
H          107.77323177343325      110.04296810456734      112.45871660574866
C          106.26995078392849      112.28509292643646      113.09027409661013
H          107.95743125895495      112.35386358941442      114.44343643012908
H          108.37873959231723      112.41995535002992      112.73862159455358
C          106.10277626655667      113.71518583225449      112.57791237690351
H          105.92589435962603      111.60989818962297      112.30630220380343
H          105.61824646853012      112.15776928835065      113.95510379468556
N          106.22686704716621      114.68188555169453      113.64500828709875
H          106.85537990054158      113.94010565231476      111.81996133177699
H          105.10653739340732      113.80753186263868      112.12935631184419
C          107.02231974009240      115.74115852649940      113.66267371747354
H          105.61463591737764      114.53964356424366      114.45510286973227
O          104.42002098591846      109.67129764053900      111.89634979566358
C          106.95221750595078      116.54180412186126      114.94288974488217
C          105.65896811388585      117.35465517761001      115.04012845256722
H          107.00344784982231      115.85873911914027      115.79177871354702
H          107.79863388008489      117.22692325528647      114.97854651947655
C          105.70253647474824      118.22275351936365      116.29455700482180
H          105.55535049848963      117.98470767513072      114.15417734502631
H          104.80370833882793      116.68043576928558      115.08581608587681
C          104.48397389345169      119.13592097866974      116.43383247588362
H          105.75297383693817      117.57361047829842      117.17056678996960
H          106.60091354673231      118.84060270121002      116.27974400768969
C          104.27459237652783      119.95122968243609      115.17742034735444
H          103.58716445624769      118.54532580270048      116.61584121919788
H          104.64488115361698      119.81601012508047      117.27104012245599
N          105.19315406841399      120.89188129565638      114.96316207564035
O          107.76613830623805      116.07173733638061      112.72923592132294
C          105.14678958396802      121.75018426448760      113.79694069275071
H          105.95683833433033      121.00565940577928      115.61849732349000
C          106.41125734656811      122.58496964602986      113.65178730947190
H          104.99502354609649      121.12566142681115      112.90933610661560
H          104.27599832443852      122.41267002511938      113.87821389361176
C          106.43265945281307      123.77014011676148      114.61695657646565
H          107.28429036296401      121.95207209364061      113.82179114123565
H          106.44427520011982      122.94734626169445      112.62500807668758
C          107.61413182612596      124.72203472882795      114.40128312847307
H          105.50408096000773      124.33265556899912      114.50072298827413
H          106.46233966856259      123.40036985294147      115.64263878343731
C          107.75040296283272      125.15949900436030      112.94305445866623
H          107.45371609362631      125.60174739818113      115.02758072201559
H          108.53834178146137      124.24623360942194      114.73291059559796
C          108.54963583410104      126.44300019078632      112.74581344461834
H          108.21764171584958      124.36609925906947      112.35771550738411
H          106.75794877821885      125.33770321165825      112.52937879806595
N          108.56782276929029      126.77843127929523      111.33684157224447
H          108.08519511619494      127.25630873157172      113.31604528595254
H          109.58591358385056      126.34408274166964      113.08305197300486
C          109.59827645202100      127.36855110152798      110.72413232652994
H          107.74636465444632      126.50428564372129      110.80825568215839
O          103.32689654181836      119.75275170215058      114.41708037273240
C          109.42608287360395      127.57780157338071      109.23034100522398
C          109.07108148512569      126.28477622356614      108.48846457224313
H          108.63951425476998      128.31664819457097      109.06145835164334
H          110.36356840337913      127.98839145647040      108.85173231196696
C          109.36685461345421      126.37795715286481      106.99176039569942
H          109.64802569106746      125.45571246368198      108.90489003841627
H          108.01350354206039      126.06693772894941      108.63987865138526
C          110.86092989485870      126.29488246201750      106.69589693351773
H          108.87258123983672      125.55548091746189      106.47219036109355
H          108.96344016301414      127.30542992758282      106.58359344658395
C          111.15498038900387      126.24279048552464      105.20512453187165
H          111.40011715669056      127.14335270181353      107.11909628076238
H          111.27297791935155      125.38612458092865      107.13881355762892
N          112.47480006572883      126.18688353926032      104.93684770850004
C          112.98596140685315      125.98962504958779      103.60131358442651
H          113.13921717046324      126.16548355496333      105.70134971433905
O          110.61683586107249      127.72281566028221      111.31047474745520
C          113.99841015706839      124.84621045578878      103.57019966305295
H          112.12613517599138      125.77093494679607      102.96206016658620
H          113.45685617883279      126.91306344419641      103.23826828039682
C          114.44390495878751      124.50559794920287      102.15009556912868
H          114.86800845878219      125.13234955449104      104.16733056927970
H          113.55891687422580      123.96392495854685      104.03702807772116
C          115.52746758498047      123.42912904825258      102.16833678499415
H          113.58871741031103      124.15824084941522      101.56753030963529
H          114.81366189487430      125.41223367735186      101.66893109131601
C          116.19669339187864      123.17132552055415      100.81875243987206
H          116.29827161811124      123.70829085532722      102.88876592483916
H          115.07293898459906      122.49880352723147      102.51222308768880
C          117.05857829738561      124.33886427782416      100.33892729708687
H          116.83789968717137      122.29354305568830      100.91053533827404
H          115.43969884310808      122.96431057630647      100.06136911841540
N          118.13505976846402      124.59672997179534      101.27083325450791
H          117.47595865806092      124.08935582986088       99.35410150021508
H          116.43941490043555      125.22827583790755      100.22861699358351
C          118.72369467297064      125.75965703267109      101.55580621851782
H          118.54786964371924      123.76175520545321      101.68388502310619
O          110.29333395442009      126.23778432612241      104.34734409438332
C          118.17275545194535      127.02492862119473      100.92344826134334
C          117.05821043341467      127.61145059041841      101.80243865113511
H          118.99166861763464      127.74333720731950      100.85725446970496
H          117.80700267224498      126.82872346476340       99.91705252207343
C          117.61605270571681      128.29373771247504      103.05029295659949
H          116.48760568496074      128.33809006913378      101.21854602480074
H          116.37532987954536      126.81722082467822      102.10811673428573
C          116.49172736133602      128.74294329456578      103.99030640004680
H          118.28151205272738      127.60758080336554      103.57657844998143
H          118.21211153078309      129.15849124504527      102.74702527211559
C          117.02555590105865      129.65194729588447      105.08221100528066
H          115.72962618017822      129.27896597465033      103.41873772796824
H          116.02395719886744      127.87473241960669      104.45633322173852
N          117.32088066014569      130.89541588580877      104.65405120378628
O          119.66444190149099      125.82505749460100      102.34414130658286
C          117.70927762227190      131.97248335716057      105.53488522968107
H          117.09803258273541      131.14956822042862      103.70424580679429
C          116.65871878457443      133.08685802584424      105.55680578201145
H          117.83702411607005      131.53477215069739      106.52573622809146
H          118.67162788185468      132.38154840306822      105.20724302827389
C          115.25807757526837      132.58746365084659      105.91593158370210
H          116.97457033583589      133.84398716114981      106.27608192348634
H          116.62614839948820      133.55729433658468      104.57017716925849
C          115.14499669314162      132.10616401993670      107.36037851528543
H          114.54662840506433      133.40101910047028      105.75686781292789
H          114.98173008903444      131.77691305753046      105.23867487410506
C          113.76638479465544      131.52599607525514      107.68156994906045
H          115.89989445081051      131.34779988228996      107.56054203566998
H          115.33828134115598      132.94825300446672      108.02859102748037
C          113.54064179236269      130.11199937651267      107.13689317363379
H          113.64566918675978      131.49257731392203      108.76357432614388
H          112.99434522361668      132.18396687858956      107.27624257232237
N          114.37511397683689      129.14000981570760      107.82999297564569
H          112.49682431124006      129.83624640897008      107.31895661330478
H          113.69249934509027      130.10513567984788      106.04442881172753
H          114.14204810083501      128.20211727645187      107.51480695620542
H          115.34928006000662      129.28223450455087      107.57622923754985
O          117.20313136773055      129.29074856818440      106.23143849010715
C          129.47690211014421      108.41802119479259      102.05008297917409
C          128.91309511349286      107.10838357595411      102.55931779241047
C          129.00116003931944      109.62200217932021      102.87616211326142
C          129.55601567834941      109.62111783417140      104.29952354007351
H          129.33379672096336      110.52814154344418      102.36369999333294
H          127.91051597292726      109.63424695635551      102.90298608423453
C          129.38778013758412      110.97554430683995      104.98856873524377
H          129.04600494542623      108.86070055544489      104.89298739552984
H          130.61727155507575      109.36835705846039      104.26632633096276
C          127.96500531718792      111.22722426801826      105.46835328349464
H          130.02898269157228      111.00827700837459      105.87279035552842
H          129.69603482513782      111.78948162834898      104.33159307865999
N          127.65870222487202      112.51700767330092      105.60663976459185
O          129.62505393004651      106.58133063298882      103.52735861615696
O          127.90714438342224      106.60354031654929      102.10813518206669
H          129.26411791530944      105.69665244603664      103.84357881208648
H          129.15156575047203      108.54197972506954      101.01596247342827
H          130.56521574421873      108.36094958362042      102.08385016951654
C          126.35352705728070      113.00563056859605      105.99777461841160
H          128.35194083009202      113.23226629040676      105.38412695362236
C          125.87547875855175      114.13448145619549      105.08722988939371
H          125.65374472249771      112.16720704274344      105.98108623449336
H          126.40279055674736      113.38363714067012      107.02378718931153
C          125.30562195386599      113.65701368048065      103.75337109130602
H          125.11406612017448      114.69362213724932      105.62873891673746
H          126.71144262994508      114.81080782503844      104.90947496380956
C          126.36661397336813      113.02367923360489      102.85491623821403
H          124.50603268208705      112.94163873278076      103.95734629390672
H          124.86924827991191      114.50850214117592      103.22651840268276
C          125.84659552503820      112.67237549354303      101.46080382132538
H          127.19102689037878      113.72919748623615      102.74173741907939
H          126.77522825287926      112.13319700278838      103.33211323226301
C          124.68460643926186      111.68195862448555      101.47723056940697
H          125.50924626510727      113.58654965772267      100.97010298784269
H          126.66495132727634      112.24994203622262      100.87328716788016
N          125.02435823935720      110.45367017110826      102.15696964945568
H          123.81577114469309      112.14412732244985      101.95930276368473
H          124.40518579296530      111.41174352589921      100.45712530248488