3536
 energy: -3716.268761934967 gnorm: 0.000741356794 xtb: 6.6.1 (8d0f1dd)
C           42.53809582468735       54.51126224661486       65.57564086435218
C           42.87885853402932       55.44555964084741       64.41397694145424
C           42.44243647116386       56.86680305268004       64.76746740116737
C           42.22052723206284       54.94915822918179       63.11320425475036
C           43.12814708250862       54.99119007144040       61.87802906728248
C           43.49158963092290       56.42468812945110       61.49525870515154
C           42.46166015481644       54.30041602656824       60.67799146071984
C           42.23700003159128       52.79008482902438       60.81627265045633
C           43.55111859989317       52.05278781195494       61.07552294116694
C           41.58535003713104       52.19701666592977       59.55829008264838
C           40.18277147852266       52.69694193318659       59.18247397091086
C           39.24005267994924       52.72943572711153       60.38481078471020
C           39.58748488992516       51.78001217305795       58.10059198084221
C           40.11392444898963       52.01283734287171       56.67745994351357
C           39.36400544959267       53.16651638943217       56.01389967234068
C           39.96839791559876       50.72909075391895       55.84558639704185
C           41.10715060771948       49.71762831256982       56.08744600314169
C           42.14472980438151       49.82723932224791       54.97286793697827
C           40.54658541888369       48.29448085925134       56.19841904366699
C           41.56873715306114       47.16291896927233       56.39627682399351
C           40.80408783899801       45.85045334168752       56.57022667756323
C           42.48112231250948       47.43866131137685       57.59563768438151
C           43.50939975408063       46.35040719647628       57.94356898656642
C           44.31613347649083       46.83239033133127       59.14868584032213
C           44.41935477467740       46.04729384373504       56.74594688721605
C           45.59340534551392       45.08868355643122       57.00067063185045
C           46.45569898248331       45.03259251874082       55.74026680395696
C           45.10417150128963       43.69154269583080       57.39366702930591
C           46.19452937961171       42.69149271173870       57.80628891424259
C           45.55118211451241       41.31912554842771       58.01148899050143
C           46.94460402640068       43.12662396040835       59.07749451882331
C           48.27822986175217       43.84223853197774       58.82069516273893
C           49.34772346200523       42.84853868269004       58.37666562782903
C           48.74367674213624       44.60499291279233       60.06771478266818
C           49.84626859751711       45.64334110907286       59.77952115559371
C           51.12532987657084       45.30250304304968       60.54520514737300
C           49.41195787715780       47.06872881927610       60.14731169124423
C           48.19532123151544       47.62247923137687       59.39686278430761
C           48.40047279118929       47.61240884781836       57.88327249108743
C           47.89386919707482       49.07007583045734       59.81520136284109
C           47.73248175595305       49.34553963025359       61.31336596656592
C           46.64023042757479       48.48163030823530       61.93795128665833
C           47.42311609429290       50.83612449828939       61.53086979627452
C           47.96844175328115       51.37429038041785       62.85898405035710
C           47.31008960129953       52.71161300976057       63.19517539222959
C           49.50295262181107       51.51743961987121       62.81010945706752
C           50.24213692719709       50.78135407229701       63.93173425780556
C           49.83683551296836       51.33009080851658       65.29844229991819
C           51.76504338816724       50.91435870622962       63.78877998846053
C           52.39483418018646       50.32512437741038       62.52229183978821
C           52.16734336126247       48.81678536993719       62.43141604789611
C           53.90589396533584       50.60000889341952       62.48886771092179
C           54.33285358167236       52.07144430617963       62.44129106869556
C           53.67067669376927       52.81381881123396       61.28028608491138
C           55.85522305439998       52.18738511871022       62.28798422006933
C           56.72291728863051       51.61839798999504       63.41837765157136
C           56.34559802935287       52.22314192723805       64.76815935036326
C           58.19037755074522       51.91887583217805       63.07924094548298
C           59.24201314501476       51.14571793663899       63.88819338980032
C           60.58856058511850       51.85464162744557       63.75157987878030
C           59.31551769191164       49.68720017206606       63.41728536562506
C           60.37304939712272       48.79838549948658       64.09127242069303
C           60.29958449088368       47.39700715093178       63.48497284752032
C           60.17604123480479       48.76316869560953       65.61093549357433
C           61.16331744141102       47.89732149845320       66.40785186344375
C           60.79929741696345       47.95596665654389       67.89281350213818
C           62.60128783995881       48.37322447020567       66.17275057817567
C           63.69640456864538       47.67373844188012       66.98899225395077
C           65.03410682591145       48.35459698923155       66.70181543146538
C           63.74630968436509       46.18068528533928       66.64841863294876
C           64.77417949631342       45.34173760630028       67.41829415242626
C           64.85798554488187       43.95615968100007       66.77639300404664
C           64.40521296103447       45.23714895123347       68.90351158333844
C           65.56244307578199       44.80822831346054       69.81329313063860
C           65.01677965266458       44.34788864393179       71.16400969899983
C           66.57085034852535       45.94724521528054       70.02164827166783
C           68.00342023553289       45.45135965634942       70.26225785296093
C           68.81210694271297       46.51871658361300       70.99713908417540
C           68.66327800286253       45.08632682190720       68.92685918155534
C           69.91488695561893       44.20632570218285       69.03457826154855
C           70.57412014890791       44.10218603535161       67.65820021187002
C           69.58955726971163       42.80415374016471       69.58467141847599
C           70.06863586461313       42.56207270292700       71.02196999627849
C           71.58778395038399       42.39412926835634       71.05382929840384
C           69.40916284777283       41.30945983113157       71.61825570296602
C           67.93864512853590       41.47664225053675       72.01987068932233
C           67.81458677048711       42.31538511233961       73.29228803550740
C           67.25786913733123       40.11991012127055       72.24657395815665
C           67.12737354967751       39.26093988873146       70.98899447489620
C           66.15785035850035       38.10381069070227       71.19977175931839
H           42.98382711257100       54.87186615945960       66.50133269008812
H           41.46003200665275       54.46015262799963       65.71805604888588
H           42.90800987503661       53.50631474218419       65.38411553731507
H           65.16459447593161       38.47887576326296       71.43873756419512
H           66.08672908290309       37.49433364487736       70.30160293614769
H           66.48895599196015       37.47030267685743       72.01995020836752
H           67.80565657737949       39.56370825569976       73.01129482699410
H           66.25387236967792       40.30812771372608       72.63682115463685
H           69.49610829552421       40.50826648731148       70.88269925493016
H           69.96965765372585       41.00107986447548       72.50452424907257
H           69.81106102891265       43.43074373276781       71.63474629857595
H           71.94381607076265       42.30897643826447       72.07851226192356
H           71.87912415128794       41.49451857386904       70.51460401005751
H           72.08509738446683       43.24347053048830       70.59173880245618
H           68.51183344129616       42.64506756566886       69.53250645814448
H           70.05113763433064       42.04646301491125       68.94713857285959
H           67.93782304875080       44.56592623508046       68.29721836594170
H           68.92846820457096       46.01466969705417       68.41286087541714
H           67.40049928264906       41.98809341150023       71.21465564940129
H           68.31647006378536       41.82028577511757       74.12137505099605
H           68.26122007326703       43.29812848311551       73.16345291239459
H           66.76852940363786       42.45046119348222       73.56047125990729
H           70.62542904079172       44.69730349469364       69.70649563224961
H           71.48703722182026       43.51304819360442       67.71272446584695
H           69.89934225844033       43.62649001254099       66.94922848527635
H           70.82862562606415       45.08905176399355       67.27700841713956
H           67.95643981304377       44.55958856844850       70.89291471073882
H           68.36864906385262       46.73567201924205       71.96690055542730
H           69.83643487034470       46.19217077417897       71.16086132717203
H           68.83523027942151       47.44123923133930       70.42026312751125
H           66.57850653855047       46.61185944662869       69.15623320294293
H           66.24608877156427       46.54268083738845       70.87774478202840
H           66.07518836467359       43.95860398183850       69.35111473195660
H           65.82803061440413       44.11333667944682       71.84859135473948
H           64.40482255007662       45.12952722330852       71.61158532112964
H           64.40181884819674       43.45832836230634       71.04790794803888
H           64.04007328867127       46.20063528655810       69.26304503261410
H           63.58479062739711       44.52174076047949       69.00575440125112
H           65.75843064709102       45.80822444330121       67.32507434286214
H           63.88531656945372       43.46771333886045       66.79071603792364
H           65.18180740446734       44.03274101247428       65.74025635915719
H           65.56613429783695       43.31984991487585       67.30151533157968
H           62.76263009562881       45.74113831068080       66.82553512953912
H           63.95868653987266       46.09023829381227       65.57950234768269
H           63.47750220629307       47.80347249931857       68.05254779569368
H           64.95461030085553       49.42930825855755       66.85509913871704
H           65.81280753989003       47.98069541650863       67.36158086959873
H           65.34254906296890       48.17859597954526       65.67345996431770
H           62.84541273027839       48.24763582567192       65.11658397629239
H           62.64208531518460       49.44364380123327       66.39596319244379
H           61.06223586703226       46.86130481046659       66.07182464274970
H           59.73126046567845       47.79969173188434       68.03232898267049
H           61.32677847098230       47.18826450195134       68.45448542158960
H           61.05484234523289       48.92634327665893       68.31174333561954
H           60.25161961118823       49.78230699412821       65.99476935364807
H           59.16139849494701       48.40725627773869       65.81242217774026
H           61.36035886211054       49.21209431298614       63.86747634644753
H           59.36356818187294       46.91171816034753       63.75546713532042
H           60.35735566073319       47.44926787024471       62.39974395810043
H           61.12113382292095       46.77425822193207       63.82863357986643
H           58.33718125727238       49.22359676386306       63.56466064664888
H           59.51470172842043       49.68708873447527       62.34103662892515
H           58.95188275331750       51.16485762536243       64.94219798610925
H           61.35672080953267       51.36551178924022       64.34432251040528
H           60.90806677792141       51.86554901043210       62.71168740873532
H           60.51015866300174       52.88550337223969       64.09102037302431
H           58.35859732853444       51.71475133581623       62.01847884813450
H           58.35332760749844       52.98956147287509       63.22712904193956
H           56.58359822912406       50.53466932045452       63.46738249137492
H           56.35688508354259       53.30982649886572       64.71067402497410
H           55.35425327077012       51.89980600259539       65.07456872113227
H           57.04672641597134       51.91451166304439       65.53896105416973
H           56.13941248229995       51.69212079284474       61.35641033060278
H           56.10848879817316       53.24558414400256       62.18194600217721
H           54.03933171443756       52.56444914720723       63.37246627260082
H           53.85368975964514       52.29388162573735       60.34259959078069
H           52.59747728897758       52.89805576042275       61.42782946363984
H           54.07524687946207       53.82084479842732       61.19240435295518
H           54.35288168063146       50.13704432024792       63.37184753571920
H           54.32377836266593       50.10152505352645       61.60893737804772
H           51.94061575168924       50.78728752048955       61.64274697318557
H           52.56955065907901       48.31534092224835       63.30882061189693
H           51.10950157495709       48.58226375419790       62.35439184037877
H           52.66237540497632       48.40953205409303       61.55167354685818
H           52.00150032885269       51.97883055452091       63.83460299036319
H           52.23415816578183       50.43910892117974       64.65484640720881
H           49.96452306957265       49.72219958689463       63.89538663007173
H           48.77409147239261       51.19959434203545       65.47690185117044
H           50.37646534091930       50.81559789466896       66.09058108381801
H           50.06451726915262       52.39237332138188       65.35722985721588
H           49.85958257269832       51.14027873442483       61.85166174230214
H           49.77122783996368       52.57546798753119       62.85925332061053
H           47.69956762281932       50.65928880739630       63.64364196626431
H           46.23278417308062       52.59987738320392       63.29971529042413
H           47.70488171266491       53.11366655371895       64.12599893065497
H           47.49860975251273       53.43562474858803       62.40445003718786
H           47.85477162064947       51.42405889996664       60.71853966375475
H           46.34118408283012       50.98127979404185       61.49395607641065
H           48.67989671675587       49.12011928915604       61.81063968861554
H           45.69347199274020       48.63133593830513       61.42337691141250
H           46.89235287315238       47.42586300803263       61.88850024663519
H           46.50333306069638       48.74232757334411       62.98583891851055
H           48.70548666544075       49.70288421053550       59.44431607133727
H           46.97676223069334       49.38853020462846       59.31082433096281
H           47.32234366789540       47.00544540473098       59.62668227056422
H           48.53301483033665       46.60525155076026       57.50226381677450
H           47.53805532806331       48.04822797561132       57.38305742604522
H           49.27897444465555       48.19496079081192       57.61986220271474
H           49.20007099827134       47.07838683672271       61.21813580963594
H           50.25649979101902       47.73933095052710       59.97280870068722
H           50.09012831681270       45.62070287967273       58.71384620745506
H           51.91548313243234       46.01115131234663       60.30622812826586
H           50.94922286203434       45.33602477174863       61.61841156085051
H           51.47293091934170       44.30452163854950       60.28767263758722
H           47.88567346243002       45.10761538005845       60.51785941834649
H           49.10466925265830       43.88167488870867       60.80154892351099
H           48.12996886551068       44.56501571648653       58.01620439977540
H           49.52011710212399       42.10439708806901       59.15247827797731
H           49.04677310964588       42.33040012299734       57.46931525910511
H           50.28727378458303       43.35669567495801       58.17426527371691
H           46.29031541037208       43.78218620809813       59.65718388484937
H           47.14480100057576       42.24720865203343       59.69502392574776
H           46.90994085017328       42.59207371226680       56.98558174389243
H           46.30598911698490       40.56917860856350       58.24142775038814
H           44.83570678508546       41.34587831079911       58.83221480770286
H           45.02385733341351       41.00751300148774       57.11224414042312
H           44.40461601330787       43.78230101620076       58.22724112884455
H           44.55039740006239       43.27100567608719       56.54859630342862
H           46.19816111634714       45.49510848642966       57.81235185302590
H           46.84817541305818       46.02017199404099       55.50866157015415
H           47.30051670506351       44.36055729538826       55.86163821578756
H           45.86757255105304       44.68358911119006       54.89347241697885
H           43.81326957719391       45.63025134694347       55.93855549841265
H           44.83240673870968       46.99477193905375       56.38851829539104
H           42.97091609220712       45.44284115717177       58.23074555208035
H           43.65289831873721       47.16496161936526       59.94534387665903
H           44.93874483795818       46.03704415544947       59.54702073472855
H           44.95472442686867       47.66694855942362       58.86810308741002
H           43.03129769303803       48.36431584628081       57.41621956899817
H           41.84610577532088       47.59952208032200       58.47239350260705
H           42.17761153890708       47.08864646492406       55.49108659348384
H           41.47737048817206       44.99817668456213       56.58325008006288
H           40.24212164690216       45.85937432834623       57.50271767409281
H           40.10027430214255       45.70955764803030       55.75211387128419
H           39.84627232719630       48.26890547914017       57.03861006659068
H           39.97138719120535       48.07805153309167       55.29304627263787
H           41.58900135877210       49.97237985769593       57.03612733570625
H           43.02729164894867       49.23313243435174       55.19593451218634
H           41.72605164614919       49.48180253202349       54.02930984984351
H           42.45171870305744       50.86267246729238       54.84701419269743
H           39.00211267979728       50.27574007290145       56.08025306506321
H           39.94578202199968       50.98561966800556       54.78421069683108
H           41.17393649087223       52.27840719665453       56.72357261641366
H           39.77683189673755       53.38069817489999       55.03008739594417
H           38.31153920884819       52.91568315659301       55.89143965476084
H           39.43081079081936       54.07004713672632       56.61568314733903
H           39.77942556392397       50.74507428415744       58.39211162198642
H           38.50184572298046       51.90753524236946       58.07951315967320
H           40.25555165398671       53.71377613520770       58.78263117726336
H           38.23906472560518       53.02076176338702       60.07113313158765
H           39.17982007068299       51.74634820299350       60.84716013755843
H           39.57297293892655       53.44281300902023       61.13371644219447
H           42.25099515711466       52.36905543786038       58.70952370398133
H           41.52200722835553       51.11625928899578       59.70804258651813
H           41.57390928989398       52.59612413886525       61.66387490677588
H           43.38969109846793       50.97675814133216       61.06676029637967
H           44.28332988016836       52.29767835640671       60.30936406222268
H           43.96462034268217       52.31802659774680       62.04422215216309
H           41.50278486901712       54.78957032942317       60.49275638663728
H           43.08877816140008       54.47071897132893       59.79875296043642
H           44.05911859846381       54.46791405081621       62.11541750538447
H           42.59237177058368       57.01172156985200       61.31493209652867
H           44.06613447043949       56.90383994717470       62.28364770533078
H           44.09489356587083       56.43337834768896       60.58939708385726
H           41.90657349779692       53.91581622622097       63.26516086106446
H           41.31895926302857       55.53385995239644       62.91390291033517
H           43.96689091365158       55.43790042295823       64.28337369044181
H           42.65297878222022       57.55866860627528       63.95720596148974
H           41.37297483540927       56.89251897593438       64.96979627528870
H           42.96329780134668       57.21654052977034       65.65738629027159
H           66.77204408884049       39.88157849737593       70.16472792393527
H           68.10046937656585       38.85661618087910       70.70516204007990
C           64.82143147692854       70.45518477778010       53.76319577481919
C           64.43258583505732       71.92880343936349       53.68540853009335
C           65.21564960788557       72.72292740072886       54.73135968550513
C           62.93032541185300       72.13825645052253       53.90821792215706
C           61.99973856449224       71.47868245135766       52.88379787078372
C           62.13774603556648       72.12991430644954       51.50862653613105
C           60.54149876407048       71.57099552130745       53.35970867490914
C           60.16201801323506       70.54613911943922       54.43544493704604
C           59.97385221222084       69.16091931000605       53.81782556542195
C           58.87131495580777       70.94634450224100       55.16359835554790
C           58.96350884519335       72.15616530442000       56.10264660464522
C           60.07261531351757       71.98210785247359       57.14242624560054
C           57.63856986701864       72.37505668922739       56.85300153035322
C           56.38695508058442       72.59642788355546       55.99629924666618
C           56.56992328149514       73.79133301832314       55.05970406580171
C           55.15287862442787       72.84976416887818       56.87826859969590
C           54.66644526405018       71.66997204305504       57.73384513090638
C           54.01606100737571       70.60773883767290       56.84782224945958
C           53.64831937972718       72.14277731397632       58.78926291162796
C           54.18584865652372       72.45042171785681       60.19629232501237
C           55.26075682275945       73.53765658111887       60.18886690306129
C           54.73056776265678       71.22336755860030       60.93986882192034
C           53.76210750473812       70.05259898170326       61.15720973952355
C           52.45410524122202       70.50889021555325       61.80334439126795
C           54.41687302490237       68.99241129722289       62.05800687441936
C           55.52465086291384       68.16032947446678       61.39490863463022
C           54.90757581967330       67.07463735460702       60.51636874658161
C           56.43015642984921       67.55676902105816       62.47735498247557
C           57.68445046676896       66.83417847330527       61.97228816398152
C           58.32881277242679       66.06784103704004       63.12743881956582
C           58.70115765773868       67.74416140688551       61.26639006735449
C           59.36741439986299       68.84319746300470       62.11074055404553
C           58.68922856517128       70.19709387776706       61.89451391406958
C           60.85610973410403       68.97294868845903       61.75395629212148
C           61.73846889942446       67.81572914592908       62.23781491076539
C           62.03570823562897       67.94783535758991       63.73021534090968
C           63.05057224581436       67.77096052638831       61.44198370324519
C           62.92475730990923       67.12487942265599       60.05514458661904
C           62.97270599210040       65.60243612108125       60.16847061476934
C           64.04082217148364       67.62397861153032       59.12536739373726
C           63.74157485262391       68.99187924522370       58.49664929790276
C           62.86929082563569       68.81807561780731       57.25386609936084
C           65.02890551531709       69.73916787062829       58.11894970207706
C           65.78982851522605       70.35641165927497       59.29803229464221
C           65.00683424182361       71.51809267229548       59.91290525803542
C           67.16703837973022       70.88340956474070       58.86599307054581
C           68.17776583263930       69.84761671949384       58.35485988897534
C           68.40323182974396       68.73910319920734       59.37829079389456
C           69.50541308918602       70.55470329889391       58.04215846675645
C           70.45131238849034       69.76374093460244       57.12750825098298
C           71.85196602487683       70.37421368072930       57.19365937432053
C           69.94524881226690       69.72873350037680       55.67253042582230
C           69.41680298119847       68.36535724970726       55.20167837752085
C           70.55830294680409       67.36446164219547       55.04145283508957
C           68.65704892141183       68.56844241508671       53.88380098000365
C           67.98903828409885       67.33175204791027       53.26494510017351
C           67.46168664664287       67.70382193891700       51.87981700591226
C           66.86154936291516       66.81579795993234       54.16461930824014
C           66.20464760800239       65.48795796202504       53.75912215921095
C           64.99409492500413       65.26465023354395       54.66702534576319
C           67.19914994319547       64.32567875825973       53.86822990092566
C           66.68766555671489       62.96763364432747       53.35340290903676
C           67.06132838957704       61.86747995719971       54.34684509585146
C           67.24910768468345       62.60190703870924       51.97239767717095
C           66.83374690928170       63.51406920487873       50.81302090769469
C           65.32286277413174       63.46828213070766       50.58393043380826
C           67.53220638921636       63.09481510152725       49.51031460055999
C           69.03702380552103       63.37378589969660       49.42064009260549
C           69.31421752005483       64.87255719317410       49.31212834881850
C           69.63473457602194       62.65415675118265       48.20044965008819
C           69.88619502504959       61.15205447422561       48.40288463302488
C           71.15634087766745       60.93015889169642       49.22168041600489
C           69.98120971215687       60.46622178153451       47.03266021510574
C           70.24427834228689       58.95226121901108       47.04113867890220
C           70.36695216903662       58.46545050189681       45.59682763500340
C           69.12789986805102       58.21677414520757       47.78967530231606
C           69.21189852952725       56.68437964583349       47.84130398472094
C           67.94285991189723       56.16561912506410       48.51528365605144
C           70.45906361617536       56.21947582165632       48.60129501853419
C           70.72944128000130       54.70817177271744       48.55550588169780
C           71.71919888365568       54.34224083663099       49.66156716614309
C           71.26536561983919       54.29262546434605       47.18030004389159
C           71.21713167028167       52.78477198288469       46.90121190756286
C           72.01034482542248       52.48108099738970       45.62975016071992
C           69.77011347405551       52.26712732878109       46.77873866049289
C           69.36544163484747       51.27281530081412       47.87409712916174
C           70.11423104538021       49.95117277171493       47.70856274331751
C           67.85518182604767       50.99844178558875       47.85789316700550
C           67.00618535328636       52.16524534447635       48.35423251340080
C           65.53338561599482       51.79179347076114       48.46582899302477
H           65.90218190925552       70.35158052524869       53.68974235117619
H           64.49887494076609       70.02655385260023       54.70983566836789
H           64.37327142114722       69.88694693403973       52.95235033317687
H           65.14973171014688       51.47488534742511       47.49848140330743
H           65.39885991630931       50.97742108931927       49.17541690720678
H           64.94768634711438       52.64298206994142       48.80500773023210
H           67.54753884886411       50.73182939299389       46.84376275305162
H           67.65574449306699       50.13305370042066       48.49596111507803
H           69.08748567940467       53.11636532437768       46.80028552781610
H           69.64032278332154       51.77810654914328       45.81144176256694
H           71.71289771191658       52.27048026601003       47.73006813222895
H           73.04157139824385       52.81667027092958       45.72731784768791
H           72.01905717808056       51.41244417782012       45.42828070722485
H           71.56703656709378       52.98871237532539       44.77507507898665
H           70.69476764247302       54.79742053902140       46.39747253483370
H           72.30077415611308       54.63602813541538       47.09619955928631
H           71.34019938295066       56.72781682774333       48.20408145424499
H           70.34940623292324       56.52567805017338       49.64533848331364
H           69.62825999891969       51.70047239661125       48.84935222162939
H           69.90443476138779       49.28449636351711       48.54321193479684
H           69.79798467296929       49.45755041825353       46.79167918257630