3536
 energy: -3716.250344334556 gnorm: 0.000987697522 xtb: 6.6.1 (8d0f1dd)
C           42.53945724565337       54.51167605736522       65.57520414519269
C           42.88096802632442       55.44561637940691       64.41348078082703
C           42.44317853949776       56.86632949084992       64.76661455508568
C           42.22150526756277       54.94898547622443       63.11320059712869
C           43.12936907007007       54.99092229563909       61.87815058999564
C           43.49164793291927       56.42488583793523       61.49480483667084
C           42.46211308323939       54.30054270117305       60.67795813277537
C           42.23659998472357       52.79023813442064       60.81634456958195
C           43.55074573822543       52.05233372289928       61.07594593439303
C           41.58509188669375       52.19707337114897       59.55815970295982
C           40.18214507744548       52.69729325442551       59.18275542949653
C           39.24023214403601       52.72909118286394       60.38552140172990
C           39.58748653759073       51.77973466933484       58.10096508214205
C           40.11466860459483       52.01287085255952       56.67786976367817
C           39.36407048119865       53.16615536899476       56.01432305659115
C           39.96824412505575       50.72889182498742       55.84610424598291
C           41.10694636397514       49.71726557583992       56.08808520710809
C           42.14427299379366       49.82655499086016       54.97247075760683
C           40.54635878094309       48.29397832606709       56.19848959272799
C           41.56869853764402       47.16223477870204       56.39522993004685
C           40.80394749884743       45.85002430513919       56.57060731600941
C           42.48077889930807       47.43875290857026       57.59507970134514
C           43.50855299395166       46.35016089937781       57.94371167417597
C           44.31543249735633       46.83279256907846       59.14884938502334
C           44.41885819565537       46.04717309210285       56.74611703507431
C           45.59298390159071       45.08839481583576       57.00147817012088
C           46.45491623268278       45.03218644133531       55.74029237163145
C           45.10363672863326       43.69098683285971       57.39392340485598
C           46.19452170570827       42.69073172338611       57.80555386399925
C           45.55094486084029       41.31853070892532       58.01108194251773
C           46.94445867746591       43.12598481574429       59.07718436120012
C           48.27823513591548       43.84170202923760       58.81994295068831
C           49.34826159621112       42.84751560521085       58.37741247113518
C           48.74341733608182       44.60461331656043       60.06742887347500
C           49.84625627153489       45.64282571054973       59.77903235657410
C           51.12544021057654       45.30239322979772       60.54532944812563
C           49.41191172130802       47.06837173475079       60.14786066512455
C           48.19480025096176       47.62225534718536       59.39770501084668
C           48.40025945592450       47.61265309313534       57.88389079758761
C           47.89377954672882       49.07019032536198       59.81596332913774
C           47.73265144193414       49.34513093018104       61.31454436563303
C           46.63952449092260       48.48148981463386       61.93821359155798
C           47.42299323808746       50.83609399645385       61.53121026311180
C           47.96785700886159       51.37431365577211       62.85983336459638
C           47.30970035411026       52.71196774426933       63.19539191823703
C           49.50273090105356       51.51722916549700       62.81036073452702
C           50.24154289251732       50.78052001595483       63.93233929470239
C           49.83669042393793       51.33025946215372       65.29890182677006
C           51.76467362523289       50.91428103613664       63.78923090083421
C           52.39447648964924       50.32517284500700       62.52232721794942
C           52.16772504963140       48.81638337160221       62.43163461845321
C           53.90595456979534       50.59968770333106       62.48954157179426
C           54.33279109312767       52.07144713818933       62.44239677356831
C           53.67065559804990       52.81338277582758       61.28072518556579
C           55.85545333511887       52.18680780779851       62.28805861725757
C           56.72289924746806       51.61720097849048       63.41873429840928
C           56.34586418090679       52.22315421514678       64.76820787422572
C           58.19037087696233       51.91842857702831       63.07909241319965
C           59.24165238738423       51.14521418910339       63.88897821364424
C           60.58818899798820       51.85438585921861       63.75179986727199
C           59.31496863833288       49.68642689988812       63.41770329579303
C           60.37319640438012       48.79775977896344       64.09184482305403
C           60.29909815877562       47.39591103181331       63.48576468700590
C           60.17557362976127       48.76289511479723       65.61164657814453
C           61.16300685778847       47.89637689769508       66.40825813355454
C           60.79898802522432       47.95561690108495       67.89328346695801
C           62.60106051085300       48.37314277404546       66.17314926404180
C           63.69604802755665       47.67341610679156       66.98994748018490
C           65.03389231947217       48.35429107699722       66.70246362702673
C           63.74588655860618       46.18027833657320       66.64884622428950
C           64.77423152866305       45.34145198391614       67.41884069670510
C           64.85723237723387       43.95611731733717       66.77600695059110
C           64.40476923948682       45.23702970478895       68.90419658105763
C           65.56250280079641       44.80750469111931       69.81355706631197
C           65.01637710761445       44.34723498798147       71.16412932263921
C           66.57069552628212       45.94696362704944       70.02201717855598
C           68.00343815798031       45.45083985314962       70.26215439655792
C           68.81169688780086       46.51832081229401       70.99705063254856
C           68.66296158825050       45.08663340565213       68.92624982172404
C           69.91464855217502       44.20668712607142       69.03448463150369
C           70.57320386349980       44.10312995994600       67.65788504198443
C           69.58926505555485       42.80449297946085       69.58454711987633
C           70.06819553147602       42.56270472511468       71.02213671439991
C           71.58705624267880       42.39434156996006       71.05325131471028
C           69.40904040439862       41.30973479633212       71.61788332354199
C           67.93845469588622       41.47721108187523       72.01912419334843
C           67.81495224414985       42.31586351590777       73.29157579277508
C           67.25755704932826       40.12068552331945       72.24652803626370
C           67.12718200286982       39.26177999893854       70.98892456278226
C           66.15715197862870       38.10527838379128       71.20017124693825
H           42.98481015243503       54.87287066594868       66.50050352887529
H           41.46144395572162       54.46180577378914       65.71628702950601
H           42.90860033343443       53.50616601460536       65.38439449209207
H           65.16432315852261       38.48022059994713       71.44064947999739
H           66.08493599250795       37.49594130057901       70.30190571023199
H           66.48943198270518       37.47165547137960       72.01966198147720
H           67.80577693924923       39.56471106778604       73.01063068184229
H           66.25368599455071       40.30918763469316       72.63697728101407
H           69.49620758808885       40.50872345405627       70.88234683831971
H           69.96911236142270       41.00207320573457       72.50430836221001
H           69.81077561834435       43.43096701903679       71.63503144089222
H           71.94309154916387       42.30897389423936       72.07780262520315
H           71.87786742301105       41.49470221445256       70.51392816820068
H           72.08448423875868       43.24354415143299       70.59116125633291
H           68.51165842526554       42.64463788674968       69.53106800962506
H           70.05200194785493       42.04753182790401       68.94732944223750
H           67.93770290402166       44.56645553505870       68.29610288026201
H           68.92803037422097       46.01525437417065       68.41281317774757
H           67.40032900322188       41.98838456972582       71.21378878540024
H           68.31696263510190       41.82014247253176       74.12002095210157
H           68.26177452405989       43.29860520603536       73.16331836711565
H           66.76898468257785       42.45101255109562       73.56031808071057
H           70.62458632161770       44.69768887710011       69.70610585005538
H           71.48607879375960       43.51429122079491       67.71262221041245
H           69.89852126437549       43.62767015541897       66.94843162408242
H           70.82727527562648       45.09028172636818       67.27669324109523
H           67.95618089542673       44.55902706435857       70.89187491166494
H           68.36793989074535       46.73467745440904       71.96670048883125
H           69.83562157904208       46.19129665849746       71.16025081632809
H           68.83464024869029       47.44090231196477       70.42031576283190
H           66.57781271580073       46.61182381668817       69.15676084601363
H           66.24593676732346       46.54156608213525       70.87837553557455
H           66.07471916988973       43.95877922578761       69.35039462100006
H           65.82786580617157       44.11365290590173       71.84834642852913
H           64.40377054084635       45.12876767410894       71.61084480793238
H           64.40202631817617       43.45749791940580       71.04750852042450
H           64.04046900296660       46.20080974955094       69.26339219192091
H           63.58388491556715       44.52234043412586       69.00589651863460
H           65.75774593553217       45.80833977844987       67.32515172208383
H           63.88395878723104       43.46883111007028       66.78938600625727
H           65.18151924522934       44.03365217084794       65.74017549652784
H           65.56482835631581       43.31997141308685       67.30138394964682
H           62.76228287837085       45.74101468612879       66.82594009092671
H           63.95829604137438       46.09100439746964       65.58000787945301
H           63.47653290477663       47.80360246743233       68.05261000079049
H           64.95373427051143       49.42893013284311       66.85539779740964
H           65.81129459284647       47.97989349807104       67.36286106263830
H           65.34247233784582       48.17770505360247       65.67415505016915
H           62.84515808067160       48.24768247194960       65.11706104595562
H           62.64097343197572       49.44320786197316       66.39687148496489
H           61.06184159120974       46.86139412857620       66.07115311478734
H           59.73096372530471       47.79963341559080       68.03185661694759
H           61.32690713438239       47.18780396993097       68.45363915270406
H           61.05489319338968       48.92633522512361       68.31070818755620
H           60.25162486239369       49.78200908400469       65.99474667770833
H           59.16104265990752       48.40708858771188       65.81200103314586
H           61.35972559307232       49.21181052419315       63.86803360939476
H           59.36302874447981       46.91147940320978       63.75692030293038
H           60.35682143768078       47.44896072658632       62.40070533751345
H           61.12041738074544       46.77323780597892       63.82957998687961
H           58.33691756867627       49.22311413960977       63.56558833401902
H           59.51426626322495       49.68691140572544       62.34187068150399
H           58.95108849047810       51.16481114891646       64.94210279346292
H           61.35576288270131       51.36444956448264       64.34412599285500
H           60.90652749027150       51.86572000213278       62.71161458468569
H           60.50909079425719       52.88485708215777       64.09188224701109
H           58.35863244249720       51.71425657844006       62.01865563417622
H           58.35277698678338       52.98881562507742       63.22759507067462
H           56.58351928124546       50.53416781642856       63.46725226001570
H           56.35770983223684       53.30962832363591       64.70915271298435
H           55.35460787786947       51.89978401231633       65.07438754356014
H           57.04756423138537       51.91457515135119       65.53814950131412
H           56.13859742636578       51.69118930258420       61.35676748653584
H           56.10858426446391       53.24474513727559       62.18261904238467
H           54.03990722423315       52.56405730236792       63.37309268210132
H           53.85422153509455       52.29237915755660       60.34387618199194
H           52.59757234791302       52.89704728173283       61.42862983832405
H           54.07533591889773       53.82012153610750       61.19274376741943
H           54.35202735756314       50.13730222128775       63.37268600248044
H           54.32333320665271       50.10196201084825       61.60945756280351
H           51.94075831557703       50.78722988914553       61.64296074259610
H           52.56969769214181       48.31583800171665       63.30941189667571
H           51.10990063526702       48.58258258689851       62.35420114318228
H           52.66339697845164       48.40997505966356       61.55192371377650
H           52.00086674044841       51.97859057588705       63.83428124190108
H           52.23389339164931       50.43852170377551       64.65436568656683
H           49.96486099488799       49.72190851887887       63.89516907481752
H           48.77417768967532       51.19933953917106       65.47634896483648
H           50.37703394363569       50.81568010183195       66.09014619905466
H           50.06495164693844       52.39232957225128       65.35554977775782
H           49.85914542345581       51.14043299563081       61.85167074981160
H           49.77113265222813       52.57482800750590       62.86033230170279
H           47.70003970295623       50.65885575954687       63.64330649892409
H           46.23294012316896       52.59906489258834       63.30036624539322
H           47.70613059041574       53.11316062815569       64.12539657582928
H           47.49813534086557       53.43467678192098       62.40367924020263
H           47.85520083979252       51.42323909065250       60.71872642030257
H           46.34142409953682       50.98041401562183       61.49415795783921
H           48.68008285363873       49.11999697882090       61.81093989348536
H           45.69382571802332       48.63229705870221       61.42233288834490
H           46.89216261627482       47.42600563823266       61.88833625037716
H           46.50306979486830       48.74290802641089       62.98553403064682
H           48.70546261807283       49.70248463189274       59.44473439943606
H           46.97654757787079       49.38794823421232       59.31218201164575
H           47.32224502838679       47.00585413790176       59.62718023274756
H           48.53295928092349       46.60548966826698       57.50336128090185
H           47.53779738223412       48.04871751203843       57.38425250901315
H           49.27889030919967       48.19533919551758       57.62098240346918
H           49.19968211265467       47.07725964558416       61.21830737536844
H           50.25603303719306       47.73918203861773       59.97312534796489
H           50.09003757582785       45.62124694894973       58.71371564377407
H           51.91499866340752       46.01149230307963       60.30582415601616
H           50.94833928897963       45.33671924471536       61.61820057715815
H           51.47248685368073       44.30451325993379       60.28751909850237
H           47.88614876322927       45.10788573509412       60.51752024731401
H           49.10560003728423       43.88187690918016       60.80059183578518
H           48.13078033581746       44.56477028791148       58.01569806128932
H           49.51989429396962       42.10526712296087       59.15467762345504
H           49.04652552673378       42.32932511749650       57.47075373998699
H           50.28755837607002       43.35612119319478       58.17465209672942
H           46.29110152716103       43.78223432431529       59.65666525840473
H           47.14593586033100       42.24707773045625       59.69389122162099
H           46.91023560288612       42.59305706612496       56.98539886835352
H           46.30683300623244       40.56990845045019       58.24020414877374
H           44.83635259678249       41.34687073566887       58.83192194208528
H           45.02400456504771       41.00874963750103       57.11150602450122
H           44.40531151124819       43.78272410574194       58.22773262440325
H           44.55085791286385       43.27182756216949       56.54852289516283
H           46.19811425485240       45.49546303001350       57.81244044060649
H           46.84765597940963       46.01986698696334       55.50851435255679
H           47.29977434544844       44.36029479162964       55.86176088530349
H           45.86605715314712       44.68319477691261       54.89436940895077
H           43.81347398641985       45.62976589083504       55.93915238038907
H           44.83264420348009       46.99449251881064       56.38899488337907
H           42.97089489232049       45.44305082177898       58.23057547099840
H           43.65222334185206       47.16562131248885       59.94519062941227
H           44.93868141896324       46.03796663357645       59.54729082543950
H           44.95358064488160       47.66788798930511       58.86784967123041
H           43.03199888439318       48.36408214043697       57.41652189424077
H           41.84638454516815       47.59886017345485       58.47176673286462
H           42.17830386172557       47.08852605921108       55.49074391920198
H           41.47732951098548       44.99788293248891       56.58414926954783
H           40.24244472215781       45.86100738614783       57.50292013585563
H           40.10112152053862       45.71004667665324       55.75211287359723
H           39.84753260711483       48.26795919560031       57.03901411786189
H           39.97277129686038       48.07832972149772       55.29289284115884
H           41.59024996272470       49.97222180615631       57.03584685540298
H           43.02749255898556       49.23300130418010       55.19573623690348
H           41.72573459734325       49.48038576126766       54.02925440519937
H           42.45137413373183       50.86200679876895       54.84614867760469
H           39.00308490855569       50.27562990463002       56.08211420186618
H           39.94634203439740       50.98483057489004       54.78499153085826
H           41.17489969987652       52.27760721328466       56.72422926270931
H           39.77651211000803       53.38014044462962       55.03040504482402
H           38.31244768117730       52.91354114263753       55.89289525497696
H           39.43083564242660       54.06947523114285       56.61617788441485
H           39.77996370521505       50.74513717407641       58.39262797147400
H           38.50268449847356       51.90817936495210       58.07918977519876
H           40.25591159365294       53.71337397376229       58.78280524867276
H           38.23974321603099       53.01969517150019       60.07115298283562
H           39.18136649568754       51.74609608473354       60.84778240452535
H           39.57348834824888       53.44311148228415       61.13346462250460
H           42.25133653298210       52.36878725852800       58.70965925072666
H           41.52250301808148       51.11637645347978       59.70833695287958
H           41.57413147306123       52.59610789464988       61.66339634611199
H           43.38983311452527       50.97607757276012       61.06651583767358
H           44.28360324765934       52.29725533234001       60.31007046411366
H           43.96396343278983       52.31764801365912       62.04466390433731
H           41.50339183694611       54.78910905861267       60.49372462614792
H           43.08913571700515       54.47046703366153       59.79851326159013
H           44.06109788474421       54.46825052974746       62.11411698914423
H           42.59175540721211       57.01037426267801       61.31524195424358
H           44.06645457207576       56.90328625120820       62.28321899760051
H           44.09478335386661       56.43335216025009       60.58850503571745
H           41.90721160301008       53.91583771344801       63.26498543238513
H           41.32144601175899       55.53470963220374       62.91300815310776
H           43.96881421588450       55.43747693475581       64.28171469682425
H           42.65291020736587       57.55832409492648       63.95626128908619
H           41.37398584774472       56.88982811370224       64.96883935240255
H           42.96393003114088       57.21607521391326       65.65625525512154
H           66.77297269320901       39.88224583480832       70.16392728412245
H           68.10006014150380       38.85679915681461       70.70602902948220
C           64.82120271865402       70.45481810675048       53.76367176807381
C           64.43218870208383       71.92866671167498       53.68614192166746
C           65.21525133904169       72.72208708062365       54.73231025730808
C           62.93001574537289       72.13833326087563       53.90902701528986
C           61.99993577763401       71.47810918441699       52.88433917502691
C           62.13773050640798       72.12944029734589       51.50933685148401
C           60.54145188614321       71.57161873668969       53.35965653346756
C           60.16206797485253       70.54712177616746       54.43562544823463
C           59.97421966699167       69.16139995008756       53.81802489854427
C           58.87076176381875       70.94687073712626       55.16342770023977
C           58.96318256637161       72.15662546419195       56.10283053622138
C           60.07251083762750       71.98240306540049       57.14227116650712
C           57.63830569463074       72.37516951068274       56.85343875792780
C           56.38666125882821       72.59574854384422       55.99620835819014
C           56.56988992147713       73.79056369620713       55.05975888166663
C           55.15288023904196       72.84984942442888       56.87845095039537
C           54.66669026652152       71.67012918698748       57.73425567883187
C           54.01568679658576       70.60812087325147       56.84787472881654
C           53.64811508041527       72.14290832403850       58.78926016445327
C           54.18605943306608       72.45037551464785       60.19604873182742
C           55.26112911370939       73.53711570814109       60.18821069932313
C           54.73146726701752       71.22349714896596       60.93951468812488
C           53.76267432518974       70.05275278110075       61.15639482989755
C           52.45520213465279       70.50920994839478       61.80294860035475
C           54.41685644764284       68.99300503288603       62.05821667265110
C           55.52483242329340       68.16114513455635       61.39529785051555
C           54.90717033040008       67.07508092977345       60.51695786108442
C           56.43026886441638       67.55773697902637       62.47797959511128
C           57.68414951503004       66.83452418835334       61.97237629352724
C           58.32891318599828       66.06872324037425       63.12806484753621
C           58.70129128414621       67.74464976738500       61.26640479973271
C           59.36737768113620       68.84391789025486       62.11098354359836
C           58.68938463421680       70.19765262287653       61.89399791143556
C           60.85599810190072       68.97333501428899       61.75352117537899
C           61.73774397372276       67.81550342221954       62.23768933769234
C           62.03562006378641       67.94768257406245       63.73001615497333
C           63.05041496785194       67.77119170364053       61.44232044016623
C           62.92449702204785       67.12540201259716       60.05528324779211
C           62.97319917787159       65.60251034678248       60.16879026290078
C           64.04064820595656       67.62443969485619       59.12515999638835
C           63.74148720531267       68.99268078935157       58.49644654182790
C           62.86839195862399       68.81899609445433       57.25390735436974
C           65.02932740016270       69.73922296321375       58.11869018218439
C           65.79028816169098       70.35594384827448       59.29845650261193
C           65.00706663394358       71.51752045746100       59.91287286019916
C           67.16691988232608       70.88355528678781       58.86527706515362
C           68.17739705314750       69.84766571852316       58.35392399733496
C           68.40350438329561       68.73957269880002       59.37822081471140
C           69.50522913232824       70.55453501556951       58.04185290188941
C           70.45066106931492       69.76296745668571       57.12738104218632
C           71.85083546755774       70.37382472692070       57.19296957683928
C           69.94436221719464       69.72861560076397       55.67248394610574
C           69.41575233179103       68.36505635355473       55.20220354622377
C           70.55777150071228       67.36469373329670       55.04145787664105
C           68.65633554969506       68.56863466061816       53.88409747043275
C           67.98947051648882       67.33169299700198       53.26452760161413
C           67.46141431440897       67.70398974044096       51.87964137062669
C           66.86178205214634       66.81594650648432       54.16461711761166
C           66.20404455150042       65.48835510521596       53.75893880448791
C           64.99334966672298       65.26465009297105       54.66736459222600
C           67.19889861567611       64.32603602807016       53.86791575270835
C           66.68734062385053       62.96781863242143       53.35305506393830
C           67.06238925613049       61.86775707489156       54.34669002784084
C           67.24941505767555       62.60207738077673       51.97202029695832
C           66.83369574995238       63.51433051585093       50.81255522759926
C           65.32242740658995       63.46833239631931       50.58374434770396
C           67.53238421131147       63.09460902840706       49.50992832923811
C           69.03745671529256       63.37399777457617       49.42057542744242
C           69.31377365309700       64.87275555625459       49.31110397480427
C           69.63452259703955       62.65408901983637       48.20020748169400
C           69.88536520666639       61.15177475888014       48.40339010976700
C           71.15607478089743       60.93028608893013       49.22157239808615
C           69.98103911040334       60.46630161460522       47.03278770417513
C           70.24524640513150       58.95253043964887       47.04127442030660
C           70.36706528066672       58.46527389815191       45.59718129464294
C           69.12862778259321       58.21731512382934       47.79014902670798
C           69.21307816264847       56.68478479515263       47.84147677117362
C           67.94357370831487       56.16626461620739       48.51573330398136
C           70.45977176626280       56.21950272090135       48.60188934765102
C           70.72910002192052       54.70778529525047       48.55614425664494
C           71.71928998675274       54.34248709256224       49.66210941730857
C           71.26534467910724       54.29283624433648       47.18071597916652
C           71.21797499589928       52.78491221423100       46.90202561585459
C           72.01047099411396       52.48136425060000       45.63026628676108
C           69.77063848232524       52.26735445132234       46.77943675423373
C           69.36636088075183       51.27300951513201       47.87519213305637
C           70.11478299463559       49.95121062752162       47.70908071020354
C           67.85590698299789       50.99798625180927       47.85837064898509
C           67.00695049532425       52.16490712713380       48.35527906622669
C           65.53362395225835       51.79179518745754       48.46618179528721
H           65.90194355035776       70.35178993257490       53.69051437018978
H           64.49863494440226       70.02515614456409       54.71007386141532
H           64.37357148776712       69.88633456605825       52.95256749650764
H           65.15023317632804       51.47567882868789       47.49844159474191
H           65.39814654624497       50.97709844810431       49.17518993774500
H           64.94765125273493       52.64293446334837       48.80536080220539
H           67.54755005697108       50.73248191954030       46.84427198903654
H           67.65572611673642       50.13273602022132       48.49615297495512
H           69.08723345634085       53.11610704686048       46.80074218550772
H           69.64023992473770       51.77746643326902       45.81280171535312
H           71.71202206429132       52.27072348908550       47.73106960967089
H           73.04096857227084       52.81717480299837       45.72875652302665
H           72.01892232120662       51.41277353804877       45.42935697902927
H           71.56669043776790       52.98928463240532       44.77619194469583
H           70.69445234908549       54.79712998745037       46.39811691369093
H           72.30015825954446       54.63555836713518       47.09802101226057
H           71.33996770645433       56.72709592239046       48.20362643096340
H           70.34939194586656       56.52583443389904       49.64561505149056
H           69.62733823985165       51.70012935410089       48.85055019667472
H           69.90516772946914       49.28537607436917       48.54429458250726
H           69.79690198195451       49.45811101347768       46.79254017292538