      -----------------------------------------------------------      
     |                   =====================                   |     
     |                           x T B                           |     
     |                   =====================                   |     
     |                         S. Grimme                         |     
     |          Mulliken Center for Theoretical Chemistry        |     
     |                    University of Bonn                     |     
      -----------------------------------------------------------      

   * xtb version 6.6.1 (8d0f1dd) compiled by 'stahn@M-Bot' on 2023-08-01

   xtb is free software: you can redistribute it and/or modify it under
   the terms of the GNU Lesser General Public License as published by
   the Free Software Foundation, either version 3 of the License, or
   (at your option) any later version.
   
   xtb is distributed in the hope that it will be useful,
   but WITHOUT ANY WARRANTY; without even the implied warranty of
   MERCHANTABILITY or FITNESS FOR A PARTICULAR PURPOSE.  See the
   GNU Lesser General Public License for more details.
   
   Cite this work as:
   * C. Bannwarth, E. Caldeweyher, S. Ehlert, A. Hansen, P. Pracht,
     J. Seibert, S. Spicher, S. Grimme, WIREs Comput. Mol. Sci., 2020, 11,
     e01493. DOI: 10.1002/wcms.1493
   
   for GFN2-xTB:
   * C. Bannwarth, S. Ehlert and S. Grimme., J. Chem. Theory Comput., 2019,
     15, 1652-1671. DOI: 10.1021/acs.jctc.8b01176
   for GFN1-xTB:
   * S. Grimme, C. Bannwarth, P. Shushkov, J. Chem. Theory Comput., 2017,
     13, 1989-2009. DOI: 10.1021/acs.jctc.7b00118
   for GFN0-xTB:
   * P. Pracht, E. Caldeweyher, S. Ehlert, S. Grimme, ChemRxiv, 2019, preprint.
     DOI: 10.26434/chemrxiv.8326202.v1
   for GFN-FF:
   * S. Spicher and S. Grimme, Angew. Chem. Int. Ed., 2020, 59, 15665-15673.
     DOI: 10.1002/anie.202004239
   
   for ALPB and GBSA implicit solvation:
   * S. Ehlert, M. Stahn, S. Spicher, S. Grimme, J. Chem. Theory Comput.,
     2021, 17, 4250-4261. DOI: 10.1021/acs.jctc.1c00471
   
   for DFT-D4:
   * E. Caldeweyher, C. Bannwarth and S. Grimme, J. Chem. Phys., 2017,
     147, 034112. DOI: 10.1063/1.4993215
   * E. Caldeweyher, S. Ehlert, A. Hansen, H. Neugebauer, S. Spicher,
     C. Bannwarth and S. Grimme, J. Chem. Phys., 2019, 150, 154122.
     DOI: 10.1063/1.5090222
   * E. Caldeweyher, J.-M. Mewes, S. Ehlert and S. Grimme, Phys. Chem. Chem. Phys.
     2020, 22, 8499-8512. DOI: 10.1039/D0CP00502A
   
   for sTDA-xTB:
   * S. Grimme and C. Bannwarth, J. Chem. Phys., 2016, 145, 054103.
     DOI: 10.1063/1.4959605
   
   in the mass-spec context:
   * V. Asgeirsson, C. Bauer and S. Grimme, Chem. Sci., 2017, 8, 4879.
     DOI: 10.1039/c7sc00601b
   * J. Koopman and S. Grimme, ACS Omega 2019, 4, 12, 15120-15133.
     DOI: 10.1021/acsomega.9b02011
   
   for metadynamics refer to:
   * S. Grimme, J. Chem. Theory Comput., 2019, 155, 2847-2862
     DOI: 10.1021/acs.jctc.9b00143
   
   for SPH calculations refer to:
   * S. Spicher and S. Grimme, J. Chem. Theory Comput., 2021, 17, 1701-1714
     DOI: 10.1021/acs.jctc.0c01306
   
   with help from (in alphabetical order)
   P. Atkinson, C. Bannwarth, F. Bohle, G. Brandenburg, E. Caldeweyher
   M. Checinski, S. Dohm, S. Ehlert, S. Ehrlich, I. Gerasimov, C. Hölzer
   A. Katbashev, J. Koopman, C. Lavigne, S. Lehtola, F. März, M. Müller,
   F. Musil, H. Neugebauer, J. Pisarek, C. Plett, P. Pracht, F. Pultar,
   J. Seibert, P. Shushkov, S. Spicher, M. Stahn, M. Steiner, T. Strunk,
   J. Stückrath, T. Rose, and J. Unsleber
   
 * started run on 2024/10/04 at 14:12:37.289     

           -------------------------------------------------
          |                Calculation Setup                |
           -------------------------------------------------

          program call               : /home/abt-grimme/AK-bin/xtb input.xyz --input input.inp --opt
          hostname                   : boar052.thch.uni-bonn.de
          coordinate file            : input.xyz
          omp threads                :                     8

   ID    Z sym.   atoms
    1    6 C      1-90, 273-362, 545-634, 817-906, 1089-1178, 1361-1450,
                  1633-1722, 1905-1994, 2177-2266, 2449-2538, 2721-2810,
                  2993-3082, 3265-3354
    2    1 H      91-272, 363-544, 635-816, 907-1088, 1179-1360, 1451-1632,
                  1723-1904, 1995-2176, 2267-2448, 2539-2720, 2811-2992,
                  3083-3264, 3355-3536

molecular fragmentation (1/2 indicates fragments):
111111111111111111111111111111111111111111111111111111111111111111111111
111111111111111111111111111111111111111111111111111111111111111111111111
111111111111111111111111111111111111111111111111111111111111111111111111
111111111111111111111111111111111111111111111111111111112222222222222222
222222222222222222222222222222222222222222222222222222222222222222222222
222222222222222222222222222222222222222222222222222222222222222222222222
222222222222222222222222222222222222222222222222222222222222222222222222
222222222222222222222222222222222222222222222222222222222222222222222222
222222222222222222222222222222222222222222222222222222222222222222222222
222222222222222222222222222222222222222222222222222222222222222222222222
222222222222222222222222222222222222222222222222222222222222222222222222
222222222222222222222222222222222222222222222222222222222222222222222222
222222222222222222222222222222222222222222222222222222222222222222222222
222222222222222222222222222222222222222222222222222222222222222222222222
222222222222222222222222222222222222222222222222222222222222222222222222
222222222222222222222222222222222222222222222222222222222222222222222222
222222222222222222222222222222222222222222222222222222222222222222222222
222222222222222222222222222222222222222222222222222222222222222222222222
222222222222222222222222222222222222222222222222222222222222222222222222
222222222222222222222222222222222222222222222222222222222222222222222222
222222222222222222222222222222222222222222222222222222222222222222222222
222222222222222222222222222222222222222222222222222222222222222222222222
222222222222222222222222222222222222222222222222222222222222222222222222
222222222222222222222222222222222222222222222222222222222222222222222222
222222222222222222222222222222222222222222222222222222222222222222222222
222222222222222222222222222222222222222222222222222222222222222222222222
222222222222222222222222222222222222222222222222222222222222222222222222
222222222222222222222222222222222222222222222222222222222222222222222222
222222222222222222222222222222222222222222222222222222222222222222222222
222222222222222222222222222222222222222222222222222222222222222222222222
222222222222222222222222222222222222222222222222222222222222222222222222
222222222222222222222222222222222222222222222222222222222222222222222222
222222222222222222222222222222222222222222222222222222222222222222222222
222222222222222222222222222222222222222222222222222222222222222222222222
222222222222222222222222222222222222222222222222222222222222222222222222
222222222222222222222222222222222222222222222222222222222222222222222222
222222222222222222222222222222222222222222222222222222222222222222222222
222222222222222222222222222222222222222222222222222222222222222222222222
222222222222222222222222222222222222222222222222222222222222222222222222
222222222222222222222222222222222222222222222222222222222222222222222222
222222222222222222222222222222222222222222222222222222222222222222222222
222222222222222222222222222222222222222222222222222222222222222222222222
222222222222222222222222222222222222222222222222222222222222222222222222
222222222222222222222222222222222222222222222222222222222222222222222222
222222222222222222222222222222222222222222222222222222222222222222222222
222222222222222222222222222222222222222222222222222222222222222222222222
222222222222222222222222222222222222222222222222222222222222222222222222
222222222222222222222222222222222222222222222222222222222222222222222222
222222222222222222222222222222222222222222222222222222222222222222222222
22222222
# atoms in fragment 1/2:   272  3264
 fragment masses (1/2) :     1264.41    15172.94
CMA distance (Bohr)    :  19.064
constraining FC (au)   :  0.0500

           -------------------------------------------------
          |                 G F N 2 - x T B                 |
           -------------------------------------------------

        Reference                      10.1021/acs.jctc.8b01176
      * Hamiltonian:
        H0-scaling (s, p, d)           1.850000    2.230000    2.230000
        zeta-weighting                 0.500000
      * Dispersion:
        s8                             2.700000
        a1                             0.520000
        a2                             5.000000
        s9                             5.000000
      * Repulsion:
        kExp                           1.500000    1.000000
        rExp                           1.000000
      * Coulomb:
        alpha                          2.000000
        third order                    shell-resolved
        anisotropic                    true
        a3                             3.000000
        a5                             4.000000
        cn-shift                       1.200000
        cn-exp                         4.000000
        max-rad                        5.000000


          ...................................................
          :                      SETUP                      :
          :.................................................:
          :  # basis functions                7046          :
          :  # atomic orbitals                7046          :
          :  # shells                         4706          :
          :  # electrons                      7046          :
          :  max. iterations                   250          :
          :  Hamiltonian                  GFN2-xTB          :
          :  restarted?                      false          :
          :  GBSA solvation                  false          :
          :  PC potential                    false          :
          :  electronic temp.          300.0000000     K    :
          :  accuracy                    1.0000000          :
          :  -> integral cutoff          0.2500000E+02      :
          :  -> integral neglect         0.1000000E-07      :
          :  -> SCF convergence          0.1000000E-05 Eh   :
          :  -> wf. convergence          0.1000000E-03 e    :
          :  Broyden damping             0.4000000          :
          ...................................................

 iter      E             dE          RMSdq      gap      omega  full diag
   1  -3766.6935314 -0.376669E+04  0.227E+00   11.42       0.0  T
   2  -3771.7678874 -0.507436E+01  0.126E+00   11.44       1.0  T
   3  -3771.9800993 -0.212212E+00  0.561E-01   11.37       1.0  T
   4  -3772.0017827 -0.216834E-01  0.143E-01   11.40       1.0  T
   5  -3772.0216080 -0.198254E-01  0.513E-02   11.40       1.0  T
   6  -3772.0216292 -0.211373E-04  0.719E-03   11.39       1.0  T
   7  -3772.0216613 -0.321562E-04  0.152E-03   11.39       1.1  T
   8  -3772.0216632 -0.188329E-05  0.548E-04   11.39       3.1  T
   9  -3772.0216633 -0.970590E-07  0.183E-04   11.39       9.2  T
  10  -3772.0216633 -0.156856E-07  0.697E-05   11.39      24.1  T

   *** convergence criteria satisfied after 10 iterations ***

         #    Occupation            Energy/Eh            Energy/eV
      -------------------------------------------------------------
         1        2.0000           -0.6268077             -17.0563
       ...           ...                  ...                  ...
      3517        2.0000           -0.3955058             -10.7623
      3518        2.0000           -0.3953119             -10.7570
      3519        2.0000           -0.3950991             -10.7512
      3520        2.0000           -0.3947189             -10.7408
      3521        2.0000           -0.3944119             -10.7325
      3522        2.0000           -0.3942529             -10.7282
      3523        2.0000           -0.3937532             -10.7146 (HOMO)
      3524                          0.0249862               0.6799 (LUMO)
      3525                          0.0264773               0.7205
      3526                          0.0285362               0.7765
      3527                          0.0296137               0.8058
      3528                          0.0303002               0.8245
       ...                                ...                  ...
      7046                          0.3831170              10.4251
      -------------------------------------------------------------
                  HL-Gap            0.4187394 Eh           11.3945 eV
             Fermi-level           -0.1843835 Eh           -5.0173 eV

 SCC (total)                   0 d,  0 h, 16 min, 51.754 sec
 SCC setup                      ...        0 min,  0.493 sec (  0.049%)
 Dispersion                     ...        0 min,  4.206 sec (  0.416%)
 classical contributions        ...        0 min,  0.155 sec (  0.015%)
 integral evaluation            ...        0 min,  7.343 sec (  0.726%)
 iterations                     ...       12 min,  8.501 sec ( 72.004%)
 molecular gradient             ...        4 min, 20.357 sec ( 25.733%)
 printout                       ...        0 min, 10.700 sec (  1.058%)

         :::::::::::::::::::::::::::::::::::::::::::::::::::::
         ::                     SUMMARY                     ::
         :::::::::::::::::::::::::::::::::::::::::::::::::::::
         :: total energy           -3716.249856739078 Eh    ::
         :: gradient norm              0.019076313360 Eh/a0 ::
         :: HOMO-LUMO gap             11.394478524740 eV    ::
         ::.................................................::
         :: SCC energy             -3772.021663328473 Eh    ::
         :: -> isotropic ES            0.587356940307 Eh    ::
         :: -> anisotropic ES          1.293426719331 Eh    ::
         :: -> anisotropic XC          2.080072008158 Eh    ::
         :: -> dispersion             -4.520160239777 Eh    ::
         :: repulsion energy          55.108831077750 Eh    ::
         :: add. restraining           0.000000000000 Eh    ::
         :: total charge              -0.000000000011 e     ::
         :::::::::::::::::::::::::::::::::::::::::::::::::::::

      ----------------------------------------------------------- 
     |              Fast Inertial Relaxation Engine              |
      ----------------------------------------------------------- 

          ...................................................
          :                      SETUP                      :
          :.................................................:
          :   energy convergence        0.5000000E-05 Eh    :
          :   grad. convergence         0.1000000E-02 Eh/a0 :
          :   optimization log               true           :
          :   writing optlog all                1     steps :
          :   Hessian reset                    20     steps :
          :   time step scaling                 5     steps :
          :   maximium step len.        1.0000000     a0    :
          :   initial time step         0.2500000     fs    :
          :   maximum time step         1.2500000     fs    :
          :   power reset thr           0.0000000     au    :
          :   alpha parameter           0.1000000           :
          :   BFGS update                   false           :
          :   preconditioning               false           :
          ...................................................

........................................................................
.............................. CYCLE    1 ..............................
........................................................................

 iter      E             dE          RMSdq      gap      omega  full diag
   1  -3772.0251224 -0.377203E+04  0.256E-04   11.39       0.0  T
   2  -3772.0251224 -0.281007E-07  0.152E-04   11.39      11.1  T
   3  -3772.0251224 -0.399268E-09  0.490E-05   11.39      34.3  T
     SCC iter.                  ...        3 min, 41.308 sec
     gradient                   ...        4 min, 27.287 sec
 * total energy  : -3716.2498978 Eh     change    :  -0.4107146E-04 Eh
   gradient norm :     0.0176736 Eh/a0  converged?    E=F G=F D=F
   time step     :     0.2500000 fs     power     :   0.2096444E-08
   step length   :     0.0022357 a0     speed     :   0.2163163E-03

........................................................................
.............................. CYCLE    2 ..............................
........................................................................

 iter      E             dE          RMSdq      gap      omega  full diag
   1  -3772.0301545 -0.377203E+04  0.376E-04   11.40       0.0  T
   2  -3772.0301545 -0.568907E-07  0.223E-04   11.40       7.5  T
   3  -3772.0301545 -0.987256E-09  0.688E-05   11.40      24.4  T
     SCC iter.                  ...        3 min, 42.277 sec
     gradient                   ...        4 min, 22.642 sec
 * total energy  : -3716.2499523 Eh     change    :  -0.5446216E-04 Eh
   gradient norm :     0.0156630 Eh/a0  converged?    E=F G=F D=F
   time step     :     0.2500000 fs     power     :   0.2713544E-08
   step length   :     0.0032711 a0     speed     :   0.3164919E-03

........................................................................
.............................. CYCLE    3 ..............................
........................................................................

 iter      E             dE          RMSdq      gap      omega  full diag
   1  -3772.0365346 -0.377204E+04  0.481E-04   11.40       0.0  T
   2  -3772.0365347 -0.912755E-07  0.285E-04   11.40       5.9  T
   3  -3772.0365347 -0.147611E-08  0.868E-05   11.40      19.4  T
     SCC iter.                  ...        3 min, 41.973 sec
     gradient                   ...        4 min, 21.046 sec
 * total energy  : -3716.2500124 Eh     change    :  -0.6013974E-04 Eh
   gradient norm :     0.0131758 Eh/a0  converged?    E=F G=F D=F
   time step     :     0.2500000 fs     power     :   0.2904565E-08
   step length   :     0.0041870 a0     speed     :   0.4051142E-03

........................................................................
.............................. CYCLE    4 ..............................
........................................................................

 iter      E             dE          RMSdq      gap      omega  full diag
   1  -3772.0439671 -0.377204E+04  0.568E-04   11.40       0.0  T
   2  -3772.0439673 -0.124247E-06  0.338E-04   11.40       5.0  T
   3  -3772.0439673 -0.193495E-08  0.101E-04   11.40      16.7  T
     SCC iter.                  ...        3 min, 38.509 sec
     gradient                   ...        4 min, 19.503 sec
 * total energy  : -3716.2500700 Eh     change    :  -0.5758087E-04 Eh
   gradient norm :     0.0104202 Eh/a0  converged?    E=F G=F D=F
   time step     :     0.2500000 fs     power     :   0.2663945E-08
   step length   :     0.0049518 a0     speed     :   0.4791120E-03

........................................................................
.............................. CYCLE    5 ..............................
........................................................................

 iter      E             dE          RMSdq      gap      omega  full diag
   1  -3772.0520769 -0.377205E+04  0.635E-04   11.40       0.0  T
   2  -3772.0520771 -0.149093E-06  0.378E-04   11.40       4.5  T
   3  -3772.0520771 -0.227965E-08  0.109E-04   11.40      15.4  T
     SCC iter.                  ...        3 min, 43.623 sec
     gradient                   ...        4 min, 20.895 sec
 * total energy  : -3716.2501178 Eh     change    :  -0.4780422E-04 Eh
   gradient norm :     0.0077519 Eh/a0  converged?    E=F G=F D=F
   time step     :     0.2500000 fs     power     :   0.2065219E-08
   step length   :     0.0055381 a0     speed     :   0.5358455E-03

........................................................................
.............................. CYCLE    6 ..............................
........................................................................

 iter      E             dE          RMSdq      gap      omega  full diag
   1  -3772.0612453 -0.377206E+04  0.750E-04   11.40       0.0  T
   2  -3772.0612455 -0.195094E-06  0.446E-04   11.40       3.8  T
   3  -3772.0612455 -0.292766E-08  0.123E-04   11.40      13.7  T
     SCC iter.                  ...        3 min, 48.218 sec
     gradient                   ...        4 min, 20.207 sec
 * total energy  : -3716.2501536 Eh     change    :  -0.3584015E-04 Eh
   gradient norm :     0.0057252 Eh/a0  converged?    E=F G=F D=F
   time step     :     0.2750000 fs     power     :   0.1167024E-08
   step length   :     0.0065514 a0     speed     :   0.5762547E-03

........................................................................
.............................. CYCLE    7 ..............................
........................................................................

 iter      E             dE          RMSdq      gap      omega  full diag
   1  -3772.0705793 -0.377207E+04  0.840E-04   11.40       0.0  T
   2  -3772.0705795 -0.209688E-06  0.501E-04   11.40       3.4  T
   3  -3772.0705795 -0.301770E-08  0.123E-04   11.40      13.7  T
     SCC iter.                  ...        3 min, 43.296 sec
     gradient                   ...        4 min, 20.629 sec
 * total energy  : -3716.2501716 Eh     change    :  -0.1800564E-04 Eh
   gradient norm :     0.0057842 Eh/a0  converged?    E=F G=F D=F
   time step     :     0.3025000 fs     power     :   0.2241613E-09
   step length   :     0.0073279 a0     speed     :   0.5859619E-03

........................................................................
.............................. CYCLE    8 ..............................
........................................................................

 iter      E             dE          RMSdq      gap      omega  full diag
   1  -3772.0785699 -0.377208E+04  0.871E-04   11.40       0.0  T
   2  -3772.0785701 -0.166920E-06  0.520E-04   11.40       3.2  T
   3  -3772.0785701 -0.229647E-08  0.102E-04   11.40      16.5  T
     SCC iter.                  ...        3 min, 44.381 sec
     gradient                   ...        4 min, 21.781 sec
 * total energy  : -3716.2501736 Eh     change    :  -0.1957129E-05 Eh
   gradient norm :     0.0074103 Eh/a0  converged?    E=T G=F D=F
   time step     :     0.3327500 fs     power     :  -0.3644139E-09
   step length   :     0.0075653 a0     speed     :   0.5499499E-03

........................................................................
.............................. CYCLE    9 ..............................
........................................................................
 * reset velocities

 iter      E             dE          RMSdq      gap      omega  full diag
   1  -3772.0782953 -0.377208E+04  0.300E-05   11.40       0.0  T
   2  -3772.0782953 -0.110322E-08  0.144E-05   11.40     116.5  T
   3  -3772.0782953 -0.604814E-10  0.792E-06   11.40     212.4  T
     SCC iter.                  ...        4 min,  0.208 sec
     gradient                   ...        4 min, 21.963 sec
 * total energy  : -3716.2501750 Eh     change    :  -0.1416513E-05 Eh
   gradient norm :     0.0072905 Eh/a0  converged?    E=T G=F D=T
   time step     :     0.1663750 fs     power     :   0.1118236E-09
   step length   :     0.0001923 a0     speed     :   0.2796061E-04

........................................................................
.............................. CYCLE   10 ..............................
........................................................................

 iter      E             dE          RMSdq      gap      omega  full diag
   1  -3772.0777502 -0.377208E+04  0.457E-05   11.40       0.0  T
   2  -3772.0777502 -0.605269E-09  0.271E-05   11.40      62.0  T
   3  -3772.0777502 -0.745786E-10  0.739E-06   11.40     227.6  T
     SCC iter.                  ...        3 min, 44.929 sec
     gradient                   ...        4 min, 19.770 sec
 * total energy  : -3716.2501778 Eh     change    :  -0.2735830E-05 Eh
   gradient norm :     0.0070484 Eh/a0  converged?    E=T G=F D=T
   time step     :     0.1663750 fs     power     :   0.2144427E-09
   step length   :     0.0003815 a0     speed     :   0.5546901E-04

........................................................................
.............................. CYCLE   11 ..............................
........................................................................

 iter      E             dE          RMSdq      gap      omega  full diag
   1  -3772.0769464 -0.377208E+04  0.662E-05   11.40       0.0  T
   2  -3772.0769464 -0.130012E-08  0.392E-05   11.40      42.9  T
   3  -3772.0769464 -0.518412E-10  0.108E-05   11.40     156.0  T
     SCC iter.                  ...        3 min, 48.012 sec
     gradient                   ...        4 min, 20.827 sec
 * total energy  : -3716.2501816 Eh     change    :  -0.3878532E-05 Eh
   gradient norm :     0.0066949 Eh/a0  converged?    E=T G=F D=T
   time step     :     0.1663750 fs     power     :   0.3012068E-09
   step length   :     0.0005644 a0     speed     :   0.8206106E-04

........................................................................
.............................. CYCLE   12 ..............................
........................................................................

 iter      E             dE          RMSdq      gap      omega  full diag
   1  -3772.0759008 -0.377208E+04  0.865E-05   11.40       0.0  T
   2  -3772.0759008 -0.224236E-08  0.513E-05   11.40      32.8  T
   3  -3772.0759008 -0.295586E-10  0.139E-05   11.40     121.0  T
     SCC iter.                  ...        3 min, 45.810 sec
     gradient                   ...        4 min, 20.894 sec
 * total energy  : -3716.2501864 Eh     change    :  -0.4771133E-05 Eh
   gradient norm :     0.0062410 Eh/a0  converged?    E=T G=F D=T
   time step     :     0.1663750 fs     power     :   0.3667807E-09
   step length   :     0.0007381 a0     speed     :   0.1073088E-03

........................................................................
.............................. CYCLE   13 ..............................
........................................................................

 iter      E             dE          RMSdq      gap      omega  full diag
   1  -3772.0746362 -0.377207E+04  0.105E-04   11.40       0.0  T
   2  -3772.0746362 -0.324781E-08  0.624E-05   11.40      26.9  T
   3  -3772.0746362 -0.118234E-10  0.167E-05   11.40     100.7  T
     SCC iter.                  ...        3 min, 43.231 sec
     gradient                   ...        4 min, 19.974 sec
 * total energy  : -3716.2501918 Eh     change    :  -0.5364526E-05 Eh
   gradient norm :     0.0057029 Eh/a0  converged?    E=F G=F D=T
   time step     :     0.1663750 fs     power     :   0.4075662E-09
   step length   :     0.0008998 a0     speed     :   0.1308154E-03

........................................................................
.............................. CYCLE   14 ..............................
........................................................................

 iter      E             dE          RMSdq      gap      omega  full diag
   1  -3772.0731815 -0.377207E+04  0.122E-04   11.40       0.0  T
   2  -3772.0731815 -0.430464E-08  0.724E-05   11.40      23.2  T
   3  -3772.0731815  0.864020E-11  0.191E-05   11.40      88.1  T
     SCC iter.                  ...        3 min, 41.976 sec
     gradient                   ...        4 min, 22.066 sec
 * total energy  : -3716.2501974 Eh     change    :  -0.5647702E-05 Eh
   gradient norm :     0.0051097 Eh/a0  converged?    E=F G=F D=F
   time step     :     0.1663750 fs     power     :   0.4218428E-09
   step length   :     0.0010470 a0     speed     :   0.1522233E-03

........................................................................
.............................. CYCLE   15 ..............................
........................................................................

 iter      E             dE          RMSdq      gap      omega  full diag
   1  -3772.0713932 -0.377207E+04  0.152E-04   11.40       0.0  T
   2  -3772.0713932 -0.651744E-08  0.901E-05   11.40      18.7  T
   3  -3772.0713932 -0.995897E-10  0.235E-05   11.40      71.7  T
     SCC iter.                  ...        3 min, 42.590 sec
     gradient                   ...        4 min, 20.637 sec
 * total energy  : -3716.2502036 Eh     change    :  -0.6147339E-05 Eh
   gradient norm :     0.0044018 Eh/a0  converged?    E=F G=F D=F
   time step     :     0.1830125 fs     power     :   0.4083259E-09
   step length   :     0.0013097 a0     speed     :   0.1731039E-03

........................................................................
.............................. CYCLE   16 ..............................
........................................................................

 iter      E             dE          RMSdq      gap      omega  full diag
   1  -3772.0692630 -0.377207E+04  0.184E-04   11.40       0.0  T
   2  -3772.0692630 -0.931823E-08  0.109E-04   11.40      15.4  T
   3  -3772.0692630 -0.163709E-10  0.277E-05   11.40      60.8  T
     SCC iter.                  ...        3 min, 45.039 sec
     gradient                   ...        4 min, 19.519 sec
 * total energy  : -3716.2502098 Eh     change    :  -0.6227643E-05 Eh
   gradient norm :     0.0036514 Eh/a0  converged?    E=F G=F D=F
   time step     :     0.2013138 fs     power     :   0.3622922E-09
   step length   :     0.0016021 a0     speed     :   0.1925037E-03

........................................................................
.............................. CYCLE   17 ..............................
........................................................................

 iter      E             dE          RMSdq      gap      omega  full diag
   1  -3772.0668292 -0.377207E+04  0.217E-04   11.40       0.0  T
   2  -3772.0668292 -0.121568E-07  0.129E-04   11.40      13.0  T
   3  -3772.0668292 -0.954969E-10  0.312E-05   11.40      53.9  T
     SCC iter.                  ...        3 min, 45.860 sec
     gradient                   ...        4 min, 20.389 sec
 * total energy  : -3716.2502155 Eh     change    :  -0.5734001E-05 Eh
   gradient norm :     0.0029860 Eh/a0  converged?    E=F G=F D=F
   time step     :     0.2214451 fs     power     :   0.2858091E-09
   step length   :     0.0019132 a0     speed     :   0.2089812E-03

........................................................................
.............................. CYCLE   18 ..............................
........................................................................

 iter      E             dE          RMSdq      gap      omega  full diag
   1  -3772.0642204 -0.377206E+04  0.247E-04   11.40       0.0  T
   2  -3772.0642204 -0.141331E-07  0.147E-04   11.40      11.5  T
   3  -3772.0642204 -0.117325E-09  0.327E-05   11.40      51.4  T
     SCC iter.                  ...        3 min, 44.326 sec
     gradient                   ...        4 min, 19.917 sec
 * total energy  : -3716.2502202 Eh     change    :  -0.4717938E-05 Eh
   gradient norm :     0.0026609 Eh/a0  converged?    E=T G=F D=F
   time step     :     0.2435896 fs     power     :   0.1929649E-09
   step length   :     0.0022189 a0     speed     :   0.2203376E-03

........................................................................
.............................. CYCLE   19 ..............................
........................................................................

 iter      E             dE          RMSdq      gap      omega  full diag
   1  -3772.0617026 -0.377206E+04  0.266E-04   11.40       0.0  T
   2  -3772.0617026 -0.135260E-07  0.159E-04   11.40      10.6  T
   3  -3772.0617026 -0.155978E-09  0.306E-05   11.40      55.0  T
     SCC iter.                  ...        3 min, 42.359 sec
     gradient                   ...        4 min, 21.317 sec
 * total energy  : -3716.2502237 Eh     change    :  -0.3467942E-05 Eh
   gradient norm :     0.0028424 Eh/a0  converged?    E=T G=F D=F
   time step     :     0.2679486 fs     power     :   0.1133889E-09
   step length   :     0.0024766 a0     speed     :   0.2235758E-03

........................................................................
.............................. CYCLE   20 ..............................
........................................................................

 iter      E             dE          RMSdq      gap      omega  full diag
   1  -3772.0596226 -0.377206E+04  0.273E-04   11.40       0.0  T
   2  -3772.0596226 -0.103041E-07  0.162E-04   11.40      10.4  T
   3  -3772.0596226 -0.236923E-09  0.247E-05   11.40      68.1  T
     SCC iter.                  ...        3 min, 42.769 sec
     gradient                   ...        4 min, 22.375 sec
 * total energy  : -3716.2502264 Eh     change    :  -0.2705640E-05 Eh
   gradient norm :     0.0032966 Eh/a0  converged?    E=T G=F D=F
   time step     :     0.2947435 fs     power     :   0.7758327E-10
   step length   :     0.0026655 a0     speed     :   0.2187480E-03
 * RMSD in coord.:     0.0006723 a0     energy gain  -0.3696761E-03 Eh

........................................................................
.............................. CYCLE   21 ..............................
........................................................................

 iter      E             dE          RMSdq      gap      omega  full diag
   1  -3772.0585603 -0.377206E+04  0.209E-04   11.40       0.0  T
   2  -3772.0585603 -0.384580E-08  0.124E-04   11.40      13.5  T
   3  -3772.0585603 -0.245564E-09  0.139E-05   11.40     121.2  T
     SCC iter.                  ...        3 min, 44.967 sec
     gradient                   ...        4 min, 21.766 sec
 * total energy  : -3716.2502287 Eh     change    :  -0.2273183E-05 Eh
   gradient norm :     0.0035856 Eh/a0  converged?    E=T G=F D=F
   time step     :     0.2500000 fs     power     :   0.9852786E-10
   step length   :     0.0021565 a0     speed     :   0.2086556E-03

........................................................................
.............................. CYCLE   22 ..............................
........................................................................

 iter      E             dE          RMSdq      gap      omega  full diag
   1  -3772.0581992 -0.377206E+04  0.193E-04   11.40       0.0  T
   2  -3772.0581992 -0.241562E-08  0.114E-04   11.40      14.8  T
   3  -3772.0581992 -0.115051E-09  0.115E-05   11.40     146.1  T
     SCC iter.                  ...        3 min, 47.807 sec
     gradient                   ...        4 min, 22.744 sec
 * total energy  : -3716.2502316 Eh     change    :  -0.2936778E-05 Eh
   gradient norm :     0.0036591 Eh/a0  converged?    E=T G=F D=F
   time step     :     0.2500000 fs     power     :   0.1414553E-09
   step length   :     0.0020845 a0     speed     :   0.2016839E-03

........................................................................
.............................. CYCLE   23 ..............................
........................................................................

 iter      E             dE          RMSdq      gap      omega  full diag
   1  -3772.0584953 -0.377206E+04  0.185E-04   11.40       0.0  T
   2  -3772.0584953 -0.262389E-08  0.108E-04   11.40      15.5  T
   3  -3772.0584953 -0.126420E-09  0.140E-05   11.40     120.0  T
     SCC iter.                  ...        3 min, 59.170 sec
     gradient                   ...        4 min, 20.870 sec
 * total energy  : -3716.2502353 Eh     change    :  -0.3702588E-05 Eh
   gradient norm :     0.0035001 Eh/a0  converged?    E=T G=F D=F
   time step     :     0.2500000 fs     power     :   0.1845905E-09
   step length   :     0.0020622 a0     speed     :   0.1995288E-03

........................................................................
.............................. CYCLE   24 ..............................
........................................................................

 iter      E             dE          RMSdq      gap      omega  full diag
   1  -3772.0593792 -0.377206E+04  0.186E-04   11.40       0.0  T
   2  -3772.0593792 -0.400360E-08  0.108E-04   11.40      15.6  T
   3  -3772.0593792 -0.623004E-10  0.190E-05   11.40      88.4  T
     SCC iter.                  ...        3 min, 48.309 sec
     gradient                   ...        4 min, 20.744 sec
 * total energy  : -3716.2502396 Eh     change    :  -0.4272026E-05 Eh
   gradient norm :     0.0031341 Eh/a0  converged?    E=T G=F D=F
   time step     :     0.2500000 fs     power     :   0.2112519E-09
   step length   :     0.0020855 a0     speed     :   0.2017874E-03

........................................................................
.............................. CYCLE   25 ..............................
........................................................................

 iter      E             dE          RMSdq      gap      omega  full diag
   1  -3772.0607636 -0.377206E+04  0.192E-04   11.40       0.0  T
   2  -3772.0607636 -0.607452E-08  0.111E-04   11.40      15.2  T
   3  -3772.0607636 -0.591172E-10  0.239E-05   11.40      70.5  T
     SCC iter.                  ...        3 min, 51.872 sec
     gradient                   ...        4 min, 22.324 sec
 * total energy  : -3716.2502440 Eh     change    :  -0.4376343E-05 Eh
   gradient norm :     0.0026181 Eh/a0  converged?    E=T G=F D=F
   time step     :     0.2500000 fs     power     :   0.2121637E-09
   step length   :     0.0021386 a0     speed     :   0.2069171E-03

........................................................................
.............................. CYCLE   26 ..............................
........................................................................

 iter      E             dE          RMSdq      gap      omega  full diag
   1  -3772.0627442 -0.377206E+04  0.219E-04   11.40       0.0  T
   2  -3772.0627442 -0.100281E-07  0.126E-04   11.40      13.4  T
   3  -3772.0627442 -0.582077E-10  0.306E-05   11.40      54.9  T
     SCC iter.                  ...        3 min, 45.035 sec
     gradient                   ...        4 min, 19.883 sec
 * total energy  : -3716.2502484 Eh     change    :  -0.4415811E-05 Eh
   gradient norm :     0.0019999 Eh/a0  converged?    E=T G=F D=F
   time step     :     0.2750000 fs     power     :   0.1817658E-09
   step length   :     0.0024355 a0     speed     :   0.2142287E-03

........................................................................
.............................. CYCLE   27 ..............................
........................................................................

 iter      E             dE          RMSdq      gap      omega  full diag
   1  -3772.0652483 -0.377207E+04  0.244E-04   11.40       0.0  T
   2  -3772.0652484 -0.138771E-07  0.140E-04   11.40      12.0  T
   3  -3772.0652484 -0.986802E-10  0.357E-05   11.40      47.2  T
     SCC iter.                  ...        3 min, 41.924 sec
     gradient                   ...        4 min, 19.138 sec
 * total energy  : -3716.2502521 Eh     change    :  -0.3710201E-05 Eh
   gradient norm :     0.0015715 Eh/a0  converged?    E=T G=F D=F
   time step     :     0.3025000 fs     power     :   0.1237715E-09
   step length   :     0.0027656 a0     speed     :   0.2211441E-03

........................................................................
.............................. CYCLE   28 ..............................
........................................................................

 iter      E             dE          RMSdq      gap      omega  full diag
   1  -3772.0679762 -0.377207E+04  0.254E-04   11.40       0.0  T
   2  -3772.0679762 -0.142836E-07  0.146E-04   11.40      11.5  T
   3  -3772.0679762 -0.165073E-09  0.355E-05   11.40      47.3  T
     SCC iter.                  ...        3 min, 38.848 sec
     gradient                   ...        4 min, 19.823 sec
 * total energy  : -3716.2502547 Eh     change    :  -0.2570735E-05 Eh
   gradient norm :     0.0017521 Eh/a0  converged?    E=T G=F D=F
   time step     :     0.3327500 fs     power     :   0.6469573E-10
   step length   :     0.0030636 a0     speed     :   0.2227060E-03

........................................................................
.............................. CYCLE   29 ..............................
........................................................................

 iter      E             dE          RMSdq      gap      omega  full diag
   1  -3772.0704057 -0.377207E+04  0.238E-04   11.40       0.0  T
   2  -3772.0704057 -0.963837E-08  0.137E-04   11.40      12.3  T
   3  -3772.0704057 -0.181899E-10  0.280E-05   11.40      60.1  T
     SCC iter.                  ...        3 min, 47.893 sec
     gradient                   ...        4 min, 21.029 sec
 * total energy  : -3716.2502566 Eh     change    :  -0.1882455E-05 Eh
   gradient norm :     0.0022480 Eh/a0  converged?    E=T G=F D=F
   time step     :     0.3660250 fs     power     :   0.4197972E-10
   step length   :     0.0032504 a0     speed     :   0.2148063E-03

........................................................................
.............................. CYCLE   30 ..............................
........................................................................

 iter      E             dE          RMSdq      gap      omega  full diag
   1  -3772.0721213 -0.377207E+04  0.210E-04   11.40       0.0  T
   2  -3772.0721213 -0.374348E-08  0.122E-04   11.40      13.8  T
   3  -3772.0721213 -0.891305E-10  0.161E-05   11.40     104.3  T
     SCC iter.                  ...        3 min, 43.140 sec
     gradient                   ...        4 min, 19.547 sec
 * total energy  : -3716.2502589 Eh     change    :  -0.2304450E-05 Eh
   gradient norm :     0.0025616 Eh/a0  converged?    E=T G=F D=F
   time step     :     0.4026275 fs     power     :   0.6257804E-10
   step length   :     0.0034084 a0     speed     :   0.2047687E-03

........................................................................
.............................. CYCLE   31 ..............................
........................................................................

 iter      E             dE          RMSdq      gap      omega  full diag
   1  -3772.0728366 -0.377207E+04  0.191E-04   11.40       0.0  T
   2  -3772.0728366 -0.118780E-08  0.113E-04   11.40      14.9  T
   3  -3772.0728366 -0.700311E-10  0.890E-06   11.40     189.0  T
     SCC iter.                  ...        3 min, 44.924 sec
     gradient                   ...        4 min, 20.157 sec
 * total energy  : -3716.2502626 Eh     change    :  -0.3718604E-05 Eh
   gradient norm :     0.0024769 Eh/a0  converged?    E=T G=F D=F
   time step     :     0.4428903 fs     power     :   0.1024981E-09
   step length   :     0.0036629 a0     speed     :   0.2000519E-03

........................................................................
.............................. CYCLE   32 ..............................
........................................................................

 iter      E             dE          RMSdq      gap      omega  full diag
   1  -3772.0724177 -0.377207E+04  0.201E-04   11.40       0.0  T
   2  -3772.0724177 -0.501950E-08  0.121E-04   11.40      13.9  T
   3  -3772.0724177  0.163709E-10  0.185E-05   11.40      90.8  T
     SCC iter.                  ...        3 min, 44.005 sec
     gradient                   ...        4 min, 21.106 sec
 * total energy  : -3716.2502677 Eh     change    :  -0.5154133E-05 Eh
   gradient norm :     0.0019977 Eh/a0  converged?    E=F G=F D=F
   time step     :     0.4871793 fs     power     :   0.1242402E-09
   step length   :     0.0040925 a0     speed     :   0.2031953E-03

........................................................................
.............................. CYCLE   33 ..............................
........................................................................

 iter      E             dE          RMSdq      gap      omega  full diag
   1  -3772.0710282 -0.377207E+04  0.228E-04   11.40       0.0  T
   2  -3772.0710282 -0.140376E-07  0.139E-04   11.40      12.1  T
   3  -3772.0710282  0.482032E-10  0.339E-05   11.40      49.6  T
     SCC iter.                  ...        3 min, 45.085 sec
     gradient                   ...        4 min, 20.145 sec
 * total energy  : -3716.2502731 Eh     change    :  -0.5346852E-05 Eh
   gradient norm :     0.0015280 Eh/a0  converged?    E=F G=F D=F
   time step     :     0.5358972 fs     power     :   0.1042097E-09
   step length   :     0.0046842 a0     speed     :   0.2114333E-03

........................................................................
.............................. CYCLE   34 ..............................
........................................................................

 iter      E             dE          RMSdq      gap      omega  full diag
   1  -3772.0694678 -0.377207E+04  0.232E-04   11.40       0.0  T
   2  -3772.0694678 -0.172395E-07  0.143E-04   11.40      11.8  T
   3  -3772.0694678 -0.568434E-10  0.373E-05   11.40      45.1  T
     SCC iter.                  ...        3 min, 48.679 sec
     gradient                   ...        4 min, 19.897 sec
 * total energy  : -3716.2502775 Eh     change    :  -0.4402768E-05 Eh
   gradient norm :     0.0017594 Eh/a0  converged?    E=T G=F D=F
   time step     :     0.5894869 fs     power     :   0.7014688E-10
   step length   :     0.0053082 a0     speed     :   0.2178152E-03

........................................................................
.............................. CYCLE   35 ..............................
........................................................................

 iter      E             dE          RMSdq      gap      omega  full diag
   1  -3772.0690257 -0.377207E+04  0.217E-04   11.40       0.0  T
   2  -3772.0690257 -0.792170E-08  0.133E-04   11.40      12.7  T
   3  -3772.0690257 -0.686668E-10  0.208E-05   11.40      80.9  T
     SCC iter.                  ...        3 min, 41.893 sec
     gradient                   ...        4 min, 22.047 sec
 * total energy  : -3716.2502820 Eh     change    :  -0.4506619E-05 Eh
   gradient norm :     0.0020855 Eh/a0  converged?    E=T G=F D=F
   time step     :     0.6484356 fs     power     :   0.7615455E-10
   step length   :     0.0058309 a0     speed     :   0.2175125E-03

........................................................................
.............................. CYCLE   36 ..............................
........................................................................

 iter      E             dE          RMSdq      gap      omega  full diag
   1  -3772.0705396 -0.377207E+04  0.263E-04   11.40       0.0  T
   2  -3772.0705396 -0.319960E-08  0.155E-04   11.40      10.9  T
   3  -3772.0705396 -0.827640E-10  0.155E-05   11.40     108.3  T
     SCC iter.                  ...        3 min, 42.670 sec
     gradient                   ...        4 min, 21.523 sec
 * total energy  : -3716.2502883 Eh     change    :  -0.6292466E-05 Eh
   gradient norm :     0.0018205 Eh/a0  converged?    E=F G=F D=F
   time step     :     0.7132792 fs     power     :   0.1039124E-09
   step length   :     0.0064914 a0     speed     :   0.2201376E-03

........................................................................
.............................. CYCLE   37 ..............................
........................................................................

 iter      E             dE          RMSdq      gap      omega  full diag
   1  -3772.0739679 -0.377207E+04  0.350E-04   11.40       0.0  T
   2  -3772.0739679 -0.146742E-07  0.203E-04   11.40       8.3  T
   3  -3772.0739679  0.486580E-10  0.355E-05   11.40      47.4  T
     SCC iter.                  ...        3 min, 37.968 sec
     gradient                   ...        4 min, 21.807 sec
 * total energy  : -3716.2502954 Eh     change    :  -0.7087892E-05 Eh
   gradient norm :     0.0013828 Eh/a0  converged?    E=F G=F D=F
   time step     :     0.7846071 fs     power     :   0.9278301E-10
   step length   :     0.0074504 a0     speed     :   0.2296912E-03

........................................................................
.............................. CYCLE   38 ..............................
........................................................................

 iter      E             dE          RMSdq      gap      omega  full diag
   1  -3772.0774779 -0.377208E+04  0.343E-04   11.40       0.0  T
   2  -3772.0774779 -0.176665E-07  0.199E-04   11.40       8.4  T
   3  -3772.0774779 -0.431100E-09  0.370E-05   11.40      45.4  T
     SCC iter.                  ...        3 min, 40.279 sec
     gradient                   ...        4 min, 22.995 sec
 * total energy  : -3716.2503016 Eh     change    :  -0.6200096E-05 Eh
   gradient norm :     0.0017388 Eh/a0  converged?    E=F G=F D=F
   time step     :     0.8630678 fs     power     :   0.6924332E-10
   step length   :     0.0084918 a0     speed     :   0.2379962E-03

........................................................................
.............................. CYCLE   39 ..............................
........................................................................

 iter      E             dE          RMSdq      gap      omega  full diag
   1  -3772.0784247 -0.377208E+04  0.270E-04   11.40       0.0  T
   2  -3772.0784247 -0.791579E-08  0.159E-04   11.40      10.6  T
   3  -3772.0784247 -0.375621E-09  0.275E-05   11.40      61.2  T
     SCC iter.                  ...        3 min, 46.014 sec
     gradient                   ...        4 min, 20.395 sec
 * total energy  : -3716.2503090 Eh     change    :  -0.7478478E-05 Eh
   gradient norm :     0.0016749 Eh/a0  converged?    E=F G=F D=F
   time step     :     0.9493746 fs     power     :   0.9004737E-10
   step length   :     0.0094737 a0     speed     :   0.2413781E-03

........................................................................
.............................. CYCLE   40 ..............................
........................................................................

 iter      E             dE          RMSdq      gap      omega  full diag
   1  -3772.0762560 -0.377208E+04  0.336E-04   11.40       0.0  T
   2  -3772.0762561 -0.239661E-07  0.200E-04   11.40       8.4  T
   3  -3772.0762561  0.691216E-10  0.497E-05   11.40      33.9  T
     SCC iter.                  ...        3 min, 44.756 sec
     gradient                   ...        4 min, 20.294 sec
 * total energy  : -3716.2503177 Eh     change    :  -0.8648756E-05 Eh
   gradient norm :     0.0013845 Eh/a0  converged?    E=F G=F D=F
   time step     :     1.0443120 fs     power     :   0.8246439E-10
   step length   :     0.0108459 a0     speed     :   0.2512167E-03

........................................................................
.............................. CYCLE   41 ..............................
........................................................................

 iter      E             dE          RMSdq      gap      omega  full diag
   1  -3772.0745126 -0.377207E+04  0.353E-04   11.40       0.0  T
   2  -3772.0745126 -0.131936E-07  0.210E-04   11.40       8.0  T
   3  -3772.0745126 -0.177351E-10  0.298E-05   11.40      56.4  T
     SCC iter.                  ...        3 min, 39.540 sec
     gradient                   ...        4 min, 18.856 sec
 * total energy  : -3716.2503263 Eh     change    :  -0.8589474E-05 Eh
   gradient norm :     0.0016528 Eh/a0  converged?    E=F G=F D=F
   time step     :     1.1487432 fs     power     :   0.7809310E-10
   step length   :     0.0123379 a0     speed     :   0.2597975E-03

........................................................................
.............................. CYCLE   42 ..............................
........................................................................

 iter      E             dE          RMSdq      gap      omega  full diag
   1  -3772.0767293 -0.377208E+04  0.406E-04   11.40       0.0  T
   2  -3772.0767293 -0.216251E-07  0.235E-04   11.40       7.2  T
   3  -3772.0767293 -0.213731E-10  0.472E-05   11.40      35.7  T
     SCC iter.                  ...        3 min, 44.468 sec
     gradient                   ...        4 min, 20.681 sec
 * total energy  : -3716.2503366 Eh     change    :  -0.1027080E-04 Eh
   gradient norm :     0.0012852 Eh/a0  converged?    E=F G=F D=F
   time step     :     1.2500000 fs     power     :   0.8388851E-10
   step length   :     0.0138777 a0     speed     :   0.2685479E-03
 * RMSD in coord.:     0.0017382 a0     energy gain  -0.1101415E-03 Eh

........................................................................
.............................. CYCLE   43 ..............................
........................................................................

 iter      E             dE          RMSdq      gap      omega  full diag
   1  -3772.0772055 -0.377208E+04  0.686E-05   11.40       0.0  T
   2  -3772.0772055 -0.564341E-09  0.403E-05   11.40      41.7  T
   3  -3772.0772055 -0.641194E-10  0.643E-06   11.40     261.6  T
     SCC iter.                  ...        3 min, 41.667 sec
     gradient                   ...        4 min, 21.615 sec
 * total energy  : -3716.2503384 Eh     change    :  -0.1811874E-05 Eh
   gradient norm :     0.0012846 Eh/a0  converged?    E=T G=F D=F
   time step     :     0.2500000 fs     power     :   0.9285095E-10
   step length   :     0.0026731 a0     speed     :   0.2586372E-03

........................................................................
.............................. CYCLE   44 ..............................
........................................................................

 iter      E             dE          RMSdq      gap      omega  full diag
   1  -3772.0776270 -0.377208E+04  0.650E-05   11.40       0.0  T
   2  -3772.0776270 -0.643013E-09  0.380E-05   11.40      44.2  T
   3  -3772.0776270 -0.136424E-10  0.766E-06   11.40     219.6  T
     SCC iter.                  ...        3 min, 41.875 sec
     gradient                   ...        4 min, 23.076 sec
 * total energy  : -3716.2503403 Eh     change    :  -0.1946879E-05 Eh
   gradient norm :     0.0012063 Eh/a0  converged?    E=T G=F D=F
   time step     :     0.2500000 fs     power     :   0.1000245E-09
   step length   :     0.0025971 a0     speed     :   0.2512843E-03

........................................................................
.............................. CYCLE   45 ..............................
........................................................................

 iter      E             dE          RMSdq      gap      omega  full diag
   1  -3772.0779317 -0.377208E+04  0.724E-05   11.40       0.0  T
   2  -3772.0779317 -0.637101E-09  0.426E-05   11.40      39.5  T
   3  -3772.0779317  0.286491E-10  0.746E-06   11.40     225.4  T
     SCC iter.                  ...        3 min, 49.501 sec
     gradient                   ...        4 min, 24.030 sec
 * total energy  : -3716.2503423 Eh     change    :  -0.2021593E-05 Eh
   gradient norm :     0.0010862 Eh/a0  converged?    E=T G=F D=F
   time step     :     0.2500000 fs     power     :   0.1020378E-09
   step length   :     0.0025498 a0     speed     :   0.2467100E-03

........................................................................
.............................. CYCLE   46 ..............................
........................................................................

 iter      E             dE          RMSdq      gap      omega  full diag
   1  -3772.0780857 -0.377208E+04  0.817E-05   11.40       0.0  T
   2  -3772.0780857 -0.600267E-09  0.480E-05   11.40      35.0  T
   3  -3772.0780857 -0.327418E-10  0.745E-06   11.40     225.7  T
     SCC iter.                  ...        3 min, 43.429 sec
     gradient                   ...        4 min, 22.255 sec
 * total energy  : -3716.2503443 Eh     change    :  -0.1997428E-05 Eh
   gradient norm :     0.0009877 Eh/a0  converged?    E=T G=T D=F
   time step     :     0.2500000 fs     power     :   0.9898758E-10
   step length   :     0.0025264 a0     speed     :   0.2444472E-03

   *** GEOMETRY OPTIMIZATION CONVERGED AFTER 46 CYCLES ***

------------------------------------------------------------------------
 total energy gain   :        -0.0004876 Eh       -0.3060 kcal/mol
 total RMSD          :         0.0022012 a0        0.0012 Å
 total power (kW/mol):        -0.0278300 (step)   -0.0001 (real)
------------------------------------------------------------------------

 FIRE (total)                  0 d,  6 h, 30 min,  3.672 sec
 setup                          ...        0 min,  0.135 sec (  0.001%)
 velocities                     ...        0 min,  0.003 sec (  0.000%)
 propagation                    ...        0 min,  0.006 sec (  0.000%)
 singlepoint calculation        ...      390 min,  2.676 sec ( 99.996%)
 log and printout               ...        0 min,  0.765 sec (  0.003%)
 preconditioner                 ...        0 min,  0.000 sec (  0.000%)
 model hessian                  ...        0 min,  0.000 sec (  0.000%)
 hessian update                 ...        0 min,  0.000 sec (  0.000%)

================
 final structure:
================
3536
 xtb: 6.6.1 (8d0f1dd)
C           42.53945724565337       54.51167605736522       65.57520414519269
C           42.88096802632442       55.44561637940691       64.41348078082703
C           42.44317853949776       56.86632949084992       64.76661455508568
C           42.22150526756277       54.94898547622443       63.11320059712869
C           43.12936907007007       54.99092229563909       61.87815058999564
C           43.49164793291927       56.42488583793523       61.49480483667084
C           42.46211308323939       54.30054270117305       60.67795813277537
C           42.23659998472357       52.79023813442064       60.81634456958195
C           43.55074573822543       52.05233372289928       61.07594593439303
C           41.58509188669375       52.19707337114897       59.55815970295982
C           40.18214507744548       52.69729325442551       59.18275542949653
C           39.24023214403601       52.72909118286394       60.38552140172990
C           39.58748653759073       51.77973466933484       58.10096508214205
C           40.11466860459483       52.01287085255952       56.67786976367817
C           39.36407048119865       53.16615536899476       56.01432305659115
C           39.96824412505575       50.72889182498742       55.84610424598291
C           41.10694636397514       49.71726557583992       56.08808520710809
C           42.14427299379366       49.82655499086016       54.97247075760683
C           40.54635878094309       48.29397832606709       56.19848959272799
C           41.56869853764402       47.16223477870204       56.39522993004685
C           40.80394749884743       45.85002430513919       56.57060731600941
C           42.48077889930807       47.43875290857026       57.59507970134514
C           43.50855299395166       46.35016089937781       57.94371167417597
C           44.31543249735633       46.83279256907846       59.14884938502334
C           44.41885819565537       46.04717309210285       56.74611703507431
C           45.59298390159071       45.08839481583576       57.00147817012088
C           46.45491623268278       45.03218644133531       55.74029237163145
C           45.10363672863326       43.69098683285971       57.39392340485598
C           46.19452170570827       42.69073172338611       57.80555386399925
C           45.55094486084029       41.31853070892532       58.01108194251773
C           46.94445867746591       43.12598481574429       59.07718436120012
C           48.27823513591548       43.84170202923760       58.81994295068831
C           49.34826159621112       42.84751560521085       58.37741247113518
C           48.74341733608182       44.60461331656043       60.06742887347500
C           49.84625627153489       45.64282571054973       59.77903235657410
C           51.12544021057654       45.30239322979772       60.54532944812563
C           49.41191172130802       47.06837173475079       60.14786066512455
C           48.19480025096176       47.62225534718536       59.39770501084668
C           48.40025945592450       47.61265309313534       57.88389079758761
C           47.89377954672882       49.07019032536198       59.81596332913774
C           47.73265144193414       49.34513093018104       61.31454436563303
C           46.63952449092260       48.48148981463386       61.93821359155798
C           47.42299323808746       50.83609399645385       61.53121026311180
C           47.96785700886159       51.37431365577211       62.85983336459638
C           47.30970035411026       52.71196774426933       63.19539191823703
C           49.50273090105356       51.51722916549700       62.81036073452702
C           50.24154289251732       50.78052001595483       63.93233929470239
C           49.83669042393793       51.33025946215372       65.29890182677006
C           51.76467362523289       50.91428103613664       63.78923090083421
C           52.39447648964924       50.32517284500700       62.52232721794942
C           52.16772504963140       48.81638337160221       62.43163461845321
C           53.90595456979534       50.59968770333106       62.48954157179426
C           54.33279109312767       52.07144713818933       62.44239677356831
C           53.67065559804990       52.81338277582758       61.28072518556579
C           55.85545333511887       52.18680780779851       62.28805861725757
C           56.72289924746806       51.61720097849048       63.41873429840928
C           56.34586418090679       52.22315421514678       64.76820787422572
C           58.19037087696233       51.91842857702831       63.07909241319965
C           59.24165238738423       51.14521418910339       63.88897821364424
C           60.58818899798820       51.85438585921861       63.75179986727199
C           59.31496863833288       49.68642689988812       63.41770329579303
C           60.37319640438012       48.79775977896344       64.09184482305403
C           60.29909815877562       47.39591103181331       63.48576468700590
C           60.17557362976127       48.76289511479723       65.61164657814453
C           61.16300685778847       47.89637689769508       66.40825813355454
C           60.79898802522432       47.95561690108495       67.89328346695801
C           62.60106051085300       48.37314277404546       66.17314926404180
C           63.69604802755665       47.67341610679156       66.98994748018490
C           65.03389231947217       48.35429107699722       66.70246362702673
C           63.74588655860618       46.18027833657320       66.64884622428950
C           64.77423152866305       45.34145198391614       67.41884069670510
C           64.85723237723387       43.95611731733717       66.77600695059110
C           64.40476923948682       45.23702970478895       68.90419658105763
C           65.56250280079641       44.80750469111931       69.81355706631197
C           65.01637710761445       44.34723498798147       71.16412932263921
C           66.57069552628212       45.94696362704944       70.02201717855598
C           68.00343815798031       45.45083985314962       70.26215439655792
C           68.81169688780086       46.51832081229401       70.99705063254856
C           68.66296158825050       45.08663340565213       68.92624982172404
C           69.91464855217502       44.20668712607142       69.03448463150369
C           70.57320386349980       44.10312995994600       67.65788504198443
C           69.58926505555485       42.80449297946085       69.58454711987633
C           70.06819553147602       42.56270472511468       71.02213671439991
C           71.58705624267880       42.39434156996006       71.05325131471028
C           69.40904040439862       41.30973479633212       71.61788332354199
C           67.93845469588622       41.47721108187523       72.01912419334843
C           67.81495224414985       42.31586351590777       73.29157579277508
C           67.25755704932826       40.12068552331945       72.24652803626370
C           67.12718200286982       39.26177999893854       70.98892456278226
C           66.15715197862870       38.10527838379128       71.20017124693825
H           42.98481015243503       54.87287066594868       66.50050352887529
H           41.46144395572162       54.46180577378914       65.71628702950601
H           42.90860033343443       53.50616601460536       65.38439449209207
H           65.16432315852261       38.48022059994713       71.44064947999739
H           66.08493599250795       37.49594130057901       70.30190571023199
H           66.48943198270518       37.47165547137960       72.01966198147720
H           67.80577693924923       39.56471106778604       73.01063068184229
H           66.25368599455071       40.30918763469316       72.63697728101407
H           69.49620758808885       40.50872345405627       70.88234683831971
H           69.96911236142270       41.00207320573457       72.50430836221001
H           69.81077561834435       43.43096701903679       71.63503144089222
H           71.94309154916387       42.30897389423936       72.07780262520315
H           71.87786742301105       41.49470221445256       70.51392816820068
H           72.08448423875868       43.24354415143299       70.59116125633291
H           68.51165842526554       42.64463788674968       69.53106800962506
H           70.05200194785493       42.04753182790401       68.94732944223750
H           67.93770290402166       44.56645553505870       68.29610288026201
H           68.92803037422097       46.01525437417065       68.41281317774757
H           67.40032900322188       41.98838456972582       71.21378878540024
H           68.31696263510190       41.82014247253176       74.12002095210157
H           68.26177452405989       43.29860520603536       73.16331836711565
H           66.76898468257785       42.45101255109562       73.56031808071057
H           70.62458632161770       44.69768887710011       69.70610585005538
H           71.48607879375960       43.51429122079491       67.71262221041245
H           69.89852126437549       43.62767015541897       66.94843162408242
H           70.82727527562648       45.09028172636818       67.27669324109523
H           67.95618089542673       44.55902706435857       70.89187491166494
H           68.36793989074535       46.73467745440904       71.96670048883125
H           69.83562157904208       46.19129665849746       71.16025081632809
H           68.83464024869029       47.44090231196477       70.42031576283190
H           66.57781271580073       46.61182381668817       69.15676084601363
H           66.24593676732346       46.54156608213525       70.87837553557455
H           66.07471916988973       43.95877922578761       69.35039462100006
H           65.82786580617157       44.11365290590173       71.84834642852913
H           64.40377054084635       45.12876767410894       71.61084480793238
H           64.40202631817617       43.45749791940580       71.04750852042450
H           64.04046900296660       46.20080974955094       69.26339219192091
H           63.58388491556715       44.52234043412586       69.00589651863460
H           65.75774593553217       45.80833977844987       67.32515172208383
H           63.88395878723104       43.46883111007028       66.78938600625727
H           65.18151924522934       44.03365217084794       65.74017549652784
H           65.56482835631581       43.31997141308685       67.30138394964682
H           62.76228287837085       45.74101468612879       66.82594009092671
H           63.95829604137438       46.09100439746964       65.58000787945301
H           63.47653290477663       47.80360246743233       68.05261000079049
H           64.95373427051143       49.42893013284311       66.85539779740964
H           65.81129459284647       47.97989349807104       67.36286106263830
H           65.34247233784582       48.17770505360247       65.67415505016915
H           62.84515808067160       48.24768247194960       65.11706104595562
H           62.64097343197572       49.44320786197316       66.39687148496489
H           61.06184159120974       46.86139412857620       66.07115311478734
H           59.73096372530471       47.79963341559080       68.03185661694759
H           61.32690713438239       47.18780396993097       68.45363915270406
H           61.05489319338968       48.92633522512361       68.31070818755620
H           60.25162486239369       49.78200908400469       65.99474667770833
H           59.16104265990752       48.40708858771188       65.81200103314586
H           61.35972559307232       49.21181052419315       63.86803360939476
H           59.36302874447981       46.91147940320978       63.75692030293038
H           60.35682143768078       47.44896072658632       62.40070533751345
H           61.12041738074544       46.77323780597892       63.82957998687961
H           58.33691756867627       49.22311413960977       63.56558833401902
H           59.51426626322495       49.68691140572544       62.34187068150399
H           58.95108849047810       51.16481114891646       64.94210279346292
H           61.35576288270131       51.36444956448264       64.34412599285500
H           60.90652749027150       51.86572000213278       62.71161458468569
H           60.50909079425719       52.88485708215777       64.09188224701109
H           58.35863244249720       51.71425657844006       62.01865563417622
H           58.35277698678338       52.98881562507742       63.22759507067462
H           56.58351928124546       50.53416781642856       63.46725226001570
H           56.35770983223684       53.30962832363591       64.70915271298435
H           55.35460787786947       51.89978401231633       65.07438754356014
H           57.04756423138537       51.91457515135119       65.53814950131412
H           56.13859742636578       51.69118930258420       61.35676748653584
H           56.10858426446391       53.24474513727559       62.18261904238467
H           54.03990722423315       52.56405730236792       63.37309268210132
H           53.85422153509455       52.29237915755660       60.34387618199194
H           52.59757234791302       52.89704728173283       61.42862983832405
H           54.07533591889773       53.82012153610750       61.19274376741943
H           54.35202735756314       50.13730222128775       63.37268600248044
H           54.32333320665271       50.10196201084825       61.60945756280351
H           51.94075831557703       50.78722988914553       61.64296074259610
H           52.56969769214181       48.31583800171665       63.30941189667571
H           51.10990063526702       48.58258258689851       62.35420114318228
H           52.66339697845164       48.40997505966356       61.55192371377650
H           52.00086674044841       51.97859057588705       63.83428124190108
H           52.23389339164931       50.43852170377551       64.65436568656683
H           49.96486099488799       49.72190851887887       63.89516907481752
H           48.77417768967532       51.19933953917106       65.47634896483648
H           50.37703394363569       50.81568010183195       66.09014619905466
H           50.06495164693844       52.39232957225128       65.35554977775782
H           49.85914542345581       51.14043299563081       61.85167074981160
H           49.77113265222813       52.57482800750590       62.86033230170279
H           47.70003970295623       50.65885575954687       63.64330649892409
H           46.23294012316896       52.59906489258834       63.30036624539322
H           47.70613059041574       53.11316062815569       64.12539657582928
H           47.49813534086557       53.43467678192098       62.40367924020263
H           47.85520083979252       51.42323909065250       60.71872642030257
H           46.34142409953682       50.98041401562183       61.49415795783921
H           48.68008285363873       49.11999697882090       61.81093989348536
H           45.69382571802332       48.63229705870221       61.42233288834490
H           46.89216261627482       47.42600563823266       61.88833625037716
H           46.50306979486830       48.74290802641089       62.98553403064682
H           48.70546261807283       49.70248463189274       59.44473439943606
H           46.97654757787079       49.38794823421232       59.31218201164575
H           47.32224502838679       47.00585413790176       59.62718023274756
H           48.53295928092349       46.60548966826698       57.50336128090185
H           47.53779738223412       48.04871751203843       57.38425250901315
H           49.27889030919967       48.19533919551758       57.62098240346918
H           49.19968211265467       47.07725964558416       61.21830737536844
H           50.25603303719306       47.73918203861773       59.97312534796489
H           50.09003757582785       45.62124694894973       58.71371564377407
H           51.91499866340752       46.01149230307963       60.30582415601616
H           50.94833928897963       45.33671924471536       61.61820057715815
H           51.47248685368073       44.30451325993379       60.28751909850237
H           47.88614876322927       45.10788573509412       60.51752024731401
H           49.10560003728423       43.88187690918016       60.80059183578518
H           48.13078033581746       44.56477028791148       58.01569806128932
H           49.51989429396962       42.10526712296087       59.15467762345504
H           49.04652552673378       42.32932511749650       57.47075373998699
H           50.28755837607002       43.35612119319478       58.17465209672942
H           46.29110152716103       43.78223432431529       59.65666525840473
H           47.14593586033100       42.24707773045625       59.69389122162099
H           46.91023560288612       42.59305706612496       56.98539886835352
H           46.30683300623244       40.56990845045019       58.24020414877374
H           44.83635259678249       41.34687073566887       58.83192194208528
H           45.02400456504771       41.00874963750103       57.11150602450122
H           44.40531151124819       43.78272410574194       58.22773262440325
H           44.55085791286385       43.27182756216949       56.54852289516283
H           46.19811425485240       45.49546303001350       57.81244044060649
H           46.84765597940963       46.01986698696334       55.50851435255679
H           47.29977434544844       44.36029479162964       55.86176088530349
H           45.86605715314712       44.68319477691261       54.89436940895077
H           43.81347398641985       45.62976589083504       55.93915238038907
H           44.83264420348009       46.99449251881064       56.38899488337907
H           42.97089489232049       45.44305082177898       58.23057547099840
H           43.65222334185206       47.16562131248885       59.94519062941227
H           44.93868141896324       46.03796663357645       59.54729082543950
H           44.95358064488160       47.66788798930511       58.86784967123041
H           43.03199888439318       48.36408214043697       57.41652189424077
H           41.84638454516815       47.59886017345485       58.47176673286462
H           42.17830386172557       47.08852605921108       55.49074391920198
H           41.47732951098548       44.99788293248891       56.58414926954783
H           40.24244472215781       45.86100738614783       57.50292013585563
H           40.10112152053862       45.71004667665324       55.75211287359723
H           39.84753260711483       48.26795919560031       57.03901411786189
H           39.97277129686038       48.07832972149772       55.29289284115884
H           41.59024996272470       49.97222180615631       57.03584685540298
H           43.02749255898556       49.23300130418010       55.19573623690348
H           41.72573459734325       49.48038576126766       54.02925440519937
H           42.45137413373183       50.86200679876895       54.84614867760469
H           39.00308490855569       50.27562990463002       56.08211420186618
H           39.94634203439740       50.98483057489004       54.78499153085826
H           41.17489969987652       52.27760721328466       56.72422926270931
H           39.77651211000803       53.38014044462962       55.03040504482402
H           38.31244768117730       52.91354114263753       55.89289525497696
H           39.43083564242660       54.06947523114285       56.61617788441485
H           39.77996370521505       50.74513717407641       58.39262797147400
H           38.50268449847356       51.90817936495210       58.07918977519876
H           40.25591159365294       53.71337397376229       58.78280524867276
H           38.23974321603099       53.01969517150019       60.07115298283562
H           39.18136649568754       51.74609608473354       60.84778240452535
H           39.57348834824888       53.44311148228415       61.13346462250460
H           42.25133653298210       52.36878725852800       58.70965925072666
H           41.52250301808148       51.11637645347978       59.70833695287958
H           41.57413147306123       52.59610789464988       61.66339634611199
H           43.38983311452527       50.97607757276012       61.06651583767358
H           44.28360324765934       52.29725533234001       60.31007046411366
H           43.96396343278983       52.31764801365912       62.04466390433731
H           41.50339183694611       54.78910905861267       60.49372462614792
H           43.08913571700515       54.47046703366153       59.79851326159013
H           44.06109788474421       54.46825052974746       62.11411698914423
H           42.59175540721211       57.01037426267801       61.31524195424358
H           44.06645457207576       56.90328625120820       62.28321899760051
H           44.09478335386661       56.43335216025009       60.58850503571745
H           41.90721160301008       53.91583771344801       63.26498543238513
H           41.32144601175899       55.53470963220374       62.91300815310776
H           43.96881421588450       55.43747693475581       64.28171469682425
H           42.65291020736587       57.55832409492648       63.95626128908619
H           41.37398584774472       56.88982811370224       64.96883935240255
H           42.96393003114088       57.21607521391326       65.65625525512154
H           66.77297269320901       39.88224583480832       70.16392728412245
H           68.10006014150380       38.85679915681461       70.70602902948220
C           64.82120271865402       70.45481810675048       53.76367176807381
C           64.43218870208383       71.92866671167498       53.68614192166746
C           65.21525133904169       72.72208708062365       54.73231025730808
C           62.93001574537289       72.13833326087563       53.90902701528986
C           61.99993577763401       71.47810918441699       52.88433917502691
C           62.13773050640798       72.12944029734589       51.50933685148401
C           60.54145188614321       71.57161873668969       53.35965653346756
C           60.16206797485253       70.54712177616746       54.43562544823463
C           59.97421966699167       69.16139995008756       53.81802489854427
C           58.87076176381875       70.94687073712626       55.16342770023977
C           58.96318256637161       72.15662546419195       56.10283053622138
[...]
  3286   6 C     3287   6 C                                       1.5344697
  3287   6 C     3288   6 C                                       1.5277342
  3287   6 C     3289   6 C                                       1.5365664
  3289   6 C     3290   6 C                                       1.5375914
  3290   6 C     3291   6 C                                       1.5269494
  3290   6 C     3292   6 C                                       1.5355465
  3292   6 C     3293   6 C                                       1.5365222
  3293   6 C     3294   6 C                                       1.5295866
  3293   6 C     3295   6 C                                       1.5321382
  3295   6 C     3296   6 C                                       1.5383168
  3296   6 C     3297   6 C                                       1.5290170
  3296   6 C     3298   6 C                                       1.5335992
  3298   6 C     3299   6 C                                       1.5354175
  3299   6 C     3300   6 C                                       1.5306300
  3301   6 C     3302   6 C                                       1.5341164
  3302   6 C     3303   6 C                                       1.5295575
  3302   6 C     3304   6 C                                       1.5371528
  3304   6 C     3305   6 C                                       1.5331306
  3305   6 C     3306   6 C                                       1.5288995
  3305   6 C     3307   6 C                                       1.5385866
  3307   6 C     3308   6 C                                       1.5339128
  3308   6 C     3309   6 C                                       1.5273451
  3308   6 C     3310   6 C                                       1.5368816
  3310   6 C     3311   6 C                                       1.5332786
  3311   6 C     3312   6 C                                       1.5270161
  3311   6 C     3313   6 C                                       1.5369857
  3313   6 C     3314   6 C                                       1.5323661
  3314   6 C     3315   6 C                                       1.5291415
  3314   6 C     3316   6 C                                       1.5373227
  3316   6 C     3317   6 C                                       1.5352411
  3317   6 C     3318   6 C                                       1.5276253
  3317   6 C     3319   6 C                                       1.5360629
  3319   6 C     3320   6 C                                       1.5321571
  3320   6 C     3321   6 C                                       1.5286198
  3320   6 C     3322   6 C                                       1.5365795
  3322   6 C     3323   6 C                                       1.5360024
  3323   6 C     3324   6 C                                       1.5265610
  3323   6 C     3325   6 C                                       1.5357787
  3325   6 C     3326   6 C                                       1.5341467
  3326   6 C     3327   6 C                                       1.5292346
  3328   6 C     3329   6 C                                       1.5332466
  3329   6 C     3330   6 C                                       1.5300338
  3329   6 C     3331   6 C                                       1.5352261
  3331   6 C     3332   6 C                                       1.5361724
  3332   6 C     3333   6 C                                       1.5255584
  3332   6 C     3334   6 C                                       1.5372850
  3335   6 C     3336   6 C                                       1.5285608
  3335   6 C     3337   6 C                                       1.5367803
  3337   6 C     3338   6 C                                       1.5363378
  3338   6 C     3339   6 C                                       1.5289774
  3338   6 C     3340   6 C                                       1.5338603
  3340   6 C     3341   6 C                                       1.5374726
  3341   6 C     3342   6 C                                       1.5291464
  3341   6 C     3343   6 C                                       1.5335477
  3343   6 C     3344   6 C                                       1.5353258
  3344   6 C     3345   6 C                                       1.5260770
  3344   6 C     3346   6 C                                       1.5361790
  3346   6 C     3347   6 C                                       1.5347702
  3347   6 C     3348   6 C                                       1.5288305
  3347   6 C     3349   6 C                                       1.5328381
  3349   6 C     3350   6 C                                       1.5355636
  3350   6 C     3351   6 C                                       1.5290604
  3350   6 C     3352   6 C                                       1.5328419
  3352   6 C     3353   6 C                                       1.5281076
  3353   6 C     3354   6 C                                       1.5245205
  3265   6 C     3355   1 H                                       1.0879505
  3265   6 C     3356   1 H                                       1.0881494
  3265   6 C     3357   1 H                                       1.0880096
  3354   6 C     3358   1 H                                       1.0877880
  3354   6 C     3359   1 H                                       1.0882765
  3354   6 C     3360   1 H                                       1.0880244
  3352   6 C     3361   1 H                                       1.0906830
  3352   6 C     3362   1 H                                       1.0931561
  3349   6 C     3363   1 H                                       1.0917734
  3349   6 C     3364   1 H                                       1.0921298
  3347   6 C     3365   1 H                                       1.0924120
  3348   6 C     3366   1 H                                       1.0864161
  3348   6 C     3367   1 H                                       1.0884751
  3348   6 C     3368   1 H                                       1.0858624
  3346   6 C     3369   1 H                                       1.0934804
  3346   6 C     3370   1 H                                       1.0915520
  3343   6 C     3371   1 H                                       1.0924542
  3343   6 C     3372   1 H                                       1.0938892
  3350   6 C     3373   1 H                                       1.0942471
  3351   6 C     3374   1 H                                       1.0868176
  3351   6 C     3375   1 H                                       1.0882721
  3351   6 C     3376   1 H                                       1.0882918
  3344   6 C     3377   1 H                                       1.0924647
  3345   6 C     3378   1 H                                       1.0868248
  3345   6 C     3379   1 H                                       1.0870744
  3345   6 C     3380   1 H                                       1.0887329
  3341   6 C     3381   1 H                                       1.0923776
  3342   6 C     3382   1 H                                       1.0876247
  3342   6 C     3383   1 H                                       1.0877946
  3342   6 C     3384   1 H                                       1.0888028
  3340   6 C     3385   1 H                                       1.0903397
  3340   6 C     3386   1 H                                       1.0931362
  3338   6 C     3387   1 H                                       1.0914886
  3339   6 C     3388   1 H                                       1.0883090
  3339   6 C     3389   1 H                                       1.0874513
  3339   6 C     3390   1 H                                       1.0876054
  3337   6 C     3391   1 H                                       1.0933062
  3337   6 C     3392   1 H                                       1.0930086
  3335   6 C     3393   1 H                                       1.0943548
  3336   6 C     3394   1 H                                       1.0884704
  3336   6 C     3395   1 H                                       1.0866126
  3336   6 C     3396   1 H                                       1.0871512
  3334   6 C     3397   1 H                                       1.0922147
  3334   6 C     3398   1 H                                       1.0919742
  3332   6 C     3399   1 H                                       1.0954518
  3333   6 C     3400   1 H                                       1.0871788
  3333   6 C     3401   1 H                                       1.0881627
  3333   6 C     3402   1 H                                       1.0869414
  3331   6 C     3403   1 H                                       1.0937773
  3331   6 C     3404   1 H                                       1.0935704
  3329   6 C     3405   1 H                                       1.0944488
  3330   6 C     3406   1 H                                       1.0864693
  3330   6 C     3407   1 H                                       1.0881171
  3330   6 C     3408   1 H                                       1.0884458
  3328   6 C     3409   1 H                                       1.0899729
  3328   6 C     3410   1 H                                       1.0921083
  3326   6 C     3411   1 H                                       1.0927127
  3327   6 C     3412   1 H                                       1.0883875
  3327   6 C     3413   1 H                                       1.0872295
  3327   6 C     3414   1 H                                       1.0876421
  3325   6 C     3415   1 H                                       1.0933676
  3325   6 C     3416   1 H                                       1.0936963
  3323   6 C     3417   1 H                                       1.0935906
  3324   6 C     3418   1 H                                       1.0877752
  3324   6 C     3419   1 H                                       1.0868319
  3324   6 C     3420   1 H                                       1.0866253
  3322   6 C     3421   1 H                                       1.0939368
  3322   6 C     3422   1 H                                       1.0931984
  3320   6 C     3423   1 H                                       1.0919423
  3321   6 C     3424   1 H                                       1.0884267
  3321   6 C     3425   1 H                                       1.0863600
  3321   6 C     3426   1 H                                       1.0871166
  3319   6 C     3427   1 H                                       1.0913140
  3319   6 C     3428   1 H                                       1.0932511
  3317   6 C     3429   1 H                                       1.0938888
  3318   6 C     3430   1 H                                       1.0862091
  3318   6 C     3431   1 H                                       1.0878145
  3318   6 C     3432   1 H                                       1.0884526
  3316   6 C     3433   1 H                                       1.0920018
  3316   6 C     3434   1 H                                       1.0937591
  3314   6 C     3435   1 H                                       1.0920411
  3315   6 C     3436   1 H                                       1.0880385
  3315   6 C     3437   1 H                                       1.0884634
  3315   6 C     3438   1 H                                       1.0866588
  3313   6 C     3439   1 H                                       1.0914580
  3313   6 C     3440   1 H                                       1.0922121
  3311   6 C     3441   1 H                                       1.0928119
  3312   6 C     3442   1 H                                       1.0855775
  3312   6 C     3443   1 H                                       1.0871335
  3312   6 C     3444   1 H                                       1.0882666
  3310   6 C     3445   1 H                                       1.0919041
  3310   6 C     3446   1 H                                       1.0939036
  3308   6 C     3447   1 H                                       1.0925206
  3309   6 C     3448   1 H                                       1.0876874
  3309   6 C     3449   1 H                                       1.0878661
  3309   6 C     3450   1 H                                       1.0846168
  3307   6 C     3451   1 H                                       1.0917829
  3307   6 C     3452   1 H                                       1.0930712
  3305   6 C     3453   1 H                                       1.0927800
  3306   6 C     3454   1 H                                       1.0868015
  3306   6 C     3455   1 H                                       1.0877589
  3306   6 C     3456   1 H                                       1.0882249
  3304   6 C     3457   1 H                                       1.0923795
  3304   6 C     3458   1 H                                       1.0927065
  3302   6 C     3459   1 H                                       1.0943482
  3303   6 C     3460   1 H                                       1.0882786
  3303   6 C     3461   1 H                                       1.0863522
  3303   6 C     3462   1 H                                       1.0884868
  3301   6 C     3463   1 H                                       1.0905057
  3301   6 C     3464   1 H                                       1.0921261
  3299   6 C     3465   1 H                                       1.0926098
  3300   6 C     3466   1 H                                       1.0889134
  3300   6 C     3467   1 H                                       1.0882021
  3300   6 C     3468   1 H                                       1.0866069
  3298   6 C     3469   1 H                                       1.0914659
  3298   6 C     3470   1 H                                       1.0925628
  3296   6 C     3471   1 H                                       1.0934554
  3297   6 C     3472   1 H                                       1.0884224
  3297   6 C     3473   1 H                                       1.0880762
  3297   6 C     3474   1 H                                       1.0865942
  3295   6 C     3475   1 H                                       1.0912606
  3295   6 C     3476   1 H                                       1.0931301
  3293   6 C     3477   1 H                                       1.0930680
  3294   6 C     3478   1 H                                       1.0864034
  3294   6 C     3479   1 H                                       1.0882100
  3294   6 C     3480   1 H                                       1.0879034
  3292   6 C     3481   1 H                                       1.0921723
  3292   6 C     3482   1 H                                       1.0945464
  3290   6 C     3483   1 H                                       1.0942905
  3291   6 C     3484   1 H                                       1.0884713
  3291   6 C     3485   1 H                                       1.0868019
  3291   6 C     3486   1 H                                       1.0873430
  3289   6 C     3487   1 H                                       1.0928192
  3289   6 C     3488   1 H                                       1.0923895
  3287   6 C     3489   1 H                                       1.0917884
  3288   6 C     3490   1 H                                       1.0876945
  3288   6 C     3491   1 H                                       1.0888835
  3288   6 C     3492   1 H                                       1.0870440
  3286   6 C     3493   1 H                                       1.0915176
  3286   6 C     3494   1 H                                       1.0932025
  3284   6 C     3495   1 H                                       1.0964803
  3285   6 C     3496   1 H                                       1.0887268
  3285   6 C     3497   1 H                                       1.0860563
  3285   6 C     3498   1 H                                       1.0874284
  3283   6 C     3499   1 H                                       1.0929159
  3283   6 C     3500   1 H                                       1.0930956
  3281   6 C     3501   1 H                                       1.0909802
  3282   6 C     3502   1 H                                       1.0866067
  3282   6 C     3503   1 H                                       1.0885068
  3282   6 C     3504   1 H                                       1.0880990
  3280   6 C     3505   1 H                                       1.0895219
  3280   6 C     3506   1 H                                       1.0931998
  3278   6 C     3507   1 H                                       1.0927722
  3279   6 C     3508   1 H                                       1.0884688
  3279   6 C     3509   1 H                                       1.0864384
  3279   6 C     3510   1 H                                       1.0881001
  3277   6 C     3511   1 H                                       1.0918446
  3277   6 C     3512   1 H                                       1.0929043
  3275   6 C     3513   1 H                                       1.0924973
  3276   6 C     3514   1 H                                       1.0880211
  3276   6 C     3515   1 H                                       1.0886133
  3276   6 C     3516   1 H                                       1.0876455
  3274   6 C     3517   1 H                                       1.0899441
  3274   6 C     3518   1 H                                       1.0925658
  3272   6 C     3519   1 H                                       1.0939234
  3273   6 C     3520   1 H                                       1.0886678
  3273   6 C     3521   1 H                                       1.0879596
  3273   6 C     3522   1 H                                       1.0866205
  3271   6 C     3523   1 H                                       1.0906484
  3271   6 C     3524   1 H                                       1.0921510
  3269   6 C     3525   1 H                                       1.0924001
  3270   6 C     3526   1 H                                       1.0869045
  3270   6 C     3527   1 H                                       1.0880537
  3270   6 C     3528   1 H                                       1.0883274
  3268   6 C     3529   1 H                                       1.0931491
  3268   6 C     3530   1 H                                       1.0935758
  3266   6 C     3531   1 H                                       1.0945325
  3267   6 C     3532   1 H                                       1.0881403
  3267   6 C     3533   1 H                                       1.0866059
  3267   6 C     3534   1 H                                       1.0880219
  3353   6 C     3535   1 H                                       1.0914343
  3353   6 C     3536   1 H                                       1.0927100

 * 2 distinct bonds (by element types)

   Z      Z             #   av. dist./Å        max./Å        min./Å
   1 H    6 C        2366     1.0900841     1.0973680     1.0841270
   6 C    6 C        1110     1.5325170     1.5401255     1.5233253


optimized geometry written to: xtbopt.xyz


           -------------------------------------------------
          | TOTAL ENERGY            -3716.250344334556 Eh   |
          | GRADIENT NORM               0.000987697522 Eh/α |
          | HOMO-LUMO GAP              11.403196006495 eV   |
           -------------------------------------------------

------------------------------------------------------------------------
 * finished run on 2024/10/04 at 21:09:31.309     
------------------------------------------------------------------------
 total:
 * wall-time:     0 d,  6 h, 56 min, 54.007 sec
 *  cpu-time:     1 d, 13 h,  4 min, 33.684 sec
 * ratio c/w:     5.336 speedup
 SCF:
 * wall-time:     0 d,  0 h, 16 min, 51.897 sec
 *  cpu-time:     0 d,  1 h, 47 min, 43.744 sec
 * ratio c/w:     6.388 speedup
 ANC optimizer:
 * wall-time:     0 d,  6 h, 38 min, 34.432 sec
 *  cpu-time:     1 d, 11 h, 15 min,  4.928 sec
 * ratio c/w:     5.307 speedup

