3864
 energy: -5104.216247734626 gnorm: 0.000798429949 xtb: 6.6.1 (8d0f1dd)
C           62.84971575599548       52.64605343218012       60.93410395499090
C           62.09994093838282       53.74343653641581       60.53100072715281
C           62.33586548627203       54.27309518970521       59.26703187884382
C           63.28018897590393       53.71307962831262       58.42698503070411
C           64.01570288811658       52.61516544562587       58.83878876993502
C           63.80233738479416       52.08706615457016       60.09944185890212
C           61.03947146902118       54.32361181151838       61.43769564707949
C           61.35139691227894       55.78469143597962       61.76712075477352
C           59.66964435297414       54.15280048484750       60.76342079613916
C           58.45127630731269       54.53687028298516       61.61478070778409
C           57.23699161555485       54.59612392500579       60.72032026649825
C           56.71860802072014       53.43539609011018       60.15796004372589
C           55.57133959538942       53.47467447190046       59.38826423114758
C           54.94555845168853       54.68282274894030       59.13714435667654
C           55.47355157057434       55.85010984946686       59.65951193303036
C           56.60801637911724       55.80500494439871       60.45204042370449
C           58.21884707992557       53.54653163831740       62.76552419681415
C           56.91846236160508       53.85815405517123       63.51990285541561
C           56.96391846375113       55.26668070166012       64.06097394400675
C           55.99287302935917       56.18788731003129       63.68582912876811
C           56.07162664537756       57.50961406542026       64.08780388390562
C           57.12851469766574       57.93205184222691       64.87586429505991
C           58.08086043459915       57.01552825792547       65.28847155453521
C           57.99485176750082       55.69374869021330       64.88995030662318
C           56.62470429766164       52.85342624574039       64.64373761486084
C           56.48050112078562       51.38293614941994       64.20099999603293
C           56.19800375763251       50.55406632320148       65.43107846864737
C           57.17365584587179       49.71091358360859       65.94887954450530
C           56.93675315385018       48.96062969276839       67.08751549590875
C           55.71441266919435       49.04380768471739       67.73226404526145
C           54.73749258389352       49.88834275869697       67.23354351809159
C           54.98071522071785       50.63853669562290       66.09750859292379
C           55.40039137950513       51.20090485667069       63.12822817936678
C           55.24931861265340       49.75040007710922       62.62885567852230
C           56.52099557793760       49.30458155801937       61.95779298653089
C           56.88350416293952       49.76560829812427       60.69694347196751
C           58.08280165887750       49.38639487944133       60.12199970993618
C           58.94233568355433       48.53914370435166       60.79906172724812
C           58.58571768154349       48.05867117594604       62.04653082386908
C           57.38331707256534       48.43745147783946       62.61716298738442
C           54.01883535488643       49.69125620748240       61.71123905518184
C           53.85669448975080       48.41785441364980       60.86870807473787
C           53.80639968893591       47.18858145833411       61.73702025482398
C           52.68608799366039       46.89105483577526       62.50368573671557
C           52.64365117577967       45.74590150278919       63.27741539135238
C           53.72434668060572       44.88139897120234       63.30837824276806
C           54.84976209725227       45.17595376646288       62.55861928864553
C           54.88614177489003       46.31541411177376       61.77516077643455
C           52.58022069439865       48.54320769200486       60.01908044500129
C           52.77313167027542       49.36079264683910       58.72587025208377
C           51.44258211839335       49.99299715446558       58.39604946134944
C           51.24113569262320       51.35665191123046       58.56088389219902
C           49.99606304797715       51.91942272598039       58.34305746192905
C           48.93939656522069       51.12768908039624       57.92964606535813
C           49.13258527707677       49.77005338419518       57.74227364343889
C           50.37016338825083       49.20701342186520       57.99058273484872
C           53.31138392398694       48.49502235873012       57.56768002892182
C           54.70973585202766       48.87132361594146       57.06501269540901
C           54.86822660410062       50.32305509962088       56.68565920044945
C           56.10408089386762       50.93464578895917       56.86831183877885
C           56.31263700739984       52.24872851954980       56.49227717513963
C           55.28621514855787       52.97363062646860       55.91290438490771
C           54.06028895823215       52.36840819513283       55.70281214687911
C           53.85151486232755       51.05569049548243       56.08712004808161
C           55.07344220770941       48.03822955508352       55.82074274347659
C           55.27508835539006       46.54405548809936       56.10122291405559
C           56.35488750354760       46.29901952978706       57.12511245809932
C           57.61901225629058       46.86261578164751       56.98466456291981
C           58.61739212306190       46.61883034279293       57.90834683123580
C           58.37429597860675       45.79337080494566       58.99293866750795
C           57.12598627037308       45.21771598683166       59.14125578941568
C           56.12841224538211       45.47012188155740       58.21586802662603
C           55.61331984731004       45.78878704440271       54.80316261546371
C           55.24197785432400       44.30675768484038       54.91761843896079
C           53.74887400421405       44.08560302993389       54.90024664404574
C           53.18310250170985       43.23572741463728       55.84368497491565
C           51.82213186319466       42.99225586553470       55.86203939394156
C           51.00202806571300       43.59355528961795       54.92374397359920
C           51.55232347058210       44.42517028366725       53.96529948983431
C           52.91410545079382       44.66746877526406       53.95423764339718
C           55.92122350061235       43.45283447268788       53.82863946552163
C           57.35108241041723       43.08645293410024       54.25029691710814
C           57.31085112862432       42.27818362952563       55.52846846150396
C           57.89962423847397       42.76022179785109       56.69086213400131
C           57.83345345989557       42.04394365371648       57.87350959376877
C           57.17945835761000       40.82547446128176       57.91411352441401
C           56.60427529309155       40.32665978969774       56.75804398773914
C           56.66797903007755       41.04586340571998       55.57995850826986
C           58.13863692936258       42.28575154193506       53.20346205843764
C           58.26086703271613       42.88111984624758       51.78850508551059
C           59.23872986126752       42.00814433747301       51.03722451822710
C           60.59730803103699       42.04213603482003       51.33296669173664
C           61.48620181243481       41.20045607792910       50.68981083351140
C           61.03324008780652       40.30287699695275       49.73800546485670
C           59.68379185919001       40.25731473105755       49.43402136530135
C           58.79731534800090       41.10119751992259       50.08175055894951
C           58.67843478800351       44.35518885131456       51.78691618220783
C           58.83402776130979       44.92350182633268       50.36607980121603
C           57.55244198008517       44.74821551048427       49.58572836077367
C           56.40560986748781       45.46313354802941       49.91246652346710
C           55.23906456362721       45.30845416394023       49.18567121404890
C           55.19488212693473       44.43385741474222       48.11362343013244
C           56.32687696921055       43.71050080647326       47.78349632504818
C           57.49123837441667       43.86468316373818       48.51616221308139
C           59.25284271294457       46.40856304200255       50.40869956026571
C           60.76524629944097       46.61684385165368       50.25852637553157
C           61.54340582501656       45.97154159448892       51.37710778819302
C           62.47208850168875       44.97610718205159       51.10276145146373
C           63.22286120272332       44.40401462330246       52.11592005476200
C           63.04948922398599       44.81324523552775       53.42611851797171
C           62.12181035856376       45.80027148769040       53.71384742103967
C           61.38144106445806       46.37553256548836       52.69863899782539
C           61.13442715948775       48.11269447540384       50.20802973713086
C           60.74558378456151       48.83261955366793       48.89620858304255
C           59.88106579737783       50.03324427437713       49.20835300190817
C           60.41037467694647       51.14768390749425       49.85219207825142
C           59.61683966106407       52.23891788428548       50.15742845944814
C           58.26964818079386       52.23061564888489       49.83757951340515
C           57.72810523733259       51.12374595306225       49.21006594734577
C           58.52755638489506       50.03773158217057       48.89635490789481
C           61.98382021017421       49.26050046442921       48.08964528270827
C           62.92838741811718       48.08450526375952       47.76808965911123
C           64.28076703666216       48.27577527900668       48.40650938013665
C           65.03405364953929       49.41556362004813       48.14599931788210
C           66.28041998841985       49.58765922176750       48.71951473198719
C           66.79932505825552       48.61895277309811       49.56251859200652
C           66.05889678050033       47.48060212260869       49.83046322519007
C           64.80969983083460       47.31348287841072       49.25761167563237
C           63.09845524442503       47.86095822371104       46.25707196329163
C           63.70037652368740       46.47775117467108       45.98416926842057
C           62.82443675109919       45.37451983246880       46.53063197807273
C           63.37872784199492       44.36332640246854       47.30665679329680
C           62.59638014505302       43.33216897992291       47.79770551816902
C           61.24002707078439       43.29928068584618       47.52455825675148
C           60.67799452123878       44.29669223221058       46.74658885580835
C           61.46478103884343       45.31842437424180       46.24855454446693
C           63.91471466350156       46.19830531758542       44.48903638386946
C           64.94253429603675       47.09488494943110       43.78189346066075
C           64.90961850302273       46.81545025165787       42.29855328213284
C           64.56363925732001       47.81550542189993       41.39803735169952
C           64.51598747220802       47.56377033767472       40.03790847983880
C           64.81793040939705       46.30348990333167       39.55263435977576
C           65.17050524093032       45.29896394475260       40.43838515592336
C           65.21450765897137       45.55426743176172       41.79732265893529
C           66.35609926666129       46.89647090216472       44.34257336193823
C           67.38960724350486       47.79237947861269       43.64799166477456
H           61.04572972511230       53.75228020191871       62.37170991434625
H           59.65249107507773       54.75721036278360       59.85295994785191
H           59.56503682548041       53.10526868563548       60.46959501186883
H           58.61027982137379       55.53325601367294       62.03755677260653
H           58.17178505671563       52.53434301516086       62.36215859925621
H           59.06089362611620       53.58546528296040       63.45765169376899
H           56.09185690238199       53.81557709119237       62.80528184902390
H           57.41991462523141       52.90367325258011       65.39258762477186
H           55.69713448019126       53.16154824096621       65.13263114655273
H           57.43576454958403       51.04599111691088       63.78519601804668
H           55.64903103369006       51.82336952053512       62.26784559086515
H           55.07646753310964       49.09505143981048       63.49087165519930
H           53.13421489933997       49.79746976894513       62.34313139496469
H           54.04090432249991       50.54588197194482       61.03205626678133
H           54.71881390097057       48.31905840831704       60.20079777362778
H           52.21185987044684       47.54756642115363       59.76381802764733
H           51.80081162533489       49.01906768286742       60.62077674137669
H           53.48802883251592       50.16579886698212       58.92317878164529
H           53.35378734672675       47.45744887999375       57.89806253166950
H           52.61515830383060       48.54035284596137       56.72753670542380
H           55.43907015879045       48.64337963088949       57.85326201154306
H           54.33431120684057       46.13169477821195       56.48023215131837
H           55.07847555341726       46.24667369558851       53.97186464431498
H           56.68154711232509       45.88598850300060       54.60131801340800
H           55.61207559146722       43.94798037238170       55.88523128601183
H           55.34381607870049       42.53853167612086       53.67983656494864
H           55.92454650272367       43.99636773307037       52.88341344639500
H           57.89928084763745       44.01094380579170       54.45814358104618
H           59.14497655282498       42.13814295609781       53.60774627766114
H           57.68776988282494       41.29653373624505       53.10247488140043
H           57.28526985558351       42.80521610188480       51.29823063397193
H           57.91716835459604       44.93460912590430       52.31118480717322
H           59.61814822535774       44.47580303666181       52.32681709661295
H           59.62077456115291       44.35585420951661       49.85621616915527
H           58.75622601417243       46.94223181594171       49.59608857971289
H           58.91945275665610       46.85737819861352       51.34564748874074
H           61.06998091619781       46.14206660617587       49.31828908109382
H           60.65215216442244       48.61271721769525       51.05005296594915
H           62.21237210295114       48.20003790398758       50.35731703992594
H           60.16570379124953       48.14372969116229       48.27365461803385
H           61.64732006160787       49.73012119427663       47.16247689555610
H           62.53649428826753       50.01314445124862       48.65202433903967
H           62.49336831432743       47.16935774988120       48.17379740034281
H           62.13063593519134       47.94573669477985       45.76182552221372
H           63.75053550262120       48.63391897821435       45.84860102151147
H           64.66679291332223       46.42081140989675       46.49632007861573
H           64.22767814598031       45.15647100281637       44.38571152327974
H           62.95336588125364       46.29380071928759       43.97937233610937
H           62.68622954501740       52.22026317906854       61.91532279698585
H           64.37603175597852       51.23357314779069       60.43318338117437
H           64.75423707302950       52.17584603351509       58.18331239162143
H           63.44286034092097       54.13497864233068       57.44608995869835
H           61.77953148339346       55.13439253039379       58.92899242831303
H           57.21350812219789       52.49127692183199       60.33074388917858
H           55.16508652955502       52.56317538586351       58.97338456772430
H           54.05205390465253       54.71497855255593       58.53513736506387
H           54.98778172328108       56.79400402845300       59.45243389018567
H           57.00810219341305       56.71507106774190       60.87921207846988
H           55.17616761801465       55.86696891397865       63.05432612736574
H           55.31279459028897       58.21413780250405       63.77937823665166
H           57.20974871223195       58.96706155790397       65.17119347212963
H           58.90477642244260       57.33483315955316       65.91220183649190
H           58.75087608056181       54.99441014258895       65.21706364302672
H           58.13256881761245       49.63907863046610       65.45336921524279
H           57.70803990027817       48.30833263915309       67.47299341094525
H           55.52650765451153       48.45592177288061       68.61934873756417
H           53.78014967098910       49.96453533509139       67.72957604304176
H           54.20552937284886       51.29484019715154       65.73323791857554
H           54.43942369519685       51.54074398948599       63.51777387117743
H           56.22002038497059       50.42129117029597       60.15306463461525
H           58.36108707411383       49.75362599813843       59.14419659879148
H           59.88245739893549       48.25384148144408       60.35124287574855
H           59.24548231501174       47.38668158310082       62.57893189664631
H           57.10640197863994       48.05403835296876       63.59011149189511
H           51.83412564384674       47.55404699715184       62.49160068673288
H           51.75934941991989       45.52628605811504       63.85929828871890
H           53.69114943433851       43.98201875060222       63.90819783954093
H           55.70397704985830       44.51304727253935       62.58439349542213
H           55.76600615689328       46.53135824354048       61.18391950047239
H           52.06413514192287       51.98635751985176       58.86992642071019
H           49.85071081886319       52.98004924654331       58.49037792098342
H           47.97049122681575       51.56728721953661       57.74346175085286
H           48.31350844405335       49.15010015669151       57.40622215158614
H           50.50374334951813       48.14133812091424       57.88227464820503
H           56.91241324358624       50.37239541223235       57.31768213758989
H           57.27283296891085       52.71283095513168       56.66826295767835
H           55.44203057392341       54.00681168274856       55.63880599667397
H           53.25984594377928       52.91728850514684       55.22600860766486
H           52.88344885437330       50.60800894616120       55.92273415312605
H           54.27777687158089       48.15427070673312       55.08084194707577
H           55.97984643830148       48.45186867464999       55.37407312873694
H           57.83399069723758       47.50364409451655       56.14208792689399
H           59.58809034802886       47.07687479832214       57.78126376146954
H           59.15348690128517       45.59655876458264       59.71594573033664
H           56.93182114937449       44.56529657074056       59.98124209660106
H           55.15990299195986       45.00631311960096       58.34241878874374
H           53.82851785281914       42.75888295453301       56.57092290162050
H           51.40125656623381       42.33849169711805       56.61490325307684
H           49.93876158494216       43.41444323276765       54.93449608324014
H           50.91584260141945       44.88538977060584       53.22362069393103
H           53.32461668530031       45.31070787919585       53.19101278620287
H           58.40551868785342       43.71622440455479       56.67880694027033
H           58.29080389604356       42.44328929303265       58.76748116081082
H           57.11545507298862       40.27069986574634       58.83968898227086
H           56.10131683994824       39.37052339441939       56.77443919530845
H           56.20634869961695       40.63497028357278       54.69394840419123
H           60.97370674694924       42.73050218952742       52.07556450108175
H           62.53798237905755       41.24210667739387       50.93933830729756
H           61.72587960821258       39.64026609841262       49.23726484516126
H           59.32564111814550       39.55900677744334       48.69153341200680
H           57.74431502315012       41.05153438937869       49.84303336672644
H           56.42472561240633       46.15497810917444       50.74008835808760
H           54.35971514974766       45.87576153442455       49.45549942945694
H           54.28542200796188       44.31523772267087       47.54310947357915
H           56.30695204852383       43.02160602197660       46.95048902015468
H           58.36885303286815       43.28813177952412       48.26210934648034
H           62.60146791101648       44.63321243805911       50.08471835332865
H           63.94421694098311       43.63278463588701       51.88196270668143
H           63.63167459310593       44.36522404881743       54.21934290872284
H           61.98176097945321       46.12216622981378       54.73636766771138
H           60.66467117861240       47.14551402405230       52.94216038602299
H           61.45654960660296       51.16632884208849       50.12340427422683
H           60.05002662561576       53.09664350034175       50.65343740220652
H           57.65212689761015       53.08355564631606       50.07721298293996
H           56.67655919233328       51.10598023875320       48.96545743892257
H           58.09146585126734       49.18131212474473       48.40142468026212
H           64.64216567840424       50.18137618238890       47.49213733580605
H           66.84909317795245       50.48299857498872       48.50981638119565
H           67.77438695714277       48.75086769133073       50.00987802835711
H           66.45523344179401       46.72125959392791       50.49074011956829
H           64.23667475730879       46.42339944811640       49.47895268349332
H           64.43753507990932       44.38536927694484       47.53123267472856
H           63.04289164675090       42.55146227857359       48.39873920304529
H           60.63710717470616       42.49328286905767       47.91844414055379
H           59.62281829134243       44.28303495376220       46.51997129807782
H           61.00820159044287       46.07690629357636       45.63125172418726
H           65.49096523578199       44.75729124059981       42.47253285689384
H           65.40835261977719       44.31137994531674       40.06835813763294
H           64.78126381067096       46.10335627739692       38.49135275336750
H           64.24239598338269       48.35459672260426       39.35382498848783
H           64.33555367541545       48.80697285405817       41.76179994229081
H           60.67467192485872       56.16188533429562       62.53000216918745
H           62.36937504792640       55.87232506037230       62.14242483822608
H           61.26015044839385       56.40991178913259       60.88288121172794
H           64.66349011430093       48.14142790233030       43.93229288238438
H           66.35610541766735       47.11745865495932       45.41038996972575
H           66.65649398189947       45.85356556899352       44.22089533382580
C           68.78194465418649       47.54899439087224       44.24746091565802
C           67.02456074406537       49.25205894368114       43.74900665129616
C           66.79424266086986       49.85355381296996       44.98153385704887
C           66.49364703481579       51.20130257389139       45.06606124781776
C           66.42486924159485       51.97236618581724       43.91798245786025
C           66.64446332716180       51.38492134596559       42.68349237849490
C           66.93879921355907       50.03497856371066       42.60368104001810
H           66.85032260301503       49.26988183181299       45.88913359641437
H           66.31553432810954       51.65503665545680       46.03091804435154
H           66.20122941290241       53.02676583061410       43.98358674344549
H           66.58339506560212       51.97694475884602       41.78113051089993
H           67.10813758964966       49.58278723593445       41.63604595816015
C           69.87470638554699       48.32791866608227       43.50689372309193
H           68.78503826753692       47.84205057368477       45.29957387574149
H           69.01301289891767       46.48197382238371       44.19935074256588
C           71.21773712077618       48.05015357954659       44.11549159290103
C           71.64856485275865       48.76520677888422       45.22656714673939
C           72.86943224977250       48.48920343941285       45.81526865213870
C           73.67864899025142       47.48979079257732       45.30122686314505
C           73.25799451293558       46.76881684666679       44.19678679262272
C           72.03554473781846       47.04721051468221       43.61099978572667
H           71.02052051255393       49.54795320251524       45.62828906857534
H           73.19292993340291       49.05584142926941       46.67663018888151
H           74.63348125908485       47.27503084491464       45.75824554104010
H           73.88499315578795       45.98834127894737       43.79027981604506
H           71.71307754416955       46.48192839667501       42.74775176645974
H           67.42298806207548       47.51961710038881       42.58648141659006
H           69.87375364492060       48.03426028751362       42.45504895315085
H           69.65236731701852       49.39567438290512       43.56376567381086
C           37.65326109427198       69.32251281907341       37.99349139979444
C           38.53994690491861       68.36773837303653       37.50983857264990
C           38.83950568343252       68.37290475622108       36.15276677144464
C           38.27302849910595       69.30879813166548       35.30618016721181
C           37.39046400151015       70.25349532748091       35.79920474254008
C           37.08223861497682       70.25728446897634       37.14884592590471
C           39.10844807621402       67.33570186768884       38.45203353768585
C           38.31515245836356       66.03211620434708       38.31364955626385
C           40.60126244816830       67.07059596125541       38.22981869047213
C           41.45552875335846       68.34322914056708       38.31316213072476
C           41.27139370688395       69.04125768692887       39.63563534608949
C           41.70625175024230       68.46840152047932       40.82538625024696
C           41.57800564069632       69.14214877784066       42.02636659139997
C           40.98886904395273       70.39471139911386       42.06119616934564
C           40.53092697688083       70.96615989871862       40.88627653344734
C           40.67783969581851       70.29617652198846       39.68441085620476
C           42.93006811566720       67.98455303772720       38.07356425677352
C           43.88188383825140       69.16290321520759       38.30539885418579
C           43.47857638527851       70.35976746964802       37.47984087680390
C           43.26533871239199       70.25790886620484       36.10958240409689
C           42.88412819461061       71.35996051839683       35.36677315345670
C           42.71653320520207       72.58972334917046       35.98040794204689
C           42.93510216765133       72.70688472220286       37.34198654540332
C           43.31124264134157       71.59989786680055       38.08226622207250
C           45.34726227029404       68.80517631183916       37.99375895991309
C           45.87898218869687       67.52451571695048       38.66316525901988
C           47.33373207567685       67.35428591584186       38.29204410202807
C           47.71617176099554       66.36848944096610       37.39036356005671
C           49.04316403694713       66.20074908879249       37.03511036376450
C           50.01830235090861       67.01502011446662       37.58505005050911
C           49.65059201332313       68.00449503422855       38.48119577204621
C           48.32135363898723       68.17586589420434       38.82408170635937
C           45.68678987036368       67.51066484116525       40.18515868858739
C           46.16443021545329       66.18770858072014       40.80154921673237
C           45.41370754123354       65.00805061755651       40.23521618939532
C           46.06816801005287       64.06019880997344       39.45829273609393
C           45.39970682992366       62.94190327201358       38.99104734309503
C           44.06417717205878       62.75437872766219       39.29606386054315
C           43.39667955280308       63.69699649343854       40.05981512103568
C           44.06702245753360       64.81435719859265       40.52275503470523
C           46.02120439639851       66.20269657596864       42.33654639229400
C           47.29813003649086       66.60157319378709       43.09127677508295
C           46.98314446924602       66.73878239817572       44.56266775177407
C           46.55952563917012       65.64522257625397       45.31286563883080
C           46.31925389925820       65.76764581735148       46.66934738023059
C           46.50024123021119       66.98410177105312       47.30591273666716
C           46.90438920834362       68.08215809574537       46.56759305051524
C           47.13726007539671       67.95935911715608       45.20792329477207
C           48.40321019165167       65.55704687835060       42.87578215977408
C           49.60897614363996       65.75366563344414       43.80330831660041
C           50.37967495397329       67.00651031642589       43.46920413524440
C           50.47534031481876       68.04314929731188       44.39011904720702
C           51.22173222753859       69.17745652004952       44.12008802982471
C           51.88068314028659       69.29875577333370       42.90911652642578
C           51.77625034768120       68.28441368958049       41.97226117836906
C           51.03311675357834       67.15174622346946       42.24997333234096
C           50.52001849719166       64.51887274052292       43.75736006999793
C           51.41871673572031       64.41778222372807       44.99939876572662
C           52.64522387173361       63.60190816922822       44.68344968530650
C           52.53826704632221       62.36619204872239       44.05452651164138
C           53.66695732542840       61.66227952341065       43.68295307373352