3795
 energy: -5103.684107342785 gnorm: 0.000938573166 xtb: 6.6.1 (8d0f1dd)
C          113.34585468245020      132.59519378016751       98.45016420643873
C          113.95977970956234      132.25027145480632       99.78765617300921
C          111.99515702412126      133.30221486674168       98.56180696014195
C          110.94354144669731      132.40667618320995       99.21149836173441
H          112.11376420553130      134.20528075159785       99.16191183341579
H          111.66654252464630      133.59262506836092       97.56297002744381
C          109.58011325748717      133.10327754509402       99.27237755857037
H          110.85229880542768      131.47165357658722       98.65487309391406
H          111.27271090950455      132.16901609975781      100.22295679522472
C          108.61245184411290      132.32901348217325      100.14569137009782
H          109.70824854931249      134.10349252351185       99.68697540581198
H          109.15985504443150      133.18170911712770       98.26910250753878
N          108.71181632591006      132.59510960357147      101.44775936477075
O          113.93467944364919      133.22641963643068      100.66754855510396
O          114.46863926726260      131.16935566394881      100.01668838563718
H          114.44803333260727      132.96924841837298      101.51119740641650
H          113.25783572181979      131.67426065788680       97.87216960243886
H          114.05503401646939      133.25301539334242       97.94222025651774
C          107.85949805399683      131.99708282727701      102.45566407742038
H          109.44506199026772      133.21886871867807      101.78245303329405
C          107.77851576393707      132.91060490431161      103.67294233562407
H          106.87692899571894      131.83417608144376      102.00568853685834
H          108.25960359576041      131.02044465688613      102.75570455277507
C          106.99671951458153      132.29696218545018      104.83441525049410
H          108.79852596579840      133.12388636527365      103.99996019634494
H          107.32138022691231      133.85790066819885      103.38344341361572
C          105.48765865036330      132.27576340169369      104.59650365163904
H          107.34455345893760      131.27622443205854      105.00466465419080
H          107.21060953658399      132.88556600081051      105.72670413769052
C          104.70209624495611      131.69473712395194      105.77338418673254
H          105.13963644593737      133.29103526972341      104.39539290659805
H          105.27235327245054      131.66750602077929      103.71753767928286
C          104.78314836826480      132.57320251176972      107.02243062098756
H          103.65496180587662      131.60079698686033      105.47838364662438
H          105.07130578748718      130.69355321686658      105.99730478545749
N          103.93100081628053      132.08669672471783      108.08860634045026
H          105.79786041518932      132.59069345495971      107.42145736361485
H          104.48592514738344      133.59656781283823      106.77214838780345
C          104.39137135659655      131.67291235683609      109.27540001373472
H          102.94218972638929      132.04648354504630      107.89645457782936
O          107.80965113287755      131.51045194477268       99.69275650245345
C          103.34597531612295      131.20841508622922      110.26703232030147
C          103.42522361095158      129.68666529167695      110.43749448852809
H          103.54715012615119      131.68854153121276      111.22653495647117
H          102.34745697559714      131.49281975644345      109.93558054859022
C          102.32266028784879      129.16835704209689      111.35736826047538
H          103.32198678012405      129.21429153688561      109.45842480414017
H          104.40482158369019      129.41480241209925      110.83217080517737
C          102.22983295567944      127.63696480226869      111.34226389176443
H          102.48701830857671      129.51529427908812      112.37940627090860
H          101.36631674589286      129.57264676638195      111.01911080756456
C          103.20664924497927      126.96257961764341      112.28602426403805
H          101.22731345061689      127.34272290924301      111.66206586156989
H          102.39980727073576      127.27081964789356      110.33031447096049
N          104.26137153834613      126.38233469310973      111.72713655192503
C          105.15602196442597      125.53232059155239      112.49256003227597
H          104.37942831350968      126.42258478309833      110.72050208822064
O          105.58798092796279      131.65798031844980      109.54827133917721
C          106.12716327063337      124.76211666078599      111.60874727126294
H          105.70874599274734      126.14997018608739      113.20818112880247
H          104.54472001754954      124.82173285759485      113.06148272429562
C          107.19628553477520      125.65035270814886      110.96888493388813
H          106.60970195780024      124.01730011113889      112.24384500278880
H          105.56003370096498      124.23258201989285      110.84295689223788
C          108.45993035953198      124.87911259021644      110.58102729917626
H          106.78215407141565      126.14652194246969      110.09226641755440
H          107.48358514232430      126.42152733791001      111.68695538527548
C          108.29935520290751      123.92963089166747      109.39297016000590
H          109.25170199169868      125.59403438616724      110.34788568075636
H          108.78934488552117      124.30278764325415      111.44795038366942
C          108.13350015835320      124.66424866538171      108.06562727657879
N          108.45863751978131      123.79665401638599      106.94928103895681
H          107.10928692302333      125.01973144076888      107.92481508551644
H          108.80127869413819      125.53499031476835      108.04697586149737
C          107.97466600187650      123.98975708205403      105.71980233918178
H          109.16770666006492      123.09226654007456      107.12400610032545
O          103.00016381943550      126.92696825365776      113.50771657587492
C          108.48132294879228      123.04078288557434      104.64782668364573
C          110.00584537062176      123.00740789402285      104.52517284283860
H          108.10690160096044      122.04114482911632      104.87675483435019
H          108.03915411708412      123.35732931887993      103.70063932426463
C          110.47031498031460      122.14888088055240      103.35034613548355
H          110.38672380561248      124.02113372066636      104.39104381069664
H          110.43987688978385      122.60160199127752      105.43848591039107
C          111.99113369803834      122.21053694713589      103.16583145366970
H          110.18164581676125      121.11185710667381      103.52307601116757
H          109.98440248424903      122.48223366870563      102.43165195276312
C          112.42517892306508      123.57893684375193      102.67509402771984
H          112.49041470785818      121.99153040506037      104.11042410325076
H          112.29946505449736      121.46893219207580      102.42809063690527
N          112.08598247504449      123.82137557136807      101.40418193339289
C          112.38744253286258      125.05568872583076      100.71310719732261
H          111.76729176154366      123.04915072686062      100.82623102863317
H          109.20093107630801      123.31731007378509      109.31839130796206
H          107.44884989092307      123.26672303321790      109.55402678735867
O          107.16594242720136      124.88506272140023      105.46733106517451
O          113.00188230742371      124.40019543480432      103.38389586855533
C          111.41586000148945      125.26512120231007       99.55511614032707
H          112.33319476777336      125.86382094234494      101.44758360853756
H          113.40934497402775      125.01490013282763      100.31547473183755
C          111.82385210672265      126.41636283404640       98.63455502468967
H          111.40058399842381      124.34386760381271       98.96757018109903
H          110.40759247389097      125.42598203711512       99.93676927440092
C          111.69002944013991      127.81271953491812       99.24711367068338
H          112.86350213283258      126.27041064072937       98.33116413267469
H          111.21761555592249      126.36731253470327       97.72982780418707
C          110.26237274360611      128.20995268174886       99.62309111410960
H          112.31167181872577      127.88023172323678      100.14111337777217
H          112.07869064349359      128.53716194088369       98.52845973581988
C          109.30366095234372      128.20735181018625       98.43117674104477
H          109.87657959901320      127.53661780499985      100.38825571421786
H          110.28324852283053      129.21886846619060      100.04247218872456
N          108.01773280509647      128.76197751637287       98.79314912277609
H          109.73056324220251      128.79201080676555       97.60887892264898
H          109.11603214567738      127.18992894854664       98.08218443184246
C          106.86853898647689      128.07399481813317       98.72990632033715
H          107.98855413982656      129.74198356176333       99.05791330019426
C          105.64275243304662      128.89031367420156       99.10707745547865
C          104.65790109205976      128.09157391123978       99.96193997415797
H          105.95099838667232      129.80679262308007       99.60731070313322
H          105.14869707157246      129.16953450799178       98.17311808531312
C          105.26417537822941      127.57974562825216      101.26835346277105
H          103.78917088907825      128.71653203206182      100.17729373423506
H          104.32249553656131      127.22780898285400       99.38438057532683
C          105.77858465700237      128.70497996265763      102.17532794729992
H          104.49769665083868      127.01541151598802      101.80594654542359
H          106.07280253291242      126.88974939176629      101.02782450712147
C          106.00081722048709      128.17627047729189      103.57688181009893
H          106.69090777461049      129.13745881043855      101.76704813207874
H          105.01944703303006      129.48646350986220      102.24056023246426
N          107.04686652861277      127.37768600658711      103.80290461185324
C          108.08346273841478      126.94890300187805      102.89339356076441
H          107.04336811079163      126.86525991421665      104.67996055563897
O          106.80711962858287      126.89706360846917       98.38737710722692
C          109.38721718531286      126.73000658283448      103.66338367989268
H          107.79541872776916      126.00286430881529      102.41764651574181
H          108.21328232346536      127.69624228629381      102.11060789237769
C          109.96620282640194      127.99972132603881      104.28636274323200
H          109.18227559552304      126.01174024572707      104.45739336361191
H          110.12218982738865      126.28395705940545      102.99135867736828
C          110.54459673155495      128.95685021391770      103.24994726665538
H          109.18959369732498      128.50390242461850      104.86241881069222
H          110.76233282097932      127.70642681523600      104.97279845134292
C          111.18290038276092      130.18836838085170      103.88733214284035
H          111.29665997686061      128.43159255456706      102.65908292678654
H          109.75822348644603      129.28184620092819      102.56706574169732
C          111.66418459084404      131.14502736900604      102.79891239222553
H          110.45766011306031      130.69840217873130      104.52440343820103
H          112.03145505868589      129.89307702313579      104.50601711407417
N          112.39516876486353      132.26720401871557      103.34015363765796
H          112.30573117926204      130.60781571059988      102.09222382053105
H          110.80732688185799      131.54333626719932      102.25596259156791
O          105.22323712641557      128.46975676173804      104.48686206840266
C          112.04021238868322      133.54877428842096      103.17920758888054
H          113.23928021401305      132.04224248542110      103.84660820828695
C          112.96590961515223      134.55370696391608      103.83048565779599
C          112.36323172228661      135.04483492704634      105.15429043648122
H          113.95163822993592      134.12147908252354      103.98774714765261
H          113.05927574779356      135.40406675928980      103.15467987620870
C          112.22457760046390      133.94990085244228      106.21229346781331
H          112.98306142208493      135.85183154699038      105.54794716043870
H          111.37336188214235      135.45646336340991      104.94631513733690
C          113.57076425599398      133.47286930517117      106.76979886495147
H          111.63666591137499      134.34095744293839      107.04606053127560
H          111.68250175805078      133.09925428343783      105.79498921331501
C          113.30658229647129      132.45150597851179      107.85886059424098
H          114.18269772695731      133.03089145065195      105.98522783912932
H          114.09583501395386      134.32391451832839      107.20575173991759
N          113.41177584809952      131.17643189562560      107.46772580678469
O          111.02569829461878      133.89300774453156      102.57894764844148
C          113.17197733840068      130.06929917569238      108.36958575637806
H          113.80961325733772      130.96374093025199      106.55794775817697
C          112.71206914556660      128.82023315658446      107.62703892067930
H          114.08323061094599      129.84470636458923      108.93734107888361
H          112.40867465317939      130.39718875700444      109.08095998036637
C          112.29499255926551      127.73182998723487      108.61577905552612
H          111.86499280941885      129.07893288396957      106.98951628448734
H          113.52118687495195      128.46020903598895      106.99137718793754
C          111.77194760873526      126.46034381978605      107.94598069244978
H          113.13953221651202      127.47422794240507      109.25715332421208
H          111.50941128788750      128.13580783821553      109.25532673492937
C          112.87724185348419      125.55060585536344      107.41354284192762
H          111.19024484219730      125.89904268644926      108.67798609392928
H          111.10400117301218      126.72569631779638      107.12433061553006
C          112.29790712587567      124.25725310065791      106.81545110217010
H          113.44752664324243      126.07742902213322      106.64949277569252
H          113.55567130514672      125.29337362420604      108.22858014434237
N          112.73590668054756      123.07376204964802      107.52443130442195
H          111.20890622749089      124.27975764031642      106.87223450695323
H          112.58897866176045      124.16852011702176      105.76395716644156
C          111.94675662107700      122.10392016183293      107.98139316100927
H          113.73320335288176      122.90978185787623      107.54226555904702
O          112.97215200284559      132.77195402534980      108.99697489496960
C          112.68086621590338      120.96323177795277      108.65285955587883
C          113.00612801825075      121.31601018671176      110.11071499890222
H          112.04083560821007      120.07967999685732      108.62583372454961
H          113.60059580793566      120.75207384895167      108.10790491612056
C          113.49204618848411      120.08186159088292      110.87374556953732
H          113.76781519212909      122.09707470716710      110.13002238030076
H          112.11389362802721      121.71914421264827      110.59302847766047
C          114.00673293469244      120.44792132080863      112.26651911256052
H          112.67606558987819      119.36340945690777      110.97000077784654
H          114.27971381970107      119.60948014765343      110.28739437743444
C          114.42634677255944      119.26982222881055      113.13055361687539
H          114.86740893932355      121.11382331906906      112.17180175566175
H          113.24321652748912      120.99516514841991      112.82461084601476
N          115.01470471967639      118.26164903360326      112.48882649640096
C          115.30325624258252      116.97827039561733      113.08135164725628
H          115.23103274040874      118.34007207758805      111.50117984997348
O          110.71279793555169      122.12488235561902      107.90569703084103
C          114.39119717294926      115.89903240164149      112.49141060823169
H          116.34884700574864      116.72808462262793      112.88220107035893
H          115.14526921871366      117.06335306932115      114.15667520540094
C          114.90236301179453      114.49520880636643      112.80171359020085
H          113.38287623833358      116.02933431182406      112.88821025547389
H          114.35036927896647      116.03931138747321      111.40942139169191
C          113.95329236483495      113.41390966576608      112.28437509346631
H          115.88063540197471      114.36712350793748      112.33516159695471
H          115.02748699387790      114.38612772623151      113.87902407755992
C          114.61049889792065      112.03588554251932      112.21926096141502
H          113.06841220513351      113.36902864486829      112.92124196414134
H          113.62649257087730      113.68433173949458      111.27898359605594
C          114.98343887172494      111.49575992482696      113.59720211768352
H          113.93541754387785      111.32704714009223      111.73981899458938
H          115.51242572587226      112.08972406587853      111.60641123057165
N          115.67800720378057      110.23729482357015      113.45721848367359
H          115.63331685213315      112.20828128934646      114.11681879117450
H          114.08099090950658      111.35801879401956      114.19768402917842
C          115.79270377954577      109.24191857172774      114.33046775375851
H          116.17077820526779      110.08894953765103      112.57648406801167
O          114.25134378617287      119.27988698412064      114.34970828931007
C          115.07293872760295      109.34554430597839      115.65775733207691
C          115.69330237090108      110.32443150096638      116.66052167506626
H          114.04207323971433      109.63549143376444      115.45271838417663
H          115.05030591580443      108.34373314746743      116.08565980327965
C          117.06766605881926      109.88908547483332      117.17123514160519
H          115.80226865792167      111.30655429345600      116.20265524630098
H          115.01107671895029      110.41916015443115      117.50783773379692
C          117.60600308825845      110.90769867456652      118.18740788231267
H          117.00739677206711      108.90355321275018      117.63701977403237
H          117.74316518230863      109.80575700296254      116.31996615935370
C          119.11887372551118      110.97878825074376      118.27551071846446
H          117.27061659310689      111.90345689637580      117.88985822053012
H          117.22403405472495      110.69036908141062      119.18491175456360
N          119.70667906700918      111.19310953436339      117.09149643332061
O          116.45797452057157      108.24447584936023      114.02785210146233
C          121.13293422504640      111.33696607580245      116.90681478483334
H          119.10334124583784      111.46882446562805      116.32422200536598
C          121.44996775499510      112.54110660851551      116.02713658073253
H          121.58411677966943      111.44015627417603      117.89756107020013
H          121.53750551705316      110.42464641794400      116.44934896621965
C          122.94658429580227      112.65607701008885      115.75491903538931
H          120.90874331989663      112.43585961907893      115.08672851785995
H          121.09817298581811      113.44594620454330      116.52513121749762
C          123.31271915040936      113.95388580532131      115.03868548978717
H          123.47650357036115      112.62799753190235      116.70945701475571
H          123.28448880895503      111.80235511749622      115.16736549012002
C          122.83351576294103      114.04492942223595      113.59202606029051
H          122.88269223968206      114.79084481361778      115.59029288071565
H          124.39912327480050      114.06456855247403      115.05095447482061
C          123.54689640230775      113.06177185322281      112.66247217270251
H          121.75512521355674      113.90236101298180      113.54445721780998
H          123.05395622048822      115.05337519472214      113.24355984772156
N          123.68322457354979      113.63790184962100      111.33821461924525
H          124.53706238632424      112.82930861999469      113.06785106408736
H          122.99823781901682      112.12373853983411      112.55904771734761
C          123.79717039976342      112.90402098452849      110.22353195802110
H          123.95911584435663      114.61566631623714      111.32578702898003
O          119.73946185363630      110.88457482907458      119.33104279427187
C          123.88979557243303      113.71705783016603      108.94094419617690
C          125.00529618836038      113.21647490436365      108.02155402844396
H          122.93171789093337      113.60947784391236      108.42365392476671
H          124.03708512149970      114.76926611846471      109.17992196629635
C          124.89477475004048      113.84824960325747      106.63428748727704
H          125.97367943506305      113.46225258716488      108.46346217541522
H          124.94132324559362      112.12942265884598      107.94491652044553
C          126.12629992374292      113.57738260510428      105.76829476675236
H          124.00661787396444      113.45843671525149      106.13431231726442
H          124.77932788065606      114.92500314338668      106.74722480267197
C          125.96597473906452      114.11503439087474      104.35252036199562
H          126.99698232498083      114.03926635623051      106.23577243031103
H          126.28876893300840      112.50113068511810      105.69123737795650
N          126.29484491624270      115.40579536119309      104.19571597712887
C          126.29158935927475      116.06034136357037      102.89976823475889
H          126.51044112729760      115.99207575601589      104.99849955397175
O          123.76309819770722      111.67741645726821      110.21751777141968
C          127.12678523855335      117.33503152096507      102.95909079052903
H          126.70494696850680      115.35850416424768      102.16780415615918
H          125.26210301831902      116.27676382550392      102.59186926787291
C          127.37523708806610      117.98251965673769      101.59478898699413
H          126.64564333204881      118.04920959482256      103.62690471268073
H          128.09685214098386      117.08367075963359      103.39234287144188
C          126.12653077274244      118.45043465935353      100.84376056064653
H          128.02850926168924      118.84402809195403      101.74750286272375
H          127.90817938465351      117.27319441703366      100.95850292707551
C          125.28596024659031      119.46068000286131      101.62439004831994
H          126.44908347558956      118.90956561895300       99.90705973913599
H          125.50609870324197      117.59030782467070      100.58474670388041
C          124.18140091562370      120.05664684664870      100.75609620493054
H          124.82548186991416      118.95957844325990      102.47423780670853
H          125.92069138347516      120.25894580676673      102.01265897449102
N          123.06351162004644      120.51588141421155      101.56367374995195
H          124.56689010105535      120.88638416379203      100.15413043654576
H          123.80418791937758      119.30203031394623      100.05516278553458
C          121.95248827281836      121.02147253213768      101.02366115951986
H          123.14515608035491      120.45219590144225      102.57409777103483
O          125.58790841693337      113.41055286374062      103.42288890904818
C          120.80708999072014      121.24764637478590      101.98486914809182
C          120.13710299158224      122.61376571155130      101.82838228216805
H          120.07989441223415      120.46162802233887      101.75607907698641
H          121.16115271373450      121.11703929139048      103.00501082269440
C          120.99508412901527      123.73691343095655      102.40656813440289
H          119.95151242672709      122.79858639771285      100.76745774993950
H          119.17100120181391      122.59465238910795      102.33964945813436
C          120.28322039460707      125.08683500611670      102.37522738549617
H          121.26384416821165      123.50125930210937      103.43880620679290
H          121.92261440429341      123.80668960217723      101.83879324928641
C          121.15862389593893      126.22486291375597      102.87454252732242
H          119.97530193553800      125.33028199724195      101.35522977853914
H          119.37987810039238      125.06073685572979      102.98752857765011
N          120.52121555787581      127.38681156110989      103.01948171912993
O          121.85232334512601      121.22447698362222       99.81168513090829
C          121.19202770380437      128.58620058821981      103.48503204494575
H          119.53568470022664      127.44474986478185      102.78954635405307
C          120.19342189191089      129.63889696650753      103.95430262213627
H          121.86385506730993      128.29500398975324      104.29814127099517
H          121.81451123744831      128.99326262681330      102.67871930983162
C          119.59282696348693      130.41599522972757      102.78516587493237
H          119.39656062675114      129.15089984995706      104.51861416818909
H          120.70597509074814      130.33389407404030      104.62039690282985
C          118.56956178653971      131.45526793276846      103.23949294419501
H          120.39456950679245      130.92134889389084      102.24217381677461
H          119.11678205747475      129.71738394449972      102.09348492479349
C          118.07634809803201      132.29152453469553      102.05870560838467
H          117.72984277891466      130.94718895241414      103.71915479157008
H          119.02151965490418      132.11465512515699      103.98311426664392
C          116.82873197387335      133.12389765410450      102.37075680532688
H          118.87502465682016      132.96021529828474      101.73386357664616
H          117.84168584341322      131.63129732915195      101.21801393937278
N          115.60859305820659      132.32800131496990      102.52679607842690
H          116.98053019403042      133.71383692318508      103.27634057787083
H          116.66174789833728      133.81833583663970      101.54057718883749
H          115.64870163966299      131.54266093770170      101.87865483472480
H          115.55326502875951      131.92918936594222      103.46106474450400
O          122.35678736411528      126.09463110963593      103.12650257502015
C           94.76229844085900      117.82340035902192      121.20696201727341
C           95.95831326553500      118.63698036324449      121.64010823382723
C           95.10041460457542      116.43232661025381      120.66299430549104
C           95.58128069074965      116.44570222340937      119.21171306371303
H           95.85329661690379      115.96982258432116      121.30198676512900
H           94.19767264830674      115.82248709377224      120.71442700067276
C           97.00237833225248      116.99199304472570      119.02272542064928
H           95.55607930887402      115.42575694564687      118.82213937974456
H           94.89234440649011      117.04637508786615      118.61500240797893
C           98.03340029622267      115.98631045174733      119.50314890685388
H           97.17281776449073      117.15190626066611      117.95657674700236
H           97.12038889948212      117.94071598226738      119.54403767777072
N           98.45584756273371      116.14976933156670      120.75692921780228
O           95.79603153653751      119.92563807501320      121.42933927270893
O           96.95655800544235      118.16815469406107      122.15299544454119
H           96.59734146421440      120.45905134727472      121.72766871972040
H           94.19683031521345      118.40708815773381      120.48058302627213
H           94.14473049552319      117.71655261811857      122.10288548859707
C           99.43394977702222      115.29260928185934      121.39236718444940
H           98.07553640385167      116.90126011871382      121.32032212591685
C           99.21537432745157      115.22193262409763      122.90068065780919
H           99.36052096114243      114.30408692325535      120.93224453077907
H          100.43857795499595      115.68932360857829      121.19388069224092
C           97.91019507522158      114.54988579133348      123.33255379217114
H          100.05711145201296      114.68615516798531      123.34167850171876
H           99.22572048624014      116.23911247529108      123.29950359004029
C           97.75088737658365      113.10787468026631      122.84635234217721
H           97.88032817864138      114.55824918082443      124.42446986982365
H           97.06439328175182      115.14654881658775      122.98687128388566
C           96.64025441336061      112.38528557334975      123.60650799190354
H           97.51623451268141      113.09627904868820      121.78081406194971
H           98.68217980869204      112.56251772990692      122.98938495450103
C           96.43072129184493      110.94601190949129      123.13496621296116
H           96.87201579305051      112.37383872336707      124.67393009153896
H           95.70135728477423      112.92536304938331      123.47441785326357
N           97.47801991224803      110.04427090092805      123.57180240902622
H           95.47170548117589      110.57789303422635      123.51790814100862
H           96.41259130087751      110.89795586829122      122.04363738713486