3536
 energy: -3716.269052110325 gnorm: 0.000660944012 xtb: 6.6.1 (8d0f1dd)
C           58.68498489668578       68.10145157115768       68.04522400596433
C           58.08229399490133       67.49304053903992       66.77963090395711
C           56.62902322728833       67.93800221346754       66.63451833080801
C           58.19072005435217       65.96382308637656       66.82333207653421
C           58.03702766452984       65.27799801106985       65.45765909262498
C           57.61283743287846       63.82594221036113       65.66233012083238
C           59.34671526855721       65.35885047580331       64.66336917682547
C           59.23422426742941       65.10479020806606       63.15064019264855
C           60.63959446176101       64.91400162622483       62.58206210254381
C           58.49266665222958       66.26497081588718       62.47320998498132
C           58.49604908983901       66.31768674216828       60.93739307346188
C           57.74585335657484       67.57692130359951       60.50531651871777
C           57.86206448665455       65.06557945693221       60.32328825282809
C           57.89050735087141       64.99146348609204       58.78842314718121
C           56.93053449366549       63.89790570682369       58.32188591448406
C           59.30806856204467       64.72045132641061       58.27081875721546
C           59.54853612166752       65.06248639700532       56.79087774641771
C           60.82945364620313       64.37182977370449       56.32938289914112
C           59.63289260790676       66.58430972643765       56.60712641470057
C           60.05212661760550       67.10379082857004       55.22222584153968
C           60.11883969845618       68.63091617791869       55.28287032870934
C           59.08858780724395       66.62184263874956       54.13062242921995
C           59.32027198358542       67.18065879012720       52.71666519219701
C           58.23933688021567       66.63661359248751       51.78300831188317
C           60.72026750782977       66.82160517475101       52.20356810356887
C           61.05248587127532       67.25026320839397       50.76531697157251
C           62.40838974410310       66.66022618928443       50.38145272661414
C           61.06184947764848       68.77799216185920       50.63910458205712
C           61.18553520776456       69.34833257288068       49.21691555419471
C           61.49390181145784       70.84295006980031       49.31581179559836
C           59.89879059388950       69.09495405154833       48.42065580046251
C           59.85779709327495       69.64149185153597       46.98549130503494
C           58.43641315986103       69.49617067083801       46.44279550654367
C           60.86266382945216       68.92390052592543       46.07859221523424
C           61.05128081192441       69.57624557971428       44.69671344591354
C           60.38085172851695       68.74418652484587       43.60245029416607
C           62.53799471133227       69.74224033080155       44.35394832098936
C           63.28153514266343       70.76856407188899       45.21656690043260
C           62.95826195374834       72.19161568633584       44.76177296633544
C           64.79890373698365       70.54463578790369       45.15157137056019
C           65.32381387227491       69.31891526459819       45.91567946304731
C           65.25268336441952       69.54889692804504       47.42401268916020
C           66.76454089886835       69.04332469839142       45.46100366573318
C           67.41145142974821       67.76854974282394       46.01452130409830
C           68.92390661075069       67.82153844972835       45.79401382170074
C           66.80274114330905       66.47103878320081       45.45787829384555
C           66.86390105302658       66.26810986008776       43.93222187919402
C           65.48749916726882       66.47575956526100       43.29858559131732
C           67.37807704337770       64.86353096946671       43.57463713674274
C           68.89095717453313       64.68743639730617       43.74955087652488
C           69.64680618647695       65.37990099141268       42.61397050005091
C           69.30677777837367       63.20986050548921       43.77066574437440
C           68.83865580495873       62.35597628396904       44.95846736815758
C           69.23494855383086       62.97115163237456       46.29783426710093
C           69.44165699619288       60.95159943064995       44.79640479701327
C           68.91598562073379       59.90113166087843       45.79331089950499
C           70.00539777426759       59.54664640197296       46.80801372386925
C           68.44140670503013       58.60861525045199       45.10904536534246
C           67.01637405822392       58.58912370157224       44.52863110854241
C           66.87599355945029       59.44214495401090       43.26696927179328
C           65.92747986103134       59.00546973125723       45.52570199064026
C           65.85410909535392       58.19509844017148       46.82390917101222
C           65.34445205646000       56.78077142965081       46.54793773477058
C           64.92666818181502       58.86848273647875       47.84645402166548
C           65.42693788780726       60.18287086277839       48.46570751771927
C           66.64882332288403       59.94915572206187       49.34790626204931
C           64.26804734885879       60.79692851194886       49.26349607277020
C           64.56503130209073       62.05749351357222       50.08837167632746
C           63.28726473935919       62.44795409124713       50.83143271579025
C           65.06013981651661       63.21206001621140       49.21061084263481
C           65.65155443086566       64.41460950206029       49.96555617676101
C           65.76847680517419       65.58999444157334       48.99747574539063
C           67.01658255578069       64.05393234489583       50.56579087381571
C           67.77787767229088       65.15764199543706       51.31721550826379
C           69.21986135343590       64.68499137970977       51.53102761061560
C           67.16831327822879       65.51350747679838       52.68443529153541
C           66.08310091723661       66.59640490783117       52.70815017354374
C           66.61182481230713       67.93798754251218       52.19621221219830
C           65.56056744233202       66.82274198643202       54.13683029456153
C           65.00237005408788       65.60758357152662       54.88783142780140
C           63.95533564434302       64.86908713324092       54.05698316563152
C           64.36141165655576       66.04274344995532       56.21470664702175
C           65.29959841431992       66.68314149088864       57.24244567313828
C           66.29622177997324       65.65642193171664       57.78146973084667
C           64.51507781565412       67.27860611376239       58.42154781322436
C           63.54435274174888       68.42375942373440       58.09745130697744
C           64.20678003912747       69.50970129645178       57.24961439978562
C           63.01299403089271       69.05520790204005       59.39265457873572
C           62.04442923712279       68.17613619474493       60.17939931094358
C           61.61093178550416       68.85774612440530       61.47157534588673
H           58.60147027050682       69.18628310347472       68.02828535175468
H           58.16477917687108       67.73256053128956       68.92722315824369
H           59.73786563900367       67.84228390236770       68.13551388806042
H           60.88724337773115       68.24649988861360       62.00446411163102
H           62.46725702652429       69.02258058358193       62.12291738106483
H           61.15610942603271       69.82355406274634       61.26112722421074
H           63.85982121744728       69.32009748979030       60.03184831549932
H           62.49444257811691       69.98489957668880       59.14232612704308
H           63.95843736379037       66.47118523253037       58.90238844333773
H           65.24198759806477       67.65159761714268       59.14913293593322
H           65.86974205635391       67.48701726824639       56.77131885501949
H           66.92923028835126       66.10179182202492       58.54683452249611
H           65.76977521616455       64.81197817162196       58.22229113525412
H           66.94080930812005       65.28634362261437       56.98881837449054
H           63.55546454589188       66.74109468828298       55.98202127247926
H           63.91106826699446       65.16279420079789       56.68101787703354
H           66.38115802230351       67.24625240971795       54.72112300338646
H           64.77152395384790       67.57969479548592       54.08581490176703
H           62.68937079441856       68.02523965002280       57.54068379626645
H           63.52622425084262       70.34784380723755       57.11070043792005
H           65.10544249156037       69.87943522542503       57.73967228672407
H           64.47694523506024       69.13398845726344       56.26696985293666
H           65.81868754690242       64.91373379797716       55.10638335882682
H           63.17149602060169       65.55180031147593       53.73595739545560
H           64.40683641560034       64.42284132055227       53.17592584293940
H           63.50147652820203       64.07242265049803       54.64127029284553
H           65.25018844565651       66.29559724194694       52.06953945746492
H           65.84474333088626       68.70515361452399       52.28556761252756
H           67.47706762315427       68.25336975481402       52.77692305775219
H           66.90683280175089       67.88733434293772       51.15170918617134
H           66.76373576265448       64.59801381767329       53.11879534920987
H           67.97424866111169       65.85419183145898       53.34153505575114
H           67.82329605090244       66.04888317107132       50.68910261657712
H           69.81578923046732       65.46576150725841       51.99939944769984
H           69.24352058799259       63.80720593427464       52.17414652191297
H           69.68857449843489       64.42646267452012       50.58347878238198
H           66.89517094200498       63.20780824744481       51.24694036826078
H           67.65469080945380       63.71583270962668       49.74286033706535
H           64.96644808094180       64.69769644789996       50.76692150563702
H           66.52978868911802       65.38775891871339       48.24724625377858
H           64.82242786456956       65.75749958128557       48.48879715589352
H           66.03044738724596       66.50668796767920       49.51770225552846
H           65.82331694035295       62.84520437995079       48.52210744511683
H           64.21843688423593       63.55904361339657       48.60525179492697
H           65.32755161800691       61.81290071270948       50.83271116889607
H           62.48108233788285       62.63923661482724       50.12556259149928
H           62.97414099524891       61.64581399723581       51.49596153451873
H           63.43159496815016       63.34036922307523       51.43350217379051
H           63.45835218586405       61.02656599548364       48.56612290169765
H           63.89894628089958       60.03286260148326       49.95169660327317
H           65.70300162680826       60.87034248198793       47.65990674404351
H           66.38074146418660       59.34079851476498       50.20787740577218
H           67.43224093502778       59.43838808650396       48.79516750197737
H           67.05838119446764       60.89095825225063       49.70336472466784
H           63.96285351906836       59.05422273026704       47.36480148485718
H           64.74950845404776       58.16337835419557       48.66286671878625
H           66.85372112161211       58.11704219037963       47.25647745407639
H           64.34661215091414       56.81646686978605       46.11353093122150
H           65.99759060292291       56.25481810608865       45.85633782151285
H           65.29789318526170       56.20229577442290       47.46831579645303
H           66.06745840927459       60.06085737351564       45.76323287636939
H           64.96534373775461       58.91838192288786       45.01616214298545
H           66.82887144251626       57.55008706800173       44.23010040385631
H           66.95027767043986       60.50093921279908       43.49979180090580
H           67.64461456496457       59.19014511734319       42.53877355478257
H           65.90621102285587       59.26532263958330       42.80410171824389
H           69.14267269021357       58.35343877820129       44.30935969931925
H           68.50223215802757       57.80066143043113       45.84157926636565
H           68.07583455272315       60.32684271624970       46.34622135297550
H           69.61469881080463       58.88133349747235       47.57572887018622
H           70.83489491878638       59.04304394707592       46.31391276359491
H           70.39110026124381       60.43869000501898       47.29584022392925
H           69.25039357533316       60.61565118003728       43.77753142828622
H           70.52679423832321       61.03314069617652       44.89924335641826
H           67.74660116241095       62.26820674188961       44.92935026667588
H           70.30938595584870       63.14097765255995       46.33575560787223
H           68.73055108110441       63.92123729398158       46.45548915085251
H           68.95939132912869       62.31228924304411       47.11730014561576
H           68.94885810884746       62.74150888355523       42.84897397841158
H           70.39988942399201       63.17216600081511       43.74790585086335
H           69.19867227641731       65.15383309138917       44.68761744161682
H           70.72108070851885       65.31925673241524       42.77619120184421
H           69.41830925301187       64.90577589723600       41.66096670789431
H           69.37766076621314       66.43046616519034       42.54217113828404
H           66.84605589276143       64.13868715245096       44.19332561133649
H           67.12721120813434       64.64466759285888       42.53339963931766
H           67.54352035431113       67.00470118162575       43.49679645227125
H           64.78799374590697       65.72534435400586       43.66150360494089
H           65.09361252918224       67.45981443614207       43.53852035529518
H           65.54763865952832       66.39108909853462       42.21464525343585
H           67.32139267853424       65.64268461176565       45.94514774899040
H           65.76137600015139       66.41842524160174       45.77878345252048
H           67.25084294278479       67.74575458440856       47.09767694018279
H           69.40420672491611       66.94095086946922       46.21557101418193
H           69.16987597627521       67.87394357079775       44.73652149367154
H           69.34573114168484       68.69881841175763       46.28051564860954
H           66.79056335445682       69.00318117391259       44.37002057432445
H           67.37802769474766       69.89737346213458       45.76252738414473
H           64.70381425701856       68.45157657831655       45.67298671276542
H           65.94872038605840       70.33034930253301       47.72314776999190
H           64.25325055198522       69.85301784934995       47.72333491185165
H           65.49714427117098       68.64028604552374       47.96755301971924
H           65.08049524427693       70.45755155718577       44.09828702123745
H           65.30316809688965       71.43025227393028       45.54719285691731
H           62.95323947392195       70.66779661885666       46.25415204917839
H           61.88577085657618       72.37009842669147       44.77362465138157
H           63.42936723458754       72.92020875689764       45.41862357453119
H           63.32135853198716       72.35958776595241       43.74938979521654
H           63.01530649119177       68.76549670727846       44.45505713502786
H           62.63209939956604       70.03985143091036       43.30594179627826
H           60.58582083242138       70.56745789047768       44.70325635374229
H           60.43586582350574       69.25300228485196       42.64153396812938
H           60.87971173030507       67.78150319584316       43.50392859873299
H           59.33486454750734       68.56402445626790       43.83369646251391
H           61.82566008961658       68.88605572796162       46.58662182548087
H           60.53225335370152       67.89456906626297       45.94338288129630
H           60.09935048807945       70.70904112267044       47.00542945235132
H           58.35449487106549       69.91627961857456       45.44402923343671
H           58.15194449867033       68.44605091338610       46.39959807958788
H           57.72913050449172       70.01758785871712       47.08332286199125
H           59.71756175498425       68.01853866880620       48.37477000589455
H           59.06956743588140       69.54393142245166       48.97475905414676
H           62.02634558074555       68.86079561471026       48.71513986744872
H           61.70021131179813       71.27234357427518       48.33866609558116
H           60.65286820297798       71.37585035591236       49.75456977958815
H           62.36847671952700       71.00932166103162       49.94232661712706
H           60.14334253382603       69.17717826213241       51.07338498155312
H           61.89570625303045       69.15737985094314       51.23737366195154
H           60.30172323034402       66.83122939829144       50.09123285112954
H           62.66229647401083       66.89613090611451       49.35155920943632
H           63.19320507162151       67.05806596683463       51.02216148206121
H           62.39511453409674       65.57756415046057       50.48431917076620
H           61.46641741218887       67.26991744611981       52.86388651044298
H           60.83277971172713       65.73552004295561       52.26625139790274
H           59.21289040682240       68.26868236871914       52.75934390246589
H           58.37720453375267       65.57056982389226       51.61825746861633
H           57.25334586702864       66.79256275440443       52.21440099885202
H           58.26285103579239       67.14044080631442       50.82025498087997
H           59.13696614736754       65.53202366186329       54.07515116218386
H           58.07383196397785       66.88774527630012       54.43906963612817
H           61.05772153091803       66.73184868778785       55.00572156115577
H           60.71996368516751       68.95085354352184       56.13211879290920
H           60.56851264649239       69.04424658477245       54.38406446686898
H           59.12391958912751       69.05720727325175       55.39623909385605
H           58.66076805425866       67.02170963609240       56.84894418805334
H           60.35189472003805       66.97116826005920       57.33616235102862
H           58.71450487375296       64.67518990138294       56.19781384865838
H           60.76940257232769       63.30074093844499       56.51271405880338
H           61.00186779292333       64.51824116561249       55.26711597960546
H           61.68404121297124       64.76788479908376       56.87366742494932
H           60.03004766055618       65.28415661336237       58.86583658262902
H           59.52554064708029       63.66116614781821       58.42833971162143
H           57.53850789256499       65.94164361323062       58.37998470189043
H           55.91231408129546       64.12537682224830       58.62907483218246
H           56.94693498363699       63.80154568439922       57.23968421068578
H           57.20747712073576       62.93865143954984       58.75354055297387
H           58.37016043743110       64.18130470264461       60.71091782555530
H           56.82167849437078       65.01755968076192       60.65515275763716
H           59.53052275557214       66.40987205269327       60.59632414764059
H           57.84093129560156       67.74404725080595       59.43661887678060
H           56.68880459777431       67.48837325246251       60.74788008576794
H           58.14355255452541       68.45267797474196       61.01233349233448
H           57.45258500029814       66.25044689093912       62.80421842236224
H           58.93494364970402       67.19820998884002       62.83632695112409
H           58.67246109926224       64.18040432276815       62.98849564900220
H           60.60439986173262       64.65334332260080       61.52793263614302
H           61.22614380879403       65.82401193537980       62.69302765276783
H           61.15165901382040       64.11397801746891       63.11376014973332
H           59.79279854610395       66.34650504032888       64.80636773735161
H           60.04166204238307       64.63111192678211       65.08977301571370
H           57.24922143812035       65.78852575091146       64.90175548934744
H           57.55978323830597       63.30265860930566       64.71190892485291
H           58.32395234131916       63.30583625887673       66.30101057448746
H           56.63165667555774       63.77808869872728       66.12992476977658
H           59.15928232142139       65.68227097461488       67.24486862658091
H           57.42179496378458       65.58747229652882       67.50237641318843
H           58.64567603992668       67.86771628541209       65.91803388633647
H           56.56568532146965       69.02286096099971       66.58011531351745
H           56.18305120856991       67.52652497038888       65.73371219684913
H           56.04258777141941       67.60530797078457       67.48853177167656
H           61.16423047103851       67.97527566563264       59.56429427615369
H           62.51298631264372       67.22069192653082       60.42146338871046
C           53.38223648634923       41.01936070312071       59.79332627924899
C           53.09201103264861       42.04643649410363       60.88714900036354
C           52.59021015296609       43.34137303298667       60.25522877090623
C           54.35643198931099       42.26314046662594       61.72367716819792
C           54.24577909071694       43.25271783330808       62.89111140864237
C           55.60755778007694       43.36174182170470       63.57048959288631
C           53.12832700475231       42.91656689560031       63.89080686121072
C           53.26258050287194       41.58240650945642       64.64997165462233
C           51.87125759310610       40.96523199815859       64.81529387287971
C           53.94142108246935       41.75847818801632       66.02279784598093
C           54.97516614971204       40.68500160759906       66.38742053228650
C           54.37154250700721       39.28015512793193       66.39584776903398
C           55.57808041804284       40.95409020883967       67.77608797701551
C           56.36829875316071       42.25531563567885       67.94732580497960
C           57.55346611731260       42.30585723850457       66.98263706167712
C           56.90989329216797       42.41547940897610       69.37793475219209
C           55.93394310062823       42.72076041807948       70.53200847742843
C           55.27939244990878       41.46959903862385       71.12429127673786
C           54.84943903493036       43.74618849186985       70.18115525710505
C           55.35950018475127       45.13200195246718       69.76693192927297
C           55.99150339605851       45.86002213322727       70.95358276651513
C           54.21008971107081       45.98318100438283       69.20656581335722
C           53.73502735913814       45.62236379033234       67.79305845681448
C           54.78441830069540       45.99994761721201       66.75042957748175
C           52.41576161811534       46.34360674198365       67.47708959989492
C           51.17597006612166       45.67779942297792       68.08491715979608
C           50.77672142648268       44.45114438527182       67.26253263886407
C           49.98306471012214       46.64212553550205       68.14140387694100
C           50.11127725752468       47.84060943000238       69.08914068318380
C           50.39614001244129       47.40396423191548       70.52640053009485
C           48.82184705872864       48.67446248065482       69.07820384755090
C           48.46217160233243       49.36945197916921       67.75825208395277
C           49.57937392232053       50.30534259071982       67.30562011749359
C           47.15659985222971       50.15747844476909       67.95034454383661
C           46.39383885458721       50.48064553872222       66.65574476650848
C           45.43838442785516       51.64572001143441       66.90813392576888
C           45.64215373888928       49.23600953939685       66.16537050983621
C           44.79004855258027       49.39042072018366       64.89546856169041
C           43.98267829651382       48.10692804071916       64.69432151837549
C           45.66031121868937       49.69174506280127       63.67069835693542
C           44.90798783042899       50.10096378370275       62.39415313840234
C           45.86163747680758       49.99900389570195       61.20493854341900
C           44.34592407351326       51.52108218544657       62.53217761824136
C           43.41875887360461       52.00902327799358       61.40728588288078
C           43.19846434664098       53.51204503966564       61.58214621217570
C           42.08755981454683       51.24830837837268       61.42352356018584
C           41.10635396352004       51.60628807693467       60.29770835725773
C           39.73372542595929       51.01468102972276       60.62442061794265
C           41.58892273306207       51.12568713466558       58.91383699689359
C           41.84762340276571       52.24497978909523       57.89807202857330
C           40.57798095486003       53.05423299630890       57.62651914073952
C           42.34288044776601       51.70169259058273       56.54708600471410
C           43.58103320299728       50.80305293112065       56.57140339659795
C           44.77195828816608       51.50094593542371       57.21890527150154
C           43.93853814430959       50.28198025820799       55.16752673711163
C           44.37346501540780       51.33262374299787       54.13008361132574
C           43.22443546860224       51.66160767719553       53.17704186425860
C           45.57456300375588       50.84817418636504       53.30130502424752
C           46.91526967303671       50.78039942273290       54.04216326467273
C           47.42494926548619       52.17438218699586       54.40595839558991
C           47.99747244523473       50.09290895777445       53.19312582450765
C           47.76367689309787       48.62551236811388       52.80888330359065
C           47.61495856337550       47.76274624127993       54.06161564595406
C           48.93048773512110       48.08766999476576       51.95709989124345
C           48.72342724490066       48.06894451480437       50.43383004355125
C           49.89619815720155       47.31629623270220       49.80452224619268
C           48.58402175018475       49.49337691044020       49.88242193877142
C           48.66085612705297       49.67883130288284       48.35930920770863
C           48.53488431098280       51.17243818327727       48.06167873678172
C           47.58241359047179       48.86654640172096       47.63345943214851
C           47.49614033193033       49.05993711572755       46.11107147709277
C           46.31813496268209       48.24343662679154       45.57698597431720
C           48.78726768644743       48.66011816925063       45.38365095565120
C           48.92651219283673       49.26853992228959       43.97845608105997
C           49.92389105343449       48.45414131689375       43.15588983247110
C           49.38663287542644       50.72972543930564       44.06391357195601
C           49.14551376513954       51.56687057763850       42.79350897071765
C           50.42894391033199       52.28838826991091       42.37969984836297
C           48.03153676803431       52.60179061325989       43.00562413751589
C           46.63165731522901       52.00996953341106       43.21500003523489
C           46.06493941008171       51.48139196555468       41.89790874743188
C           45.67607834689781       53.04436074167650       43.84840448959468
C           45.03443645705941       52.56063222824716       45.15402221767412
C           44.11202994784088       51.36919082861542       44.89309680179014
C           44.21636381267667       53.66132300939626       45.84451209086544
C           44.96555266187397       54.92011806809632       46.29944117636078
C           46.14252530174085       54.57380222574425       47.21004069600302
C           44.01201353010112       55.87209413978188       47.03738983615714
C           42.96438828730277       56.52525696693687       46.13911885786258
C           42.07834155695861       57.49099507678774       46.91617639564221
H           53.71052649374124       40.07519164645777       60.22444265595885
H           52.49018261166160       40.82922798243076       59.19975968630426
H           54.16272451110147       41.38456855112716       59.12889374681743
H           42.66995112228880       58.29392497472674       47.34858915815011
H           41.32759019982403       57.93253661426156       46.26349895211997
H           41.56612663521119       56.97241655357944       47.72381211435539
H           43.51077183068620       55.32884046255715       47.84268611118716
H           44.60498537722427       56.66639791499361       47.49762921182944
H           43.41599494119887       53.95596633120773       45.16150812458446
H           43.74875547867513       53.21903339875072       46.72845120058111
H           45.83022343845136       52.23225116442114       45.83079998555695
H           43.69243305474973       50.99614666866469       45.82517099505804
H           43.28751072371778       51.66234698511894       44.24501054451863
H           44.64644646834973       50.55195506965003       44.41777155024858
H           46.22792541638392       53.96230435630917       44.05258819846146
H           44.88304327527111       53.29987671096404       43.14203398916491
H           48.29719052896526       53.19758860256771       43.88317383335966
H           48.00209996283434       53.27892884050171       42.14703066452980
H           45.34534767251684       55.45078871849319       45.42104701953851
H           45.80660828391284       53.97488931672489       48.05389996107917
H           46.90708708120849       54.01903598684743       46.67319635844477