3536
 energy: -3716.250922278937 gnorm: 0.000971467779 xtb: 6.6.1 (8d0f1dd)
C           58.68431416746918       68.10092086573744       68.04365559459094
C           58.08215335894938       67.49329910077380       66.77791533743083
C           56.62850760210797       67.93762750609933       66.63355678681799
C           58.19091379832441       65.96412671449056       66.82254125193322
C           58.03684790188411       65.27802171404106       65.45711937310047
C           57.61354565443218       63.82540812674944       65.66275439705049
C           59.34676018881621       65.35891843358921       64.66301011063011
C           59.23431141121094       65.10401080176918       63.15028814882566
C           60.64007340038157       64.91463584985406       62.58162670289020
C           58.49271663706422       66.26460910167511       62.47302838285572
C           58.49697946628059       66.31811116487172       60.93712607751636
C           57.74606514193695       67.57704311559570       60.50498427725073
C           57.86247877168217       65.06569878110186       60.32323817898226
C           57.89027482023952       64.99181627393600       58.78812865522683
C           56.93015537396481       63.89762396722450       58.32170337701594
C           59.30803392059682       64.72091967118131       58.27030470731524
C           59.54801911426060       65.06305409462563       56.78993983378287
C           60.82977736034324       64.37274599518567       56.32911457186710
C           59.63298703169301       66.58518088782402       56.60686804385786
C           60.05331619902674       67.10468327300451       55.22205695380670
C           60.11918750467922       68.63187125357136       55.28265036784544
C           59.08920041016710       66.62218154802181       54.13071904389160
C           59.32108895650850       67.18154128172928       52.71677930392293
C           58.24006680418554       66.63724899118547       51.78292856572854
C           60.72122960513889       66.82247134296031       52.20363382743437
C           61.05253986293485       67.25133688359689       50.76489346075002
C           62.40907846358886       66.66178820705362       50.38164879845855
C           61.06207993605894       68.77924934327802       50.63919777687811
C           61.18606934914420       69.34922348394242       49.21671358529732
C           61.49363646293051       70.84380847578180       49.31594551483533
C           59.89887568057569       69.09555768919394       48.42077038870915
C           59.85827067587798       69.64248653997782       46.98555694316009
C           58.43677200809856       69.49712147619367       46.44309316270436
C           60.86293557604454       68.92413606695693       46.07884659886279
C           61.05134824231052       69.57629902422649       44.69661982547618
C           60.38074607626848       68.74357854971527       43.60301601167448
C           62.53814377948750       69.74159492521717       44.35430502793507
C           63.28136073126177       70.76778950911948       45.21753042537236
C           62.95814204217356       72.19034239465140       44.76199966187336
C           64.79861949393528       70.54395459195001       45.15161613081526
C           65.32346418044158       69.31808476335053       45.91548945008177
C           65.25294812472190       69.54901257125111       47.42390051254352
C           66.76430128614875       69.04303453373313       45.46080703806985
C           67.41132319571072       67.76861436579929       46.01482537316071
C           68.92342576491870       67.82104644997088       45.79324087126261
C           66.80254941951594       66.47076409884461       45.45838014655927
C           66.86376926406396       66.26801442465191       43.93254426347665
C           65.48742878123427       66.47575672903977       43.29894778704010
C           67.37774293595957       64.86331908762662       43.57524155001519
C           68.89075724733959       64.68777801556867       43.75066314970108
C           69.64583849998805       65.37973973432847       42.61459595378153
C           69.30610018135168       63.21013168665672       43.77098106256600
C           68.83749215956819       62.35627427859711       44.95864325483321
C           69.23496933751385       62.97139821231963       46.29790644058097
C           69.44112625892181       60.95211502788771       44.79650392984062
C           68.91537380310773       59.90191566441437       45.79375744389663
C           70.00540256895982       59.54693750504690       46.80788842571359
C           68.44138998215966       58.60900928986384       45.10946073100465
C           67.01675903758259       58.58939029856690       44.52827813611599
C           66.87599603435986       59.44303403672507       43.26729854679100
C           65.92737848159530       59.00603955801642       45.52502984960627
C           65.85486497084150       58.19553242992124       46.82332811251196
C           65.34465629811230       56.78113689214476       46.54737691429778
C           64.92726915654404       58.86870884095838       47.84641875645865
C           65.42793512450429       60.18348347985607       48.46536304528627
C           66.64951875455051       59.95006622986470       49.34825907320093
C           64.26841388027017       60.79720587566057       49.26297389888464
C           64.56599980548741       62.05786724183645       50.08798519041986
C           63.28742817642819       62.44788417613108       50.83072624781411
C           65.06060218880395       63.21255611940165       49.20987680862794
C           65.65216724543902       64.41483077835564       49.96559188463964
C           65.76923272622285       65.59016101418260       48.99726010189973
C           67.01746860280380       64.05356890929023       50.56523361736620
C           67.77837617579802       65.15756611965202       51.31685132289758
C           69.21983462303518       64.68415819131140       51.53054938898102
C           67.16856764531020       65.51287533403912       52.68416100986411
C           66.08332352692928       66.59610429462609       52.70724014207423
C           66.61296822320111       67.93735753393601       52.19587298448395
C           65.56150940729411       66.82340667580758       54.13620077911512
C           65.00343604860906       65.60840041208851       54.88745919261703
C           63.95605346249123       64.86991024188576       54.05623219356902
C           64.36159499682137       66.04359481381327       56.21410188983632
C           65.30008057178402       66.68369509497145       57.24204501188228
C           66.29627735459300       65.65650936206229       57.78055306506857
C           64.51486234253002       67.27825161505287       58.42111178151813
C           63.54385749805205       68.42322514525139       58.09642980316401
C           64.20717429975650       69.50906753984999       57.24937333730443
C           63.01313821284550       69.05487089249479       59.39186094788436
C           62.04417612450089       68.17577653222611       60.17834978465574
C           61.61096642419490       68.85831115368279       61.47033537460672
H           58.60027616085799       69.18544679267576       68.02644868269029
H           58.16374990912831       67.73134400467963       68.92494187558040
H           59.73702192314683       67.84175322838570       68.13360779574464
H           60.88703908867871       68.24772621270705       62.00372546810725
H           62.46774169139752       69.02218199889003       62.12064409276435
H           61.15706277075925       69.82422365235372       61.25922424347072
H           63.85974472146922       69.31790261029691       60.03091776779479
H           62.49485156535909       69.98430539437197       59.14157416404545
H           63.95856587707760       66.47045624547296       58.90169988820739
H           65.24150460849421       67.65177048859748       59.14764145689863
H           65.86896896052022       67.48727686906902       56.77064215869939
H           66.92823348748895       66.10204935530386       58.54601265332082
H           65.76949721175164       64.81196420821240       58.22088529884502
H           66.94105315714626       65.28700519010137       56.98791743167335
H           63.55587056350056       66.74173737041690       55.98063070149914
H           63.91077043460791       65.16323893593272       56.67949338298839
H           66.38219577127387       67.24527391524772       54.72026531443753
H           64.77225188046486       67.57962517068565       54.08519830583694
H           62.68890453033448       68.02448162378403       57.53978072250090
H           63.52672615765754       70.34717638784277       57.11083039070962
H           65.10527576478721       69.87735121561289       57.74066113398904
H           64.47736037453105       69.13375041582202       56.26660759148784
H           65.81834439522592       64.91375303140556       55.10612092505363
H           63.17219977556088       65.55249513757690       53.73491203834737
H           64.40748805363084       64.42346046414150       53.17523481028302
H           63.50121361163752       64.07294057708880       54.63986612833584
H           65.24996732567914       66.29515602166906       52.06940321041924
H           65.84589361217557       68.70428565108300       52.28581868736065
H           67.47797364705319       68.25078224487845       52.77714707645023
H           66.90746785046595       67.88663453013832       51.15142773895268
H           66.76390072824339       64.59725107746583       53.11831223236199
H           67.97406296175075       65.85406902961238       53.34049144597596
H           67.82288427854661       66.04830861612587       50.68903488144591
H           69.81497539231982       65.46517394096129       51.99849494721735
H           69.24322067790953       63.80635692776144       52.17343984993958
H           69.68736095618834       64.42579951534509       50.58259721889753
H           66.89549851714439       63.20719210455468       51.24585804892353
H           67.65465825979871       63.71645547436178       49.74183283588603
H           64.96662389734165       64.69690089825384       50.76664914655613
H           66.53048639080205       65.38692872073963       48.24770927505890
H           64.82285402478996       65.75725766506440       48.48901581936484
H           66.03083556497027       66.50574189936226       49.51881911011011
H           65.82325380829978       62.84517384761858       48.52172747250535
H           64.21813978730249       63.55894496591026       48.60564827996962
H           65.32748540705651       61.81257421671046       50.83235679912866
H           62.48155562212169       62.63830390744967       50.12426897201955
H           62.97445843375729       61.64566075036392       51.49550986002897
H           63.43095341023477       63.34045969958772       51.43265492765384
H           63.45870390570879       61.02716847027604       48.56597654265212
H           63.89923103118043       60.03327014485107       49.95137446149955
H           65.70284930052441       60.87055979149576       47.66001335614607
H           66.38041392651800       59.34183413508168       50.20812055421465
H           67.43199387411326       59.43900922690045       48.79510158199605
H           67.05834118591662       60.89199802011810       49.70340919428722
H           63.96319674706001       59.05464163570333       47.36556505430114
H           64.75027042308477       58.16392405692469       48.66318715927719
H           66.85377371673894       58.11762391162522       47.25627093806115
H           64.34680682665541       56.81765587833227       46.11334495774413
H           65.99779760180729       56.25611276504335       45.85568043639701
H           65.29834393808544       56.20260621775422       47.46784909901595
H           66.06666317605840       60.06112567125532       45.76339013211619
H           64.96505441310893       58.91773890951426       45.01649821787782
H           66.82850232707376       57.55087234328830       44.23069178954041
H           66.95030364854874       60.50158755184698       43.50062655007112
H           67.64467127511620       59.19029151573000       42.54013650726316
H           65.90618948420237       59.26559634248993       42.80494555860901
H           69.14207994315481       58.35517347248799       44.30973129291350
H           68.50243922109055       57.80079918348908       45.84159585095190
H           68.07541318834004       60.32762654851517       46.34688903548350
H           69.61465078444658       58.88160399895561       47.57571324467957
H           70.83375840762518       59.04342325836650       46.31263118625498
H           70.39088647636680       60.43907617857280       47.29540225539132
H           69.24989087439249       60.61564583555512       43.77813785837034
H           70.52561887258477       61.03392002478379       44.90078483383252
H           67.74546726453720       62.26854469919696       44.93051825814179
H           70.30927339037956       63.14079865341068       46.33435376248684
H           68.73081426032259       63.92153264585880       46.45593387503944
H           68.96012331320379       62.31292735543136       47.11813911747533
H           68.94760525710633       62.74235196994523       42.84961558776502
H           70.39878193397134       63.17218132607949       43.74907637828549
H           69.19840030887737       65.15388920756193       44.68858476515002
H           70.71997753639614       65.31889136539439       42.77663202232353
H           69.41666512374613       64.90501937378200       41.66223890733932
H           69.37674208365512       66.43017193072029       42.54269005713388
H           66.84513738973433       64.13845224593828       44.19353610544248
H           67.12748123531068       64.64526869945881       42.53404050520751
H           67.54336031699017       67.00412440982937       43.49782442452333
H           64.78758487756483       65.72550529767982       43.66183635815487
H           65.09372753479883       67.45985684976750       43.53863924321293
H           65.54808331217392       66.39065954492237       42.21535647515790
H           67.32139944599652       65.64248591657935       45.94549048084927
H           65.76113527277343       66.41762975162239       45.77952453090818
H           67.25072348059449       67.74575003333298       47.09788896634672
H           69.40339807197152       66.94048334020553       46.21517138562269
H           69.16861305383922       67.87298989772866       44.73577525910775
H           69.34505750266594       68.69831137201164       46.27952736255053
H           66.79015110070368       69.00249337861422       44.37017909507485
H           67.37712850341346       69.89667743135428       45.76318335569837
H           64.70348173484048       68.45051215641342       45.67364609989377
H           65.94936137327291       70.33034061408716       47.72165210933908
H           64.25387292886515       69.85379596169882       47.72387482062573
H           65.49733831264521       68.64097765886014       47.96876638382104
H           65.07950692482837       70.45656234802708       44.09859482932074
H           65.30257184603171       71.42895050164407       45.54787280630840
H           62.95349966477306       70.66691761382705       46.25506611593983
H           61.88573592121274       72.36881694062079       44.77393704875374
H           63.42942714964865       72.91881894074395       45.41863490706824
H           63.32132079642760       72.35721466753694       43.74972874103190
H           63.01493509739095       68.76457465209248       44.45475800626473
H           62.63144304776464       70.04009997840983       43.30706408447856
H           60.58610640683231       70.56678319568667       44.70387016669056
H           60.43603645864378       69.25236780627392       42.64257437081731
H           60.87972738615630       67.78088152485009       43.50478962964137
H           59.33478974579629       68.56364516896465       43.83458319206689
H           61.82570096231334       68.88607773722103       46.58712302651351
H           60.53189261005735       67.89483506224038       45.94452904063684
H           60.09994052521271       70.70909585950672       47.00630365540825
H           58.35571012446367       69.91595587224282       45.44407305470910
H           58.15190456773612       68.44691519037380       46.40131078398218
H           57.73001339997443       70.01956956944116       47.08325550923011
H           59.71720807635263       68.01905594300985       48.37506682563159
H           59.06995784028341       69.54459900172738       48.97499254852057
H           62.02617309175399       68.86080185653952       48.71567588402194
H           61.69985703066812       71.27220350016059       48.33875356789247
H           60.65205727922712       71.37552865812663       49.75455865504086
H           62.36786536028815       71.00924633728650       49.94272304908070
H           60.14338432263635       69.17752945824695       51.07335341354392
H           61.89617149648048       69.15714473777737       51.23705162820562
H           60.30199645648031       66.83120325562058       50.09164620801241
H           62.66230864530410       66.89857195285640       49.35207215967094
H           63.19257078402678       67.06003711161547       51.02315311435752
H           62.39547733878590       65.57891202649438       50.48382166813851
H           61.46648117208840       67.27154479299237       52.86364638429050
H           60.83356301334283       65.73635119843107       52.26657824234148
H           59.21318814506576       68.26862183268570       52.75992163293908
H           58.37778210765058       65.57102209781493       51.61835346437233
H           57.25406440847073       66.79316357451088       52.21436238492262
H           58.26423998042896       67.14107829664393       50.82046278421172
H           59.13723085000123       65.53232032553426       54.07497667652575
H           58.07462451148138       66.88815864163870       54.43910163648063
H           61.05778349179373       66.73150051973133       55.00557450262608
H           60.72046989558334       68.95079615609879       56.13159074768490
H           60.56832660144615       69.04393974563725       54.38342372061931
H           59.12377439665556       69.05636046720868       55.39627149215370
H           58.66074565954946       67.02176184610111       56.84791991014268
H           60.35197973883260       66.97037918321793       57.33576391124688
H           58.71435366817753       64.67532298364807       56.19725277747853
H           60.76992257956893       63.30170423625106       56.51299703281594
H           61.00155208727045       64.51869242326239       55.26670400730046
H           61.68325710119304       64.77020417861215       56.87346267556499
H           60.02889012669021       65.28541935506274       58.86484888435793
H           59.52533720774118       63.66177440705530       58.42763677416305
H           57.53812019504135       65.94128968055590       58.37987657909311
H           55.91184021198340       64.12385969661449       58.62961056983381
H           56.94604288570788       63.80151677886816       57.23939403536890
H           57.20799232607130       62.93820846569792       58.75257656987992
H           58.37035459983217       64.18118373951552       60.71006117049059
H           56.82201231346962       65.01776667069070       60.65427292518886
H           59.53083161740540       66.40936954361290       60.59589711609255
H           57.84119348329487       67.74398257899102       59.43630177214144
H           56.68923014126076       67.48710487139887       60.74762808643446
H           58.14374391152834       68.45203690454575       61.01250154454019
H           57.45247840549941       66.24959347379433       62.80277780085807
H           58.93526713306322       67.19708708935624       62.83543822933819
H           58.67257172040605       64.17982477379518       62.98755582240577
H           60.60463739191609       64.65346215241516       61.52750336123799
H           61.22460467528376       65.82544963805007       62.69250508053555
H           61.15205370674821       64.11521155622182       63.11377191813020
H           59.79166531983948       66.34652295659315       64.80485792763638
H           60.04109443373181       64.63096275844151       65.08878097866896
H           57.24873643362237       65.78723395402957       64.90078253311530
H           57.56153717428956       63.30089283891378       64.71267086323292
H           58.32442385615356       63.30670387657926       66.30259153470905
H           56.63190087150214       63.77755093403094       66.12921839203563
H           59.15938494437921       65.68244770303001       67.24288959853349
H           57.42183100644788       65.58729756084674       67.50073763151343
H           58.64497108749518       67.86741568746905       65.91618920330193
H           56.56537640237278       69.02222880630701       66.57932757335662
H           56.18166034413024       67.52612609892341       65.73299087931321
H           56.04292189668155       67.60465006638208       67.48790680176621
H           61.16403952959603       67.97451148250002       59.56292474891713
H           62.51245630324239       67.22030054571491       60.42063138029955
C           53.38236214655559       41.01873409959739       59.79350088011251
C           53.09205971589561       42.04590076380806       60.88726016857980
C           52.58970799492320       43.34095020160886       60.25522548760387
C           54.35682908951772       42.26289117767949       61.72331254696289
C           54.24510570412946       43.25312004878587       62.89044563314485
C           55.60718522116316       43.36156536992431       63.57011706019461
C           53.12823052272901       42.91579793071807       63.89065599584235
C           53.26336048492053       41.58148679546709       64.64977145238677
C           51.87193616472580       40.96528853667529       64.81542018254797
C           53.94177287534531       41.75815422895950       66.02295494300159
C           54.97620333266897       40.68474850859573       66.38709257273177
C           54.37192702588827       39.28041157312950       66.39534193096412
C           55.57810954975638       40.95359535135663       67.77628395280340
C           56.36786655287272       42.25507850089393       67.94781607998065
C           57.55386481770657       42.30471866310573       66.98341259800755
C           56.91004020141648       42.41525736180088       69.37827697293343
C           55.93363536728237       42.72051869320457       70.53187324236112
C           55.27890687338619       41.46946108633610       71.12307468542191
C           54.84896933221658       43.74567548221024       70.18083458935551
C           55.35985969708057       45.13131126048433       69.76663893418427
C           55.99111476826060       45.85945633145462       70.95366460078253
C           54.21010437861212       45.98297957467629       69.20698064518888
C           53.73461406054998       45.62255971511355       67.79349571561842
C           54.78421065983790       46.00017571937703       66.75047616385604
C           52.41549250405196       46.34416294107330       67.47711727290299
C           51.17569157409726       45.67778355482542       68.08500952650540
C           50.77724669811555       44.45131621906722       67.26216316735137
C           49.98318012857607       46.64253943650964       68.14080564454946
C           50.11219439924292       47.84112402245719       69.08866637212026
C           50.39632712884220       47.40369448033096       70.52579313512712
C           48.82196737493974       48.67400278571052       69.07810799505963
C           48.46190654191201       49.36842453919235       67.75798081351162
C           49.57942962150513       50.30486433471098       67.30533020352702
C           47.15672462578549       50.15723584921556       67.94984587522943
C           46.39446042831742       50.48050828687279       66.65477182620316
C           45.43870936474048       51.64531523326022       66.90800809029034
C           45.64225585568846       49.23575230093371       66.16497609939930
C           44.78918621580213       49.39068278002752       64.89582422372359
C           43.98254543202424       48.10717648555417       64.69383488709717
C           45.65996750274739       49.69163163658554       63.67109590826586
C           44.90695347629935       50.10079535449168       62.39485255503942
C           45.86068436256274       49.99843193939572       61.20529039663677
C           44.34511413188521       51.52105039720826       62.53241792710691
C           43.41845577370639       52.00865917505934       61.40662398118668
C           43.19832357826512       53.51180871558184       61.58229085630920
C           42.08720936220626       51.24788562157422       61.42338249507188
C           41.10607609294406       51.60656203457353       60.29770596482535
C           39.73385499601851       51.01440238664446       60.62387997005471
C           41.58894683545612       51.12545236506453       58.91386181545911
C           41.84725312750957       52.24555863880811       57.89859206716442
C           40.57698093001638       53.05373442993429       57.62628499797310
C           42.34197851230096       51.70228169240099       56.54706946583688
C           43.58019594863891       50.80354826920454       56.57164391428256
C           44.77160949434651       51.50171401133368       57.21881297865287
C           43.93800486557056       50.28186572058435       55.16793204881068
C           44.37304410395655       51.33299745025286       54.13071177953014
C           43.22398385887990       51.66084527903323       53.17709804598835
C           45.57377570891180       50.84773320519986       53.30128110084690
C           46.91452023005392       50.77969911966385       54.04225180915082
C           47.42474786365779       52.17395334378782       54.40551757413440
C           47.99696567637424       50.09266135796449       53.19268213375863
C           47.76279432917183       48.62494260736904       52.80890377679175
C           47.61468062036899       47.76251738313324       54.06213351430981
C           48.93011829519836       48.08775221825977       51.95700643763753
C           48.72246480513243       48.06864195805156       50.43355554803276
C           49.89567675383189       47.31622220651681       49.80428935219486
C           48.58314976834209       49.49345100150708       49.88245087625636
C           48.66015797630251       49.67830556929260       48.35895237627427
C           48.53355299517406       51.17238177445760       48.06194582395567
C           47.58161392699618       48.86586771854277       47.63320912302406
C           47.49539295733575       49.06015131422801       46.11065463692399
C           46.31787715444396       48.24287135766388       45.57710618786776
C           48.78689626092932       48.65970926874423       45.38356914653498
C           48.92580438645698       49.26800863376950       43.97810291717548
C           49.92355967194656       48.45394543668466       43.15596665928695
C           49.38612954843190       50.72942890585858       44.06396354545091
C           49.14500759630175       51.56669631884377       42.79337628323144
C           50.42883950059850       52.28768687249001       42.37948047053080
C           48.03138587581758       52.60193585649335       43.00618705021269
C           46.63164108533854       52.00908903321667       43.21574264221206
C           46.06522972871539       51.48174961620645       41.89840559994021
C           45.67623523939485       53.04417670159152       43.84873710177440
C           45.03507503148895       52.56025123920563       45.15472024771201
C           44.11181700994536       51.36958788423364       44.89325261035047
C           44.21612684317036       53.66103106650688       45.84454701415962
C           44.96517656165396       54.92012326497109       46.29909391203896
C           46.14230281828232       54.57432369977749       47.21043973765637
C           44.01173273253315       55.87216973658799       47.03760343415398
C           42.96419398649045       56.52514958854366       46.13860066547414
C           42.07832837334291       57.49126033174394       46.91591441621607
H           53.71093152467166       40.07556405569402       60.22547398543869
H           52.48979750828419       40.82940234490376       59.20098222582632
H           54.16262053862052       41.38443418317621       59.12883438546439
H           42.67018718390523       58.29395177743798       47.34870076176812
H           41.32847888661853       57.93298330635789       46.26290667667057
H           41.56630643414286       56.97253099467981       47.72340730410208
H           43.51146828385377       55.32893963818179       47.84329358490142
H           44.60547285057812       56.66608360795018       47.49774508858099
H           43.41712987337608       53.95617142787798       45.16112661327507
H           43.74914916842827       53.21964094442998       46.72894361292652
H           45.83066866500437       52.23300216912269       45.83206304315801
H           43.69275573521228       50.99650023912975       45.82540919650631
H           43.28807596637274       51.66509485677553       44.24602887938718
H           44.64638408227123       50.55322987997094       44.41727693029853
H           46.22775803685504       53.96247476268472       44.05225602027804
H           44.88280403342559       53.29792259114631       43.14311991544884
H           48.29744175984561       53.19780603578806       43.88381361707724
H           48.00174132651194       53.27809991070498       42.14752938530919
H           45.34557380182255       55.45095650717124       45.42168769625107
H           45.80669647170106       53.97630844292978       48.05524608466418
H           46.90711592594488       54.01922393759754       46.67433260323293