      -----------------------------------------------------------      
     |                   =====================                   |     
     |                           x T B                           |     
     |                   =====================                   |     
     |                         S. Grimme                         |     
     |          Mulliken Center for Theoretical Chemistry        |     
     |                    University of Bonn                     |     
      -----------------------------------------------------------      

   * xtb version 6.6.1 (8d0f1dd) compiled by 'stahn@M-Bot' on 2023-08-01

   xtb is free software: you can redistribute it and/or modify it under
   the terms of the GNU Lesser General Public License as published by
   the Free Software Foundation, either version 3 of the License, or
   (at your option) any later version.
   
   xtb is distributed in the hope that it will be useful,
   but WITHOUT ANY WARRANTY; without even the implied warranty of
   MERCHANTABILITY or FITNESS FOR A PARTICULAR PURPOSE.  See the
   GNU Lesser General Public License for more details.
   
   Cite this work as:
   * C. Bannwarth, E. Caldeweyher, S. Ehlert, A. Hansen, P. Pracht,
     J. Seibert, S. Spicher, S. Grimme, WIREs Comput. Mol. Sci., 2020, 11,
     e01493. DOI: 10.1002/wcms.1493
   
   for GFN2-xTB:
   * C. Bannwarth, S. Ehlert and S. Grimme., J. Chem. Theory Comput., 2019,
     15, 1652-1671. DOI: 10.1021/acs.jctc.8b01176
   for GFN1-xTB:
   * S. Grimme, C. Bannwarth, P. Shushkov, J. Chem. Theory Comput., 2017,
     13, 1989-2009. DOI: 10.1021/acs.jctc.7b00118
   for GFN0-xTB:
   * P. Pracht, E. Caldeweyher, S. Ehlert, S. Grimme, ChemRxiv, 2019, preprint.
     DOI: 10.26434/chemrxiv.8326202.v1
   for GFN-FF:
   * S. Spicher and S. Grimme, Angew. Chem. Int. Ed., 2020, 59, 15665-15673.
     DOI: 10.1002/anie.202004239
   
   for ALPB and GBSA implicit solvation:
   * S. Ehlert, M. Stahn, S. Spicher, S. Grimme, J. Chem. Theory Comput.,
     2021, 17, 4250-4261. DOI: 10.1021/acs.jctc.1c00471
   
   for DFT-D4:
   * E. Caldeweyher, C. Bannwarth and S. Grimme, J. Chem. Phys., 2017,
     147, 034112. DOI: 10.1063/1.4993215
   * E. Caldeweyher, S. Ehlert, A. Hansen, H. Neugebauer, S. Spicher,
     C. Bannwarth and S. Grimme, J. Chem. Phys., 2019, 150, 154122.
     DOI: 10.1063/1.5090222
   * E. Caldeweyher, J.-M. Mewes, S. Ehlert and S. Grimme, Phys. Chem. Chem. Phys.
     2020, 22, 8499-8512. DOI: 10.1039/D0CP00502A
   
   for sTDA-xTB:
   * S. Grimme and C. Bannwarth, J. Chem. Phys., 2016, 145, 054103.
     DOI: 10.1063/1.4959605
   
   in the mass-spec context:
   * V. Asgeirsson, C. Bauer and S. Grimme, Chem. Sci., 2017, 8, 4879.
     DOI: 10.1039/c7sc00601b
   * J. Koopman and S. Grimme, ACS Omega 2019, 4, 12, 15120-15133.
     DOI: 10.1021/acsomega.9b02011
   
   for metadynamics refer to:
   * S. Grimme, J. Chem. Theory Comput., 2019, 155, 2847-2862
     DOI: 10.1021/acs.jctc.9b00143
   
   for SPH calculations refer to:
   * S. Spicher and S. Grimme, J. Chem. Theory Comput., 2021, 17, 1701-1714
     DOI: 10.1021/acs.jctc.0c01306
   
   with help from (in alphabetical order)
   P. Atkinson, C. Bannwarth, F. Bohle, G. Brandenburg, E. Caldeweyher
   M. Checinski, S. Dohm, S. Ehlert, S. Ehrlich, I. Gerasimov, C. Hölzer
   A. Katbashev, J. Koopman, C. Lavigne, S. Lehtola, F. März, M. Müller,
   F. Musil, H. Neugebauer, J. Pisarek, C. Plett, P. Pracht, F. Pultar,
   J. Seibert, P. Shushkov, S. Spicher, M. Stahn, M. Steiner, T. Strunk,
   J. Stückrath, T. Rose, and J. Unsleber
   
 * started run on 2024/10/03 at 21:21:23.662     

           -------------------------------------------------
          |                Calculation Setup                |
           -------------------------------------------------

          program call               : /home/abt-grimme/AK-bin/xtb input.xyz --input input.inp --opt
          hostname                   : boar053.thch.uni-bonn.de
          coordinate file            : input.xyz
          omp threads                :                     8

   ID    Z sym.   atoms
    1    6 C      1-120, 363-482, 725-844, 1087-1206, 1449-1568, 1811-1930,
                  2173-2292, 2535-2654, 2897-3016
    2    1 H      121-362, 483-724, 845-1086, 1207-1448, 1569-1810,
                  1931-2172, 2293-2534, 2655-2896, 3017-3258

molecular fragmentation (1/2 indicates fragments):
111111111111111111111111111111111111111111111111111111111111111111111111
111111111111111111111111111111111111111111111111111111111111111111111111
111111111111111111111111111111111111111111111111111111111111111111111111
111111111111111111111111111111111111111111111111111111111111111111111111
111111111111111111111111111111111111111111111111111111111111111111111111
112222222222222222222222222222222222222222222222222222222222222222222222
222222222222222222222222222222222222222222222222222222222222222222222222
222222222222222222222222222222222222222222222222222222222222222222222222
222222222222222222222222222222222222222222222222222222222222222222222222
222222222222222222222222222222222222222222222222222222222222222222222222
222222222222222222222222222222222222222222222222222222222222222222222222
222222222222222222222222222222222222222222222222222222222222222222222222
222222222222222222222222222222222222222222222222222222222222222222222222
222222222222222222222222222222222222222222222222222222222222222222222222
222222222222222222222222222222222222222222222222222222222222222222222222
222222222222222222222222222222222222222222222222222222222222222222222222
222222222222222222222222222222222222222222222222222222222222222222222222
222222222222222222222222222222222222222222222222222222222222222222222222
222222222222222222222222222222222222222222222222222222222222222222222222
222222222222222222222222222222222222222222222222222222222222222222222222
222222222222222222222222222222222222222222222222222222222222222222222222
222222222222222222222222222222222222222222222222222222222222222222222222
222222222222222222222222222222222222222222222222222222222222222222222222
222222222222222222222222222222222222222222222222222222222222222222222222
222222222222222222222222222222222222222222222222222222222222222222222222
222222222222222222222222222222222222222222222222222222222222222222222222
222222222222222222222222222222222222222222222222222222222222222222222222
222222222222222222222222222222222222222222222222222222222222222222222222
222222222222222222222222222222222222222222222222222222222222222222222222
222222222222222222222222222222222222222222222222222222222222222222222222
222222222222222222222222222222222222222222222222222222222222222222222222
222222222222222222222222222222222222222222222222222222222222222222222222
222222222222222222222222222222222222222222222222222222222222222222222222
222222222222222222222222222222222222222222222222222222222222222222222222
222222222222222222222222222222222222222222222222222222222222222222222222
222222222222222222222222222222222222222222222222222222222222222222222222
222222222222222222222222222222222222222222222222222222222222222222222222
222222222222222222222222222222222222222222222222222222222222222222222222
222222222222222222222222222222222222222222222222222222222222222222222222
222222222222222222222222222222222222222222222222222222222222222222222222
222222222222222222222222222222222222222222222222222222222222222222222222
222222222222222222222222222222222222222222222222222222222222222222222222
222222222222222222222222222222222222222222222222222222222222222222222222
222222222222222222222222222222222222222222222222222222222222222222222222
222222222222222222222222222222222222222222222222222222222222222222222222
222222222222222222
# atoms in fragment 1/2:   362  2896
 fragment masses (1/2) :     1685.21    13481.68
CMA distance (Bohr)    :  18.334
constraining FC (au)   :  0.0500

           -------------------------------------------------
          |                 G F N 2 - x T B                 |
           -------------------------------------------------

        Reference                      10.1021/acs.jctc.8b01176
      * Hamiltonian:
        H0-scaling (s, p, d)           1.850000    2.230000    2.230000
        zeta-weighting                 0.500000
      * Dispersion:
        s8                             2.700000
        a1                             0.520000
        a2                             5.000000
        s9                             5.000000
      * Repulsion:
        kExp                           1.500000    1.000000
        rExp                           1.000000
      * Coulomb:
        alpha                          2.000000
        third order                    shell-resolved
        anisotropic                    true
        a3                             3.000000
        a5                             4.000000
        cn-shift                       1.200000
        cn-exp                         4.000000
        max-rad                        5.000000


          ...................................................
          :                      SETUP                      :
          :.................................................:
          :  # basis functions                6498          :
          :  # atomic orbitals                6498          :
          :  # shells                         4338          :
          :  # electrons                      6498          :
          :  max. iterations                   250          :
          :  Hamiltonian                  GFN2-xTB          :
          :  restarted?                      false          :
          :  GBSA solvation                  false          :
          :  PC potential                    false          :
          :  electronic temp.          300.0000000     K    :
          :  accuracy                    1.0000000          :
          :  -> integral cutoff          0.2500000E+02      :
          :  -> integral neglect         0.1000000E-07      :
          :  -> SCF convergence          0.1000000E-05 Eh   :
          :  -> wf. convergence          0.1000000E-03 e    :
          :  Broyden damping             0.4000000          :
          ...................................................

 iter      E             dE          RMSdq      gap      omega  full diag
   1  -3473.3810196 -0.347338E+04  0.244E+00   11.40       0.0  T
   2  -3478.5026869 -0.512167E+01  0.135E+00   11.52       1.0  T
   3  -3478.7060657 -0.203379E+00  0.599E-01   11.49       1.0  T
   4  -3478.7266143 -0.205487E-01  0.758E-02   11.52       1.0  T
   5  -3478.7276281 -0.101380E-02  0.396E-02   11.52       1.0  T
   6  -3478.7278346 -0.206473E-03  0.629E-03   11.52       1.0  T
   7  -3478.7278501 -0.154426E-04  0.126E-03   11.52       1.4  T
   8  -3478.7278511 -0.107104E-05  0.384E-04   11.52       4.6  T
   9  -3478.7278512 -0.660689E-07  0.140E-04   11.52      12.5  T
  10  -3478.7278512 -0.386808E-08  0.404E-05   11.52      43.4  T

   *** convergence criteria satisfied after 10 iterations ***

         #    Occupation            Energy/Eh            Energy/eV
      -------------------------------------------------------------
         1        2.0000           -0.6248593             -17.0033
       ...           ...                  ...                  ...
      3243        2.0000           -0.4024080             -10.9501
      3244        2.0000           -0.4022691             -10.9463
      3245        2.0000           -0.4021636             -10.9434
      3246        2.0000           -0.4020994             -10.9417
      3247        2.0000           -0.4020671             -10.9408
      3248        2.0000           -0.4020170             -10.9394
      3249        2.0000           -0.4017131             -10.9312 (HOMO)
      3250                          0.0215531               0.5865 (LUMO)
      3251                          0.0224912               0.6120
      3252                          0.0229694               0.6250
      3253                          0.0239054               0.6505
      3254                          0.0247243               0.6728
       ...                                ...                  ...
      6498                          0.3771471              10.2627
      -------------------------------------------------------------
                  HL-Gap            0.4232662 Eh           11.5177 eV
             Fermi-level           -0.1900800 Eh           -5.1723 eV

 SCC (total)                   0 d,  0 h, 14 min, 54.247 sec
 SCC setup                      ...        0 min,  0.439 sec (  0.049%)
 Dispersion                     ...        0 min,  3.574 sec (  0.400%)
 classical contributions        ...        0 min,  0.156 sec (  0.017%)
 integral evaluation            ...        0 min,  5.901 sec (  0.660%)
 iterations                     ...       10 min, 26.853 sec ( 70.098%)
 molecular gradient             ...        4 min,  8.903 sec ( 27.834%)
 printout                       ...        0 min,  8.422 sec (  0.942%)

         :::::::::::::::::::::::::::::::::::::::::::::::::::::
         ::                     SUMMARY                     ::
         :::::::::::::::::::::::::::::::::::::::::::::::::::::
         :: total energy           -3427.484504099624 Eh    ::
         :: gradient norm              0.017923081805 Eh/a0 ::
         :: HOMO-LUMO gap             11.517659690220 eV    ::
         ::.................................................::
         :: SCC energy             -3478.727851202302 Eh    ::
         :: -> isotropic ES            0.420620245025 Eh    ::
         :: -> anisotropic ES          1.118857253027 Eh    ::
         :: -> anisotropic XC          1.946178692344 Eh    ::
         :: -> dispersion             -4.027031894659 Eh    ::
         :: repulsion energy          50.612372828329 Eh    ::
         :: add. restraining           0.000000000000 Eh    ::
         :: total charge              -0.000000000013 e     ::
         :::::::::::::::::::::::::::::::::::::::::::::::::::::

      ----------------------------------------------------------- 
     |              Fast Inertial Relaxation Engine              |
      ----------------------------------------------------------- 

          ...................................................
          :                      SETUP                      :
          :.................................................:
          :   energy convergence        0.5000000E-05 Eh    :
          :   grad. convergence         0.1000000E-02 Eh/a0 :
          :   optimization log               true           :
          :   writing optlog all                1     steps :
          :   Hessian reset                    20     steps :
          :   time step scaling                 5     steps :
          :   maximium step len.        1.0000000     a0    :
          :   initial time step         0.2500000     fs    :
          :   maximum time step         1.2500000     fs    :
          :   power reset thr           0.0000000     au    :
          :   alpha parameter           0.1000000           :
          :   BFGS update                   false           :
          :   preconditioning               false           :
          ...................................................

........................................................................
.............................. CYCLE    1 ..............................
........................................................................

 iter      E             dE          RMSdq      gap      omega  full diag
   1  -3478.7313608 -0.347873E+04  0.259E-04   11.52       0.0  T
   2  -3478.7313608 -0.271716E-07  0.148E-04   11.52      11.9  T
   3  -3478.7313608 -0.570253E-09  0.480E-05   11.52      36.5  T
     SCC iter.                  ...        3 min,  1.037 sec
     gradient                   ...        4 min,  9.099 sec
 * total energy  : -3427.4845402 Eh     change    :  -0.3613106E-04 Eh
   gradient norm :     0.0164827 Eh/a0  converged?    E=F G=F D=F
   time step     :     0.2500000 fs     power     :   0.1837243E-08
   step length   :     0.0021005 a0     speed     :   0.2032392E-03

........................................................................
.............................. CYCLE    2 ..............................
........................................................................

 iter      E             dE          RMSdq      gap      omega  full diag
   1  -3478.7364687 -0.347874E+04  0.375E-04   11.52       0.0  T
   2  -3478.7364688 -0.570440E-07  0.214E-04   11.52       8.2  T
   3  -3478.7364688 -0.114414E-08  0.694E-05   11.52      25.2  T
     SCC iter.                  ...        3 min,  2.292 sec
     gradient                   ...        4 min, 11.155 sec
 * total energy  : -3427.4845875 Eh     change    :  -0.4731115E-04 Eh
   gradient norm :     0.0144102 Eh/a0  converged?    E=F G=F D=F
   time step     :     0.2500000 fs     power     :   0.2341922E-08
   step length   :     0.0030662 a0     speed     :   0.2966745E-03

........................................................................
.............................. CYCLE    3 ..............................
........................................................................

 iter      E             dE          RMSdq      gap      omega  full diag
   1  -3478.7429500 -0.347874E+04  0.477E-04   11.52       0.0  T
   2  -3478.7429501 -0.916111E-07  0.272E-04   11.52       6.4  T
   3  -3478.7429501 -0.194768E-08  0.880E-05   11.52      19.9  T
     SCC iter.                  ...        3 min,  4.613 sec
     gradient                   ...        4 min, 10.088 sec
 * total energy  : -3427.4846387 Eh     change    :  -0.5118237E-04 Eh
   gradient norm :     0.0118235 Eh/a0  converged?    E=F G=F D=F
   time step     :     0.2500000 fs     power     :   0.2439681E-08
   step length   :     0.0039095 a0     speed     :   0.3782652E-03

........................................................................
.............................. CYCLE    4 ..............................
........................................................................

 iter      E             dE          RMSdq      gap      omega  full diag
   1  -3478.7505139 -0.347875E+04  0.559E-04   11.52       0.0  T
   2  -3478.7505140 -0.124364E-06  0.319E-04   11.52       5.5  T
   3  -3478.7505140 -0.264163E-08  0.102E-04   11.52      17.1  T
     SCC iter.                  ...        3 min,  9.819 sec
     gradient                   ...        4 min,  9.012 sec
 * total energy  : -3427.4846859 Eh     change    :  -0.4716828E-04 Eh
   gradient norm :     0.0089093 Eh/a0  converged?    E=F G=F D=F
   time step     :     0.2500000 fs     power     :   0.2127709E-08
   step length   :     0.0045977 a0     speed     :   0.4448506E-03

........................................................................
.............................. CYCLE    5 ..............................
........................................................................

 iter      E             dE          RMSdq      gap      omega  full diag
   1  -3478.7588013 -0.347876E+04  0.617E-04   11.52       0.0  T
   2  -3478.7588015 -0.148317E-06  0.352E-04   11.52       5.0  T
   3  -3478.7588015 -0.322780E-08  0.111E-04   11.52      15.8  T
     SCC iter.                  ...        3 min,  4.087 sec
     gradient                   ...        4 min,  8.372 sec
 * total energy  : -3427.4847223 Eh     change    :  -0.3638849E-04 Eh
   gradient norm :     0.0060151 Eh/a0  converged?    E=F G=F D=F
   time step     :     0.2500000 fs     power     :   0.1479120E-08
   step length   :     0.0051028 a0     speed     :   0.4937200E-03

........................................................................
.............................. CYCLE    6 ..............................
........................................................................

 iter      E             dE          RMSdq      gap      omega  full diag
   1  -3478.7682399 -0.347877E+04  0.715E-04   11.52       0.0  T
   2  -3478.7682401 -0.190392E-06  0.409E-04   11.52       4.3  T
   3  -3478.7682401 -0.428918E-08  0.125E-04   11.52      14.0  T
     SCC iter.                  ...        2 min, 58.794 sec
     gradient                   ...        4 min,  9.352 sec
 * total energy  : -3427.4847448 Eh     change    :  -0.2249305E-04 Eh
   gradient norm :     0.0039616 Eh/a0  converged?    E=F G=F D=F
   time step     :     0.2750000 fs     power     :   0.5511136E-09
   step length   :     0.0059630 a0     speed     :   0.5244986E-03

........................................................................
.............................. CYCLE    7 ..............................
........................................................................

 iter      E             dE          RMSdq      gap      omega  full diag
   1  -3478.7778158 -0.347878E+04  0.761E-04   11.52       0.0  T
   2  -3478.7778160 -0.191197E-06  0.437E-04   11.52       4.0  T
   3  -3478.7778160 -0.453201E-08  0.122E-04   11.52      14.3  T
     SCC iter.                  ...        2 min, 58.126 sec
     gradient                   ...        4 min,  9.465 sec
 * total energy  : -3427.4847485 Eh     change    :  -0.3699681E-05 Eh
   gradient norm :     0.0049622 Eh/a0  converged?    E=T G=F D=F
   time step     :     0.3025000 fs     power     :  -0.3475860E-09
   step length   :     0.0064466 a0     speed     :   0.5154905E-03

........................................................................
.............................. CYCLE    8 ..............................
........................................................................
 * reset velocities

 iter      E             dE          RMSdq      gap      omega  full diag
   1  -3478.7776961 -0.347878E+04  0.134E-05   11.52       0.0  T
   2  -3478.7776961 -0.158707E-09  0.707E-06   11.52     247.9  T
   3  -3478.7776961  0.909495E-12  0.326E-06   11.52     537.3  T
     SCC iter.                  ...        2 min, 59.405 sec
     gradient                   ...        4 min,  9.163 sec
 * total energy  : -3427.4847490 Eh     change    :  -0.5308589E-06 Eh
   gradient norm :     0.0049032 Eh/a0  converged?    E=T G=F D=T
   time step     :     0.1512500 fs     power     :   0.4578243E-10
   step length   :     0.0001064 a0     speed     :   0.1702142E-04

........................................................................
.............................. CYCLE    9 ..............................
........................................................................

 iter      E             dE          RMSdq      gap      omega  full diag
   1  -3478.7774584 -0.347878E+04  0.265E-05   11.52       0.0  T
   2  -3478.7774584 -0.201908E-09  0.155E-05   11.52     113.3  T
   3  -3478.7774584  0.322871E-10  0.378E-06   11.52     463.8  T
     SCC iter.                  ...        2 min, 58.290 sec
     gradient                   ...        4 min,  9.209 sec
 * total energy  : -3427.4847500 Eh     change    :  -0.1025441E-05 Eh
   gradient norm :     0.0047926 Eh/a0  converged?    E=T G=F D=T
   time step     :     0.1512500 fs     power     :   0.8895517E-10
   step length   :     0.0002116 a0     speed     :   0.3384001E-04

........................................................................
.............................. CYCLE   10 ..............................
........................................................................

 iter      E             dE          RMSdq      gap      omega  full diag
   1  -3478.7771081 -0.347878E+04  0.390E-05   11.52       0.0  T
   2  -3478.7771081 -0.383807E-09  0.227E-05   11.52      77.2  T
   3  -3478.7771081 -0.140972E-10  0.559E-06   11.52     313.2  T
     SCC iter.                  ...        3 min,  4.831 sec
     gradient                   ...        4 min,  8.949 sec
 * total energy  : -3427.4847515 Eh     change    :  -0.1481066E-05 Eh
   gradient norm :     0.0046315 Eh/a0  converged?    E=T G=F D=T
   time step     :     0.1512500 fs     power     :   0.1276737E-09
   step length   :     0.0003144 a0     speed     :   0.5027765E-04

........................................................................
.............................. CYCLE   11 ..............................
........................................................................

 iter      E             dE          RMSdq      gap      omega  full diag
   1  -3478.7766529 -0.347878E+04  0.511E-05   11.52       0.0  T
   2  -3478.7766529 -0.685304E-09  0.298E-05   11.52      58.8  T
   3  -3478.7766529 -0.686668E-10  0.729E-06   11.52     240.2  T
     SCC iter.                  ...        2 min, 58.120 sec
     gradient                   ...        4 min,  7.967 sec
 * total energy  : -3427.4847534 Eh     change    :  -0.1870826E-05 Eh
   gradient norm :     0.0044248 Eh/a0  converged?    E=T G=F D=T
   time step     :     0.1512500 fs     power     :   0.1603524E-09
   step length   :     0.0004137 a0     speed     :   0.6615691E-04

........................................................................
.............................. CYCLE   12 ..............................
........................................................................

 iter      E             dE          RMSdq      gap      omega  full diag
   1  -3478.7761033 -0.347878E+04  0.626E-05   11.52       0.0  T
   2  -3478.7761033 -0.909495E-09  0.365E-05   11.52      48.0  T
   3  -3478.7761033 -0.154614E-10  0.883E-06   11.52     198.5  T
     SCC iter.                  ...        3 min,  4.063 sec
     gradient                   ...        4 min, 11.098 sec
 * total energy  : -3427.4847556 Eh     change    :  -0.2180330E-05 Eh
   gradient norm :     0.0041794 Eh/a0  converged?    E=T G=F D=T
   time step     :     0.1512500 fs     power     :   0.1858108E-09
   step length   :     0.0005084 a0     speed     :   0.8131164E-04

........................................................................
.............................. CYCLE   13 ..............................
........................................................................

 iter      E             dE          RMSdq      gap      omega  full diag
   1  -3478.7754728 -0.347878E+04  0.732E-05   11.52       0.0  T
   2  -3478.7754728 -0.128557E-08  0.427E-05   11.52      41.0  T
   3  -3478.7754728 -0.286491E-10  0.102E-05   11.52     172.3  T
     SCC iter.                  ...        2 min, 57.463 sec
     gradient                   ...        4 min,  6.789 sec
 * total energy  : -3427.4847580 Eh     change    :  -0.2406755E-05 Eh
   gradient norm :     0.0039048 Eh/a0  converged?    E=T G=F D=T
   time step     :     0.1512500 fs     power     :   0.2033701E-09
   step length   :     0.0005977 a0     speed     :   0.9559109E-04

........................................................................
.............................. CYCLE   14 ..............................
........................................................................

 iter      E             dE          RMSdq      gap      omega  full diag
   1  -3478.7747003 -0.347877E+04  0.922E-05   11.52       0.0  T
   2  -3478.7747003 -0.203954E-08  0.538E-05   11.52      32.6  T
   3  -3478.7747003 -0.745786E-10  0.126E-05   11.52     139.4  T
     SCC iter.                  ...        3 min,  4.079 sec
     gradient                   ...        4 min,  7.822 sec
 * total energy  : -3427.4847608 Eh     change    :  -0.2812621E-05 Eh
   gradient norm :     0.0035809 Eh/a0  converged?    E=T G=F D=T
   time step     :     0.1663750 fs     power     :   0.2133663E-09
   step length   :     0.0007579 a0     speed     :   0.1101956E-03

........................................................................
.............................. CYCLE   15 ..............................
........................................................................

 iter      E             dE          RMSdq      gap      omega  full diag
   1  -3478.7737852 -0.347877E+04  0.114E-04   11.52       0.0  T
   2  -3478.7737852 -0.282171E-08  0.665E-05   11.52      26.4  T
   3  -3478.7737852 -0.495675E-10  0.150E-05   11.52     116.5  T
     SCC iter.                  ...        2 min, 59.082 sec
     gradient                   ...        4 min,  7.588 sec
 * total energy  : -3427.4847639 Eh     change    :  -0.3147625E-05 Eh
   gradient norm :     0.0032220 Eh/a0  converged?    E=T G=F D=T
   time step     :     0.1830125 fs     power     :   0.2137526E-09
   step length   :     0.0009440 a0     speed     :   0.1247646E-03

........................................................................
.............................. CYCLE   16 ..............................
........................................................................

 iter      E             dE          RMSdq      gap      omega  full diag
   1  -3478.7727456 -0.347877E+04  0.137E-04   11.52       0.0  T
   2  -3478.7727456 -0.389537E-08  0.803E-05   11.52      21.8  T
   3  -3478.7727456 -0.532054E-10  0.174E-05   11.52     101.0  T
     SCC iter.                  ...        2 min, 58.902 sec
     gradient                   ...        4 min,  7.555 sec
 * total energy  : -3427.4847673 Eh     change    :  -0.3349998E-05 Eh
   gradient norm :     0.0028619 Eh/a0  converged?    E=T G=F D=F
   time step     :     0.2013138 fs     power     :   0.2035440E-09
   step length   :     0.0011552 a0     speed     :   0.1388059E-03

........................................................................
.............................. CYCLE   17 ..............................
........................................................................

 iter      E             dE          RMSdq      gap      omega  full diag
   1  -3478.7716333 -0.347877E+04  0.162E-04   11.52       0.0  T
   2  -3478.7716333 -0.491536E-08  0.948E-05   11.52      18.5  T
   3  -3478.7716333 -0.559339E-10  0.191E-05   11.52      91.9  T
     SCC iter.                  ...        2 min, 57.764 sec
     gradient                   ...        4 min,  8.293 sec
 * total energy  : -3427.4847707 Eh     change    :  -0.3432262E-05 Eh
   gradient norm :     0.0025621 Eh/a0  converged?    E=T G=F D=F
   time step     :     0.2214451 fs     power     :   0.1840321E-09
   step length   :     0.0013885 a0     speed     :   0.1516684E-03

........................................................................
.............................. CYCLE   18 ..............................
........................................................................

 iter      E             dE          RMSdq      gap      omega  full diag
   1  -3478.7705499 -0.347877E+04  0.185E-04   11.52       0.0  T
   2  -3478.7705499 -0.531281E-08  0.109E-04   11.52      16.1  T
   3  -3478.7705499 -0.201453E-09  0.195E-05   11.52      89.8  T
     SCC iter.                  ...        3 min,  0.050 sec
     gradient                   ...        4 min, 10.216 sec
 * total energy  : -3427.4847741 Eh     change    :  -0.3382889E-05 Eh
   gradient norm :     0.0023991 Eh/a0  converged?    E=T G=F D=F
   time step     :     0.2435896 fs     power     :   0.1600358E-09
   step length   :     0.0016369 a0     speed     :   0.1625436E-03

........................................................................
.............................. CYCLE   19 ..............................
........................................................................

 iter      E             dE          RMSdq      gap      omega  full diag
   1  -3478.7696559 -0.347877E+04  0.205E-04   11.52       0.0  T
   2  -3478.7696559 -0.492537E-08  0.121E-04   11.52      14.5  T
   3  -3478.7696559 -0.124601E-09  0.182E-05   11.52      96.4  T
     SCC iter.                  ...        2 min, 54.232 sec
     gradient                   ...        4 min,  9.683 sec
 * total energy  : -3427.4847774 Eh     change    :  -0.3268184E-05 Eh
   gradient norm :     0.0024024 Eh/a0  converged?    E=T G=F D=F
   time step     :     0.2679486 fs     power     :   0.1397078E-09
   step length   :     0.0018912 a0     speed     :   0.1707238E-03

........................................................................
.............................. CYCLE   20 ..............................
........................................................................

 iter      E             dE          RMSdq      gap      omega  full diag
   1  -3478.7691507 -0.347877E+04  0.222E-04   11.52       0.0  T
   2  -3478.7691507 -0.389400E-08  0.131E-04   11.52      13.4  T
   3  -3478.7691507 -0.654836E-10  0.155E-05   11.52     113.4  T
     SCC iter.                  ...        2 min, 54.806 sec
     gradient                   ...        4 min,  7.765 sec
 * total energy  : -3427.4847807 Eh     change    :  -0.3341155E-05 Eh
   gradient norm :     0.0024965 Eh/a0  converged?    E=T G=F D=F
   time step     :     0.2947435 fs     power     :   0.1308444E-09
   step length   :     0.0021496 a0     speed     :   0.1764097E-03
 * RMSD in coord.:     0.0005429 a0     energy gain  -0.2766041E-03 Eh

........................................................................
.............................. CYCLE   21 ..............................
........................................................................

 iter      E             dE          RMSdq      gap      omega  full diag
   1  -3478.7691809 -0.347877E+04  0.181E-04   11.52       0.0  T
   2  -3478.7691809 -0.149294E-08  0.107E-04   11.52      16.4  T
   3  -3478.7691809 -0.139153E-09  0.101E-05   11.52     173.5  T
     SCC iter.                  ...        2 min, 58.824 sec
     gradient                   ...        4 min, 10.812 sec
 * total energy  : -3427.4847835 Eh     change    :  -0.2810842E-05 Eh
   gradient norm :     0.0025327 Eh/a0  converged?    E=T G=F D=F
   time step     :     0.2500000 fs     power     :   0.1375858E-09
   step length   :     0.0018398 a0     speed     :   0.1780069E-03

........................................................................
.............................. CYCLE   22 ..............................
........................................................................

 iter      E             dE          RMSdq      gap      omega  full diag
   1  -3478.7696642 -0.347877E+04  0.177E-04   11.52       0.0  T
   2  -3478.7696642 -0.122691E-08  0.104E-04   11.52      16.9  T
   3  -3478.7696642 -0.591172E-11  0.981E-06   11.52     178.5  T
     SCC iter.                  ...        2 min, 59.942 sec
     gradient                   ...        4 min,  8.866 sec
 * total energy  : -3427.4847865 Eh     change    :  -0.2989390E-05 Eh
   gradient norm :     0.0024596 Eh/a0  converged?    E=T G=F D=F
   time step     :     0.2500000 fs     power     :   0.1487856E-09
   step length   :     0.0018613 a0     speed     :   0.1800911E-03

........................................................................
.............................. CYCLE   23 ..............................
........................................................................

 iter      E             dE          RMSdq      gap      omega  full diag
   1  -3478.7705613 -0.347877E+04  0.176E-04   11.52       0.0  T
   2  -3478.7705613 -0.167029E-08  0.103E-04   11.52      17.1  T
   3  -3478.7705613 -0.454747E-10  0.109E-05   11.52     160.8  T
     SCC iter.                  ...        3 min,  0.097 sec
     gradient                   ...        4 min,  9.373 sec
 * total energy  : -3427.4847896 Eh     change    :  -0.3132653E-05 Eh
   gradient norm :     0.0022635 Eh/a0  converged?    E=T G=F D=F
   time step     :     0.2500000 fs     power     :   0.1565025E-09
   step length   :     0.0018955 a0     speed     :   0.1833961E-03

........................................................................
.............................. CYCLE   24 ..............................
........................................................................

 iter      E             dE          RMSdq      gap      omega  full diag
   1  -3478.7718064 -0.347877E+04  0.179E-04   11.52       0.0  T
   2  -3478.7718064 -0.242926E-08  0.103E-04   11.52      16.9  T
   3  -3478.7718064 -0.101409E-09  0.129E-05   11.52     136.3  T
     SCC iter.                  ...        3 min,  3.556 sec
     gradient                   ...        4 min,  9.172 sec
 * total energy  : -3427.4847928 Eh     change    :  -0.3149022E-05 Eh
   gradient norm :     0.0019658 Eh/a0  converged?    E=T G=F D=F
   time step     :     0.2500000 fs     power     :   0.1547302E-09
   step length   :     0.0019415 a0     speed     :   0.1878499E-03

........................................................................
.............................. CYCLE   25 ..............................
........................................................................

 iter      E             dE          RMSdq      gap      omega  full diag
   1  -3478.7733088 -0.347877E+04  0.182E-04   11.52       0.0  T
   2  -3478.7733088 -0.342652E-08  0.105E-04   11.52      16.7  T
   3  -3478.7733088 -0.650289E-10  0.151E-05   11.52     116.0  T
     SCC iter.                  ...        2 min, 58.485 sec
     gradient                   ...        4 min,  8.794 sec
 * total energy  : -3427.4847957 Eh     change    :  -0.2944410E-05 Eh
   gradient norm :     0.0016247 Eh/a0  converged?    E=T G=F D=F
   time step     :     0.2500000 fs     power     :   0.1411174E-09
   step length   :     0.0019936 a0     speed     :   0.1928959E-03

........................................................................
.............................. CYCLE   26 ..............................
........................................................................

 iter      E             dE          RMSdq      gap      omega  full diag
   1  -3478.7751170 -0.347878E+04  0.202E-04   11.52       0.0  T
   2  -3478.7751170 -0.515001E-08  0.116E-04   11.52      15.2  T
   3  -3478.7751170 -0.104137E-09  0.186E-05   11.52      94.4  T
     SCC iter.                  ...        2 min, 57.102 sec
     gradient                   ...        4 min,  7.989 sec
 * total energy  : -3427.4847985 Eh     change    :  -0.2783860E-05 Eh
   gradient norm :     0.0013289 Eh/a0  converged?    E=T G=F D=F
   time step     :     0.2750000 fs     power     :   0.1150467E-09
   step length   :     0.0022564 a0     speed     :   0.1984692E-03

........................................................................
.............................. CYCLE   27 ..............................
........................................................................

 iter      E             dE          RMSdq      gap      omega  full diag
   1  -3478.7770336 -0.347878E+04  0.215E-04   11.52       0.0  T
   2  -3478.7770336 -0.589580E-08  0.123E-04   11.52      14.2  T
   3  -3478.7770336 -0.654836E-10  0.198E-05   11.52      88.7  T
     SCC iter.                  ...        3 min,  5.145 sec
     gradient                   ...        4 min,  7.788 sec
 * total energy  : -3427.4848009 Eh     change    :  -0.2381786E-05 Eh
   gradient norm :     0.0012863 Eh/a0  converged?    E=T G=F D=F
   time step     :     0.3025000 fs     power     :   0.8428263E-10
   step length   :     0.0025317 a0     speed     :   0.2024465E-03

........................................................................
.............................. CYCLE   28 ..............................
........................................................................

 iter      E             dE          RMSdq      gap      omega  full diag
   1  -3478.7787072 -0.347878E+04  0.215E-04   11.52       0.0  T
   2  -3478.7787072 -0.459158E-08  0.123E-04   11.52      14.2  T
   3  -3478.7787072 -0.166438E-09  0.168E-05   11.52     104.1  T
     SCC iter.                  ...        3 min,  2.378 sec
     gradient                   ...        4 min,  7.874 sec
 * total energy  : -3427.4848029 Eh     change    :  -0.2015715E-05 Eh
   gradient norm :     0.0014960 Eh/a0  converged?    E=T G=F D=F
   time step     :     0.3327500 fs     power     :   0.6439459E-10
   step length   :     0.0027713 a0     speed     :   0.2014559E-03

........................................................................
.............................. CYCLE   29 ..............................
........................................................................

 iter      E             dE          RMSdq      gap      omega  full diag
   1  -3478.7798133 -0.347878E+04  0.203E-04   11.52       0.0  T
   2  -3478.7798133 -0.228329E-08  0.117E-04   11.52      14.9  T
   3  -3478.7798133 -0.136879E-09  0.113E-05   11.52     154.6  T
     SCC iter.                  ...        2 min, 59.742 sec
     gradient                   ...        4 min,  8.028 sec
 * total energy  : -3427.4848050 Eh     change    :  -0.2048119E-05 Eh
   gradient norm :     0.0016935 Eh/a0  converged?    E=T G=F D=F
   time step     :     0.3660250 fs     power     :   0.6348761E-10
   step length   :     0.0029746 a0     speed     :   0.1965762E-03

........................................................................
.............................. CYCLE   30 ..............................
........................................................................

 iter      E             dE          RMSdq      gap      omega  full diag
   1  -3478.7801401 -0.347878E+04  0.193E-04   11.52       0.0  T
   2  -3478.7801401 -0.103910E-08  0.112E-04   11.52      15.6  T
   3  -3478.7801401 -0.132331E-09  0.830E-06   11.52     211.1  T
     SCC iter.                  ...        3 min,  3.569 sec
     gradient                   ...        4 min, 20.865 sec
 * total energy  : -3427.4848074 Eh     change    :  -0.2486624E-05 Eh
   gradient norm :     0.0016949 Eh/a0  converged?    E=T G=F D=F
   time step     :     0.4026275 fs     power     :   0.7460575E-10
   step length   :     0.0032017 a0     speed     :   0.1923487E-03

........................................................................
.............................. CYCLE   31 ..............................
........................................................................

 iter      E             dE          RMSdq      gap      omega  full diag
   1  -3478.7795990 -0.347878E+04  0.194E-04   11.52       0.0  T
   2  -3478.7795990 -0.241653E-08  0.114E-04   11.52      15.3  T
   3  -3478.7795990 -0.791260E-10  0.109E-05   11.52     160.5  T
     SCC iter.                  ...        2 min, 56.741 sec
     gradient                   ...        4 min, 10.115 sec
 * total energy  : -3427.4848105 Eh     change    :  -0.3050821E-05 Eh
   gradient norm :     0.0014711 Eh/a0  converged?    E=T G=F D=F
   time step     :     0.4428903 fs     power     :   0.8239506E-10
   step length   :     0.0035063 a0     speed     :   0.1914980E-03

........................................................................
.............................. CYCLE   32 ..............................
........................................................................

 iter      E             dE          RMSdq      gap      omega  full diag
   1  -3478.7783117 -0.347878E+04  0.204E-04   11.52       0.0  T
   2  -3478.7783117 -0.584441E-08  0.121E-04   11.52      14.5  T
   3  -3478.7783117 -0.195541E-09  0.181E-05   11.52      96.6  T
     SCC iter.                  ...        2 min, 58.765 sec
     gradient                   ...        4 min,  8.693 sec
 * total energy  : -3427.4848138 Eh     change    :  -0.3262595E-05 Eh
   gradient norm :     0.0012183 Eh/a0  converged?    E=T G=F D=F
   time step     :     0.4871793 fs     power     :   0.7528936E-10
   step length   :     0.0039058 a0     speed     :   0.1939280E-03

........................................................................
.............................. CYCLE   33 ..............................
........................................................................

 iter      E             dE          RMSdq      gap      omega  full diag
   1  -3478.7768123 -0.347878E+04  0.203E-04   11.52       0.0  T
   2  -3478.7768123 -0.719228E-08  0.121E-04   11.52      14.5  T
   3  -3478.7768123 -0.214186E-09  0.210E-05   11.52      83.5  T
     SCC iter.                  ...        2 min, 57.821 sec
     gradient                   ...        4 min,  7.473 sec
 * total energy  : -3427.4848168 Eh     change    :  -0.3063596E-05 Eh
   gradient norm :     0.0013033 Eh/a0  converged?    E=T G=F D=F
   time step     :     0.5358972 fs     power     :   0.6154429E-10
   step length   :     0.0043597 a0     speed     :   0.1967825E-03

........................................................................
.............................. CYCLE   34 ..............................
........................................................................

 iter      E             dE          RMSdq      gap      omega  full diag
   1  -3478.7759897 -0.347878E+04  0.185E-04   11.52       0.0  T
   2  -3478.7759897 -0.322552E-08  0.110E-04   11.52      15.9  T
   3  -3478.7759897 -0.140517E-09  0.117E-05   11.52     149.9  T
     SCC iter.                  ...        3 min,  9.034 sec
     gradient                   ...        4 min,  8.743 sec
 * total energy  : -3427.4848201 Eh     change    :  -0.3241033E-05 Eh
   gradient norm :     0.0015154 Eh/a0  converged?    E=T G=F D=F
   time step     :     0.5894869 fs     power     :   0.6384692E-10
   step length   :     0.0047962 a0     speed     :   0.1968079E-03

........................................................................
.............................. CYCLE   35 ..............................
........................................................................

 iter      E             dE          RMSdq      gap      omega  full diag
   1  -3478.7764896 -0.347878E+04  0.196E-04   11.52       0.0  T
   2  -3478.7764896 -0.990894E-09  0.115E-04   11.52      15.2  T
   3  -3478.7764896 -0.105047E-09  0.697E-06   11.52     251.4  T
     SCC iter.                  ...        2 min, 57.280 sec
     gradient                   ...        4 min,  7.868 sec
 * total energy  : -3427.4848242 Eh     change    :  -0.4181189E-05 Eh
   gradient norm :     0.0014197 Eh/a0  converged?    E=T G=F D=F
   time step     :     0.6484356 fs     power     :   0.7920577E-10
   step length   :     0.0053090 a0     speed     :   0.1980424E-03

........................................................................
.............................. CYCLE   36 ..............................
........................................................................

 iter      E             dE          RMSdq      gap      omega  full diag
   1  -3478.7784252 -0.347878E+04  0.253E-04   11.52       0.0  T
   2  -3478.7784252 -0.667842E-08  0.146E-04   11.52      12.0  T
   3  -3478.7784252 -0.212822E-09  0.209E-05   11.52      83.8  T
     SCC iter.                  ...        3 min,  0.899 sec
     gradient                   ...        4 min,  6.423 sec
 * total energy  : -3427.4848292 Eh     change    :  -0.4948770E-05 Eh
   gradient norm :     0.0010948 Eh/a0  converged?    E=T G=F D=F
   time step     :     0.7132792 fs     power     :   0.8032438E-10
   step length   :     0.0060202 a0     speed     :   0.2041584E-03

........................................................................
.............................. CYCLE   37 ..............................
........................................................................

 iter      E             dE          RMSdq      gap      omega  full diag
   1  -3478.7808612 -0.347878E+04  0.281E-04   11.52       0.0  T
   2  -3478.7808612 -0.114533E-07  0.163E-04   11.52      10.7  T
   3  -3478.7808612 -0.286946E-09  0.284E-05   11.52      61.6  T
     SCC iter.                  ...        2 min, 58.985 sec
     gradient                   ...        4 min,  6.895 sec
 * total energy  : -3427.4848340 Eh     change    :  -0.4789238E-05 Eh
   gradient norm :     0.0012106 Eh/a0  converged?    E=T G=F D=F
   time step     :     0.7846071 fs     power     :   0.6671235E-10
   step length   :     0.0068941 a0     speed     :   0.2125393E-03

........................................................................
.............................. CYCLE   38 ..............................
........................................................................

 iter      E             dE          RMSdq      gap      omega  full diag
   1  -3478.7819167 -0.347878E+04  0.246E-04   11.52       0.0  T
   2  -3478.7819167 -0.491764E-08  0.145E-04   11.52      12.1  T
   3  -3478.7819167 -0.256478E-09  0.196E-05   11.52      89.3  T
     SCC iter.                  ...        2 min, 58.485 sec
     gradient                   ...        4 min,  6.853 sec
 * total energy  : -3427.4848393 Eh     change    :  -0.5320857E-05 Eh
   gradient norm :     0.0013084 Eh/a0  converged?    E=F G=F D=F
   time step     :     0.8630678 fs     power     :   0.7345226E-10
   step length   :     0.0077450 a0     speed     :   0.2170647E-03

........................................................................
.............................. CYCLE   39 ..............................
........................................................................

 iter      E             dE          RMSdq      gap      omega  full diag
   1  -3478.7808449 -0.347878E+04  0.272E-04   11.52       0.0  T
   2  -3478.7808449 -0.857744E-08  0.158E-04   11.52      11.1  T
   3  -3478.7808449 -0.363798E-09  0.265E-05   11.52      66.0  T
     SCC iter.                  ...        3 min,  4.898 sec
     gradient                   ...        4 min,  8.649 sec
 * total energy  : -3427.4848457 Eh     change    :  -0.6420375E-05 Eh
   gradient norm :     0.0010300 Eh/a0  converged?    E=F G=F D=F
   time step     :     0.9493746 fs     power     :   0.7800695E-10
   step length   :     0.0087987 a0     speed     :   0.2241797E-03

........................................................................
.............................. CYCLE   40 ..............................
........................................................................

 iter      E             dE          RMSdq      gap      omega  full diag
   1  -3478.7792912 -0.347878E+04  0.302E-04   11.52       0.0  T
   2  -3478.7792912 -0.974433E-08  0.175E-04   11.52      10.0  T
   3  -3478.7792912 -0.296495E-09  0.248E-05   11.52      70.6  T
     SCC iter.                  ...        3 min,  5.722 sec
     gradient                   ...        4 min,  8.266 sec
 * total energy  : -3427.4848523 Eh     change    :  -0.6583977E-05 Eh
   gradient norm :     0.0012398 Eh/a0  converged?    E=F G=F D=F
   time step     :     1.0443120 fs     power     :   0.6993307E-10
   step length   :     0.0101148 a0     speed     :   0.2342843E-03

........................................................................
.............................. CYCLE   41 ..............................
........................................................................

 iter      E             dE          RMSdq      gap      omega  full diag
   1  -3478.7802227 -0.347878E+04  0.318E-04   11.52       0.0  T
   2  -3478.7802227 -0.478576E-08  0.185E-04   11.52       9.5  T
   3  -3478.7802227 -0.384716E-09  0.137E-05   11.52     128.0  T
     SCC iter.                  ...        3 min,  2.258 sec
     gradient                   ...        4 min,  8.730 sec
 * total energy  : -3427.4848602 Eh     change    :  -0.7935357E-05 Eh
   gradient norm :     0.0010907 Eh/a0  converged?    E=F G=F D=F
   time step     :     1.1487432 fs     power     :   0.8378703E-10
   step length   :     0.0114828 a0     speed     :   0.2417911E-03

........................................................................
.............................. CYCLE   42 ..............................
........................................................................

 iter      E             dE          RMSdq      gap      omega  full diag
   1  -3478.7826237 -0.347878E+04  0.385E-04   11.52       0.0  T
   2  -3478.7826237 -0.177542E-07  0.225E-04   11.52       7.8  T
   3  -3478.7826237 -0.608907E-09  0.319E-05   11.52      55.0  T
     SCC iter.                  ...        3 min,  0.173 sec
     gradient                   ...        4 min,  8.849 sec
 * total energy  : -3427.4848689 Eh     change    :  -0.8677715E-05 Eh
   gradient norm :     0.0011613 Eh/a0  converged?    E=F G=F D=F
   time step     :     1.2500000 fs     power     :   0.7647446E-10
   step length   :     0.0131529 a0     speed     :   0.2545219E-03
 * RMSD in coord.:     0.0016753 a0     energy gain  -0.8821794E-04 Eh

........................................................................
.............................. CYCLE   43 ..............................
........................................................................

 iter      E             dE          RMSdq      gap      omega  full diag
   1  -3478.7826653 -0.347878E+04  0.595E-05   11.52       0.0  T
   2  -3478.7826653 -0.454747E-10  0.350E-05   11.52      50.1  T
   3  -3478.7826653 -0.777618E-10  0.203E-06   11.52     863.0  T
     SCC iter.                  ...        3 min,  3.938 sec
     gradient                   ...        4 min,  9.592 sec
 * total energy  : -3427.4848706 Eh     change    :  -0.1665159E-05 Eh
   gradient norm :     0.0011782 Eh/a0  converged?    E=T G=F D=F
   time step     :     0.2500000 fs     power     :   0.8668775E-10
   step length   :     0.0025405 a0     speed     :   0.2458081E-03

........................................................................
.............................. CYCLE   44 ..............................
........................................................................

 iter      E             dE          RMSdq      gap      omega  full diag
   1  -3478.7823117 -0.347878E+04  0.590E-05   11.52       0.0  T
   2  -3478.7823117 -0.274213E-09  0.344E-05   11.52      51.0  T
   3  -3478.7823117 -0.736691E-10  0.447E-06   11.52     391.8  T
     SCC iter.                  ...        2 min, 57.263 sec
     gradient                   ...        4 min,  8.169 sec
 * total energy  : -3427.4848724 Eh     change    :  -0.1812251E-05 Eh
   gradient norm :     0.0010908 Eh/a0  converged?    E=T G=F D=F
   time step     :     0.2500000 fs     power     :   0.9486501E-10
   step length   :     0.0024776 a0     speed     :   0.2397202E-03

........................................................................
.............................. CYCLE   45 ..............................
........................................................................

 iter      E             dE          RMSdq      gap      omega  full diag
   1  -3478.7816565 -0.347878E+04  0.688E-05   11.52       0.0  T
   2  -3478.7816565 -0.794444E-09  0.399E-05   11.52      43.9  T
   3  -3478.7816565 -0.727596E-11  0.800E-06   11.52     218.9  T
     SCC iter.                  ...        3 min,  1.689 sec
     gradient                   ...        4 min, 10.356 sec
 * total energy  : -3427.4848743 Eh     change    :  -0.1904690E-05 Eh
   gradient norm :     0.0009553 Eh/a0  converged?    E=T G=T D=F
   time step     :     0.2500000 fs     power     :   0.9686409E-10
   step length   :     0.0024471 a0     speed     :   0.2367739E-03

   *** GEOMETRY OPTIMIZATION CONVERGED AFTER 45 CYCLES ***

------------------------------------------------------------------------
 total energy gain   :        -0.0003702 Eh       -0.2323 kcal/mol
 total RMSD          :         0.0020218 a0        0.0011 Å
 total power (kW/mol):        -0.0215994 (step)   -0.0000 (real)
------------------------------------------------------------------------

 FIRE (total)                  0 d,  5 h, 36 min, 24.836 sec
 setup                          ...        0 min,  0.116 sec (  0.001%)
 velocities                     ...        0 min,  0.003 sec (  0.000%)
 propagation                    ...        0 min,  0.005 sec (  0.000%)
 singlepoint calculation        ...      336 min, 23.977 sec ( 99.996%)
 log and printout               ...        0 min,  0.673 sec (  0.003%)
 preconditioner                 ...        0 min,  0.000 sec (  0.000%)
 model hessian                  ...        0 min,  0.000 sec (  0.000%)
 hessian update                 ...        0 min,  0.000 sec (  0.000%)

================
 final structure:
================
3258
 xtb: 6.6.1 (8d0f1dd)
C          115.44303577928568      104.77457158165920      125.99654727481257
C          114.29738564906714      105.61383414017341      125.44586554038982
C          112.93933800457749      105.26650921820482      126.05688818648864
C          112.45716685149674      103.83885368086951      125.79721027400916
C          112.33895398779032      103.51196230302206      124.31071051369125
C          111.63818595168334      102.17554969269163      124.06615184612835
C          111.87887298477222      101.63850425671973      122.65517435116097
C          111.20390018685224      102.45845149418284      121.55661656239128
C          111.74010992072108      102.08470146371333      120.17698274581764
C          111.03647909581267      102.82985847098718      119.04556599493301
C          111.75183023370214      102.62802790554764      117.71231231412384
C          111.05624241106977      103.33982775036610      116.55547831014235
C          111.83952359996407      103.19481145244256      115.25355934913479
C          111.11184541956867      103.82099082018034      114.06825600496741
C          111.93135386108052      103.74580175320844      112.78264395910432
C          111.15627017620839      104.29187515567614      111.58720669948862
C          111.94982813155869      104.27324747293008      110.28179843526023
C          113.13569996210957      105.23673794389097      110.29357847969364
C          113.66296051950984      105.51394904353241      108.88753372218314
C          114.97836236798479      106.29186045583668      108.88591428816930
C          114.89195811783580      107.62829064792122      109.61929050090892
C          116.15476031402996      108.46300703981666      109.42906745156036
C          116.12942056218586      109.73673962834710      110.26784999863874
C          117.36232787592093      110.60574930604650      110.03362799615991
C          117.42679171126349      111.76156682374105      111.02681871104451
C          118.54787478703390      112.76023315915349      110.74457156991254
C          119.94623119166570      112.17847579378117      110.93880945723822
C          121.02642242625772      113.24406666679694      110.77535127053099
C          122.43337537798350      112.67449504098727      110.93329148487753
C          123.50397845287833      113.74680219786522      110.75001008178292
C          124.92244387251120      113.20175784222644      110.91044780212832
C          125.99483134508067      114.19331859972455      110.45771682450133
C          125.96968556940425      115.50209396612310      111.24004209190049
C          127.07006044141933      116.46287473909450      110.79410229062859
C          126.92940806646865      117.85447680403530      111.41621073419208
C          125.77521309602143      118.65680307973960      110.81801298013279
C          125.63607370363574      120.03600297591822      111.45681997439765
C          124.43907672002901      120.82124463130162      110.91736455101329
C          124.65359155899881      121.36128215575472      109.50456074943361
C          123.44836521664877      122.14342361960770      108.97295577169847
C          122.31766318186675      121.24190517003197      108.47876325265227
C          121.13914374693826      122.04563352159840      107.93080591308915
C          119.98949861572370      121.18030858618040      107.40838156871800
C          120.38077598660674      120.29258735171251      106.22794879043579
C          119.18407873329542      119.54457285218403      105.64242066587744
C          119.61706615024576      118.45186355344688      104.66539152073051
C          118.42395866253169      117.77245165136227      103.99764657762495
C          118.80933448423173      116.53656096973808      103.18351733075113
C          117.60160316972687      116.00034393696200      102.41673652638100
C          117.81474451499328      114.64153494214035      101.74679229629265
C          117.83193009016109      113.48073745784191      102.74312094671704
C          117.56404835120432      112.12716466922807      102.08247342421120
C          117.33237248975807      111.00315525749899      103.09771479197121
C          118.61840011276070      110.47058876411683      103.72917261024685
C          118.34595361051049      109.63667516300555      104.98072843187114
C          119.63772557891588      109.16337862157368      105.64356272739070
C          119.42296206872143      108.60193111365837      107.04811799689242
C          120.75976005463453      108.32506187307024      107.73361819514602
C          120.64752435535495      107.82597714698468      109.17491571583811
C          119.91240951933227      106.49497579591149      109.33679244166559
C          120.52834059934970      105.37452276475241      108.50485960678994
C          119.94381372316094      103.99508534431222      108.80730120673157
C          118.42672821383714      103.88293316819960      108.63920892522951
C          117.89347564912127      104.30140765252901      107.26779064755078
C          118.41239336063576      103.43105594932020      106.11399992355072
C          119.22992915165607      104.19346594781048      105.07140187000941
C          118.38399399468241      105.15473091408666      104.24080561229414
C          119.16208220373936      105.72439188728825      103.05830107853423
C          118.28276652163218      106.58894224376238      102.16082426515585
C          119.04940938898463      107.15205296505030      100.96794571296294
C          118.15304943953956      107.99665962912124      100.06762057364438
C          118.91161315799295      108.58545815772393       98.88155874204442
C          118.01960044868397      109.35761286404825       97.90920883941489
C          117.41910180963312      110.62512367171273       98.51170112729193
C          116.46816341828421      111.32489309034943       97.54461537394479
C          115.83564905285614      112.56355884905062       98.17206413999151
C          114.82881648232691      113.23917081561541       97.24381035789260
C          113.98837946283759      114.30988557839731       97.94300520250228
C          114.79844846493957      115.41272660906741       98.62416333003785
C          115.66360362040653      116.21611499861335       97.65834633819645
C          116.46014048487622      117.30218587297807       98.37581499445587
C          117.34713320427966      118.07585981786440       97.40446337870668
C          118.04612553113947      119.27719565580944       98.03732966545533
C          119.03816923704888      118.90964089091204       99.13985252745712
C          119.84311312140700      120.13486316810605       99.56611670246797
C          120.71668293499663      119.91331295224533      100.79903452309331
C          121.87335659138739      118.93850695434250      100.57960773202279
C          122.89262318354359      119.04058593854987      101.71345315032960
C          124.11454288121574      118.13898247917702      101.53575626195509
C          123.83612639294341      116.66617649126486      101.82738673836043
C          125.12116215007269      115.83986113661527      101.83436391098698
C          124.85257069225351      114.36367747590958      102.11311302438703
C          126.12960958262548      113.52541675940856      102.13134655027207
C          125.82205169945691      112.05275723848936      102.38921607546199
C          127.06163970619730      111.16140700404755      102.37698787581463
C          126.68737552546359      109.69466870675879      102.58084350834773
C          127.90292854559384      108.77151552725013      102.58655982154569
C          127.54483813200686      107.30580947060997      102.84715342892240
C          126.71690899381905      106.64019002927674      101.74591432264830
C          127.48279125489030      106.43928704440778      100.44006677149524
C          126.59322675721664      105.86456816062180       99.33921128640236
C          127.36193151515992      105.64436202886404       98.03798436150690
C          126.45475028980101      105.34096797384430       96.84459242327013
C          125.68258601304322      104.03076145601196       96.99215690380751
C          125.04115930575078      103.55814655398413       95.68642822210811
C          123.93138009738263      104.47700969198613       95.17822919946080
C          123.31622823530594      103.94891976118433       93.88291232718909
C          122.10685993576256      104.75593235974061       93.40835065211307
C          122.45387725511011      106.18188666709682       92.98402802212817
C          121.28918688448597      106.90641524508052       92.30547203291628
C          120.06445153104116      107.02351130567750       93.20924277417923
C          119.01780907713577      108.00451102494618       92.68278523013133
C          117.84259614529897      108.09289776972730       93.65214446095177
C          116.71739529502389      109.02504426537419       93.20696675536520
C          115.61302255192645      109.04240435484756       94.26138863142370
C          114.43145383220039      109.94987378916670       93.93085482248098
C          113.39377844109966      109.90812979486617       95.05196165720677
C          112.16018248859103      110.75885933074099       94.76508901424980
C          111.16213260149473      110.71211334009867       95.92075462699530
C          109.93142958723246      111.56813259402442       95.65044513496616
H          110.85442759269856      109.67706905510425       96.08767910603336
H          111.65219227241764      111.06189733071778       96.83307227808977
H          112.46632387862290      111.79375417647536       94.59298679881715
H          111.67497994982773      110.40149358736619       93.85372067106223
H          113.08479647522742      108.87257866081879       95.21650847334321
H          113.85752127320281      110.25613185162699       95.97809748188175
H          114.78217923736150      110.97522979503918       93.79448364619063
H          113.97112780369935      109.62905377427093       92.99314384594166
H          115.24215476937221      108.02271290403976       94.39525660165441
H          116.04777665024763      109.36291020824150       95.21112233171796
H          117.10568623335791      110.03570653616028       93.06345910926206
H          116.31309886799471      108.68777202591571       92.24959151820953
H          117.43275496228388      107.09048242989954       93.79096686486258
H          118.21131842338259      108.42696807730698       94.62553823293914
H          119.46891220583120      108.99180710383040       92.55856822859410
H          118.66514755830728      107.67481052415859       91.70280495039269
H          119.59986432311791      106.04181600368037       93.31687433388760
H          120.38593688738651      107.34729395944676       94.20141458832101
H          121.62070810967687      107.90942926824630       92.02462398186141
H          121.01535284885958      106.38139743099488       91.38746753820459
H          122.76058900751524      106.75729825240894       93.85928346952714
H          123.29925125233218      106.15051110520066       92.29205426323884
H          121.65517079495461      104.23877945444984       92.55831122260517
H          121.36934236202724      104.78569697304215       94.21244144788332
H          124.07770377009865      103.94227040481238       93.09931161283929
H          122.99992863321127      102.91441306665845       94.04161426499445
H          123.15174927025612      104.55781923213908       95.93997367121146
H          124.33877321116930      105.47297191838275       95.00431137478304
H          125.81446727195772      103.47319887407161       94.91883321177667
H          124.62507730432485      102.55953694029765       95.84435886387544
H          126.37144893803719      103.25556535754244       97.33694573349305
H          124.90703060312646      104.14547324967668       97.75160202262474
H          125.75498454439217      106.16892558237778       96.71534905449741
H          127.07316876767233      105.28460951599303       95.94510753285175
H          127.93631333101207      106.54717795692764       97.81291257841303
H          128.07549434005497      104.82746325197094       98.17026562308082
H          126.16257455964245      104.92073730717800       99.67835318965216
H          125.77074411174058      106.55804021705586       99.14898656115288
H          127.88649301422707      107.39452272324252      100.09976415104802
H          128.32655856582451      105.76771450674939      100.61643639010911
H          126.38291753218341      105.66353051831102      102.10718976455678
H          125.82318297233610      107.23607708260862      101.55213818643800
H          128.46876267437719      106.73735358082084      102.98003403267671
H          126.98561334553953      107.24973191816729      103.78446639685798
H          128.43349411896705      108.86261919843380      101.63740195218328
H          128.58812625562348      109.10084625398426      103.37217102698219
H          126.15806288996365      109.58806261196550      103.53012817556001
H          126.00144788286890      109.39838434320029      101.78571022591564
H          127.58038049406582      111.27370482138359      101.42180902841244
H          127.74959875610634      111.47684283304505      103.16457785136647
H          125.32675316189108      111.96131873475191      103.35879592101097
H          125.12610274636333      111.69805122560581      101.62534059158648
H          126.64330790136219      113.62805909630731      101.17264043102804
H          126.80152062847999      113.90148182477027      102.90668696251551
H          124.34385246675252      114.26529999690915      103.07582161409539
H          124.18153668844062      113.97273663793038      101.34417771150206
H          125.61970580533983      115.93997019423105      100.86733968609103
H          125.79830296969749      116.23443598607693      102.59617331124029
H          123.34857801723216      116.57828723227296      102.80190190438661
H          123.15126625767863      116.26284624767948      101.07884779947419
H          124.49776790229238      118.24322171726031      100.51822019902862
H          124.90008625830411      118.48194292749234      102.21408021559976
H          123.23303885091734      120.07713402454898      101.77326300215807
H          122.40588241132006      118.80047742130037      102.66249662512833
H          121.49157407550365      117.91902861152722      100.51096938926942
H          122.36922286873522      119.17495228815702       99.63507419095367
H          121.13183759672738      120.87979504153503      101.09626441016323
H          120.09283119525624      119.55477541809377      101.62096916427923
H          120.47195495395796      120.46129567593934       98.73397487698975
H          119.14364296391861      120.94544242114270       99.78433488179982
H          118.50098474524468      118.51668819400122      100.00467727798515
H          119.71003554108214      118.12939378639145       98.77736538417149
H          118.58224139776316      119.81755674967624       97.25240563064673
H          117.29314738381773      119.95630361425144       98.44534993751911
H          118.09805544303426      117.39962884786375       96.98950872270254
H          116.73137764851215      118.43143783440594       96.57368402289252
H          115.77268756227645      117.99123742514450       98.87025237321292
H          117.07892125407346      116.83728381878703       99.14584419402181
H          116.36343228934120      115.55378979680412       97.14680471036660
H          115.02621859828329      116.67306665332772       96.89697994798152
H          114.10474293108680      116.09171586612889       99.12401605803265
H          115.43263153028130      114.97547259570599       99.39765791321075
H          113.32026858820457      114.76371179764998       97.20666714942857
H          113.36408948740721      113.82503758928844       98.69794529867073
H          115.35236121613225      113.67495703718436       96.39097903790410
H          114.14781554135686      112.48145648130580       96.84857496670945
H          115.32482907831410      112.27250211701163       99.09332671925151
H          116.62760288515587      113.26509126572549       98.44062825489985
H          117.00275359916333      111.60609590550455       96.63469444631544
H          115.67830193052174      110.62512282838409       97.26016769273740
H          116.86543051883702      110.37132882675296       99.41688335350246
H          118.22071542646397      111.31106134562587       98.79495574799249
H          118.61119327158934      109.62992353862460       97.03041001571322
H          117.21095176950369      108.70476263910260       97.57332386119738
H          119.69923412920336      109.24544837962578       99.25188258891777
H          119.39696929607304      107.77101365438102       98.33836561711372
H          117.33488172555217      107.37461074831093       99.69668962520662
H          117.71759658287999      108.80076706645028      100.66321475896893
H          119.87914763259873      107.76403912098155      101.33024704077377
H          119.47866147375424      106.32983232926601      100.39080158997429
H          117.44190704520902      105.99071331901877      101.79977312322730
H          117.87101357554221      107.41428560917950      102.74570256788704
H          120.00220525285431      106.31890187709040      103.42622984473257
H          119.57580253112596      104.90230906800586      102.46957254510572
H          117.50624036281856      104.62436093598039      103.86489401745514
H          118.02899684288377      105.97675060008439      104.86534348167959
H          120.03961114081437      104.74237632897329      105.55628971818356
H          119.69433887237592      103.46911801360434      104.39792001253774
H          119.02812187476376      102.62617058761215      106.52055902203855
H          117.57223628458475      102.95907025820928      105.60395697005093
H          116.80328158953893      104.24770134975452      107.30517489322770
H          118.15175322534058      105.34464123064738      107.08935174440576
H          118.13807689614471      102.84453838463592      108.82665275124644
H          117.93890696524893      104.49335430983740      109.40260499664539
H          120.43695777833383      103.26773253845056      108.15776368683503
H          120.18558120454692      103.72627267202996      109.83798298776907
H          120.39218027779231      105.59503831428616      107.44755513061172
H          121.60453016724141      105.33967173371825      108.69307154801653
H          119.93892000807115      106.21276851760560      110.39228785086311
H          118.86624035294037      106.62731145385527      109.05923814256981
H          121.65971775215969      107.71993222030690      109.57507653990773
H          120.13492584283780      108.58314370334695      109.77508723192365
H          121.32246156360854      107.60010699303623      107.14427790891212
H          121.33952532701564      109.25316796783387      107.74353041217523
H          118.85616712220200      109.32130294073676      107.64349283784203
H          118.83231716624445      107.68664786598467      106.98713144268393
H          120.11334540789966      108.40552531166902      105.01771026783882
H          120.32372930188387      110.00934939313542      105.71482192848457
H          117.78372681304818      110.24726268802702      105.69141000280898
H          117.72386950233255      108.77638104020468      104.72427446713064
H          119.16293590797260      109.87022733346213      102.99746391428395
H          119.25798637320257      111.31071417232923      104.00628678901197
H          116.67411006944597      111.37500605474767      103.88804279729656
H          116.81307867327051      110.17605686909685      102.60589861663927
H          116.66946772773004      112.22124505737179      101.46231865077893
H          118.39254347225821      111.85930562946005      101.42354077002067
H          118.79053376447716      113.45972964702339      103.26318287562464
H          117.05263247952362      113.65851161210185      103.48830832833963
H          116.99240043740241      114.47846308314216      101.04434453832296
H          118.74122869026198      114.65870890847042      101.16899464379919
H          116.76102500846746      115.91691565307184      103.10759245762307
H          117.32439817605750      116.73188394810767      101.65202679364525
H          119.60854525931735      116.78873110319121      102.48217637561271
H          119.19008163500079      115.76754116097379      103.85825399735762
H          117.70540001612079      117.47831715694439      104.76654293320499
H          117.92186466246361      118.49209823969440      103.34552873727763
H          120.26538673027368      118.88480635318605      103.89946795028371
H          120.20447117567186      117.70332373827522      105.20366998375746
H          118.61355231310414      119.08805514617862      106.45467923888286
H          118.52470815674428      120.24934357757503      105.13156079067048
H          120.83871379062367      120.90870222600833      105.45265601735321
H          121.11960353397954      119.55878015331476      106.55099092759309
H          119.61217640974512      120.55370791522596      108.22083688464505
H          119.17339255731903      121.83852918576787      107.09932928016940
H          120.75660990326898      122.69532209973750      108.72273455079299
H          121.49332590659540      122.69207094601035      107.12379964860189
H          122.71306257940208      120.59863573520656      107.69087177423506
H          121.96872959695082      120.60113203147016      109.29121673113079
H          123.07475913783645      122.80827481142808      109.75560586358611
H          123.77494860915182      122.77349752878560      108.14123143772453
H          125.52582908088316      122.01959217840817      109.51544660241539
H          124.87100095878961      120.53804087564855      108.82217995928228
H          123.56011755713983      120.17475485877951      110.93695082431623
H          124.24594264356870      121.66650470862079      111.58177890393554
H          125.51464512189550      119.90696759617505      112.53566892228677
H          126.55175254678353      120.60981282870283      111.29615274081569
H          125.94109835286774      118.76449249759233      109.74481170726962
H          124.83667094475624      118.11657522400223      110.95761065678197
H          126.78451838225000      117.75604233229522      112.49505871087788
H          127.85731240408036      118.40994023445161      111.25992422294763
H          128.04068553249596      116.04215678943007      111.06751855491586
H          127.04956502743364      116.55585673126559      109.70512352156648
H          125.00036273470005      115.97758325692539      111.09341433181950
H          126.08427634706703      115.28738635483914      112.30461424741776
H          126.97726883580783      113.72787099474041      110.56760708519009
H          125.85129733585389      114.41643922742364      109.39785733480215
H          125.09519009151084      112.93353960666722      111.95447196246559
H          125.02243301726628      112.29066656625130      110.31438189636633
H          123.40487870024668      114.18563549793873      109.75511134868930
H          123.32915307042869      114.53990695226409      111.47832622953987
[...]
  3011   6 C     3012   6 C                                       1.5263957
  3012   6 C     3013   6 C                                       1.5268289
  3013   6 C     3014   6 C                                       1.5269590
  3014   6 C     3015   6 C                                       1.5281467
  3015   6 C     3016   6 C                                       1.5236811
  3015   6 C     3017   1 H                                       1.0911874
  3015   6 C     3018   1 H                                       1.0934651
  3014   6 C     3019   1 H                                       1.0934646
  3014   6 C     3020   1 H                                       1.0927265
  3013   6 C     3021   1 H                                       1.0910071
  3013   6 C     3022   1 H                                       1.0933047
  3012   6 C     3023   1 H                                       1.0937691
  3012   6 C     3024   1 H                                       1.0927106
  3011   6 C     3025   1 H                                       1.0928877
  3011   6 C     3026   1 H                                       1.0916059
  3010   6 C     3027   1 H                                       1.0912649
  3010   6 C     3028   1 H                                       1.0922022
  3009   6 C     3029   1 H                                       1.0928020
  3009   6 C     3030   1 H                                       1.0927064
  3008   6 C     3031   1 H                                       1.0922476
  3008   6 C     3032   1 H                                       1.0930679
  3007   6 C     3033   1 H                                       1.0929713
  3007   6 C     3034   1 H                                       1.0906430
  3006   6 C     3035   1 H                                       1.0918636
  3006   6 C     3036   1 H                                       1.0938508
  3005   6 C     3037   1 H                                       1.0929643
  3005   6 C     3038   1 H                                       1.0914372
  3004   6 C     3039   1 H                                       1.0923527
  3004   6 C     3040   1 H                                       1.0933586
  3003   6 C     3041   1 H                                       1.0920065
  3003   6 C     3042   1 H                                       1.0920992
  3002   6 C     3043   1 H                                       1.0914505
  3002   6 C     3044   1 H                                       1.0920949
  3001   6 C     3045   1 H                                       1.0926123
  3001   6 C     3046   1 H                                       1.0921435
  3000   6 C     3047   1 H                                       1.0911383
  3000   6 C     3048   1 H                                       1.0905820
  2999   6 C     3049   1 H                                       1.0926117
  2999   6 C     3050   1 H                                       1.0924558
  2998   6 C     3051   1 H                                       1.0906242
  2998   6 C     3052   1 H                                       1.0915516
  2997   6 C     3053   1 H                                       1.0924178
  2997   6 C     3054   1 H                                       1.0919581
  2996   6 C     3055   1 H                                       1.0932970
  2996   6 C     3056   1 H                                       1.0926674
  2995   6 C     3057   1 H                                       1.0918259
  2995   6 C     3058   1 H                                       1.0912179
  2994   6 C     3059   1 H                                       1.0922011
  2994   6 C     3060   1 H                                       1.0932932
  2993   6 C     3061   1 H                                       1.0934566
  2993   6 C     3062   1 H                                       1.0932675
  2992   6 C     3063   1 H                                       1.0895770
  2992   6 C     3064   1 H                                       1.0921592
  2991   6 C     3065   1 H                                       1.0930616
  2991   6 C     3066   1 H                                       1.0912984
  2990   6 C     3067   1 H                                       1.0926136
  2990   6 C     3068   1 H                                       1.0921462
  2989   6 C     3069   1 H                                       1.0921143
  2989   6 C     3070   1 H                                       1.0938213
  2988   6 C     3071   1 H                                       1.0913066
  2988   6 C     3072   1 H                                       1.0909816
  2987   6 C     3073   1 H                                       1.0930448
  2987   6 C     3074   1 H                                       1.0922951
  2986   6 C     3075   1 H                                       1.0911044
  2986   6 C     3076   1 H                                       1.0921617
  2985   6 C     3077   1 H                                       1.0935647
  2985   6 C     3078   1 H                                       1.0922812
  2984   6 C     3079   1 H                                       1.0926278
  2984   6 C     3080   1 H                                       1.0927125
  2983   6 C     3081   1 H                                       1.0927567
  2983   6 C     3082   1 H                                       1.0909284
  2982   6 C     3083   1 H                                       1.0929896
  2982   6 C     3084   1 H                                       1.0927892
  2981   6 C     3085   1 H                                       1.0920314
  2981   6 C     3086   1 H                                       1.0920406
  2980   6 C     3087   1 H                                       1.0932778
  2980   6 C     3088   1 H                                       1.0925715
  2979   6 C     3089   1 H                                       1.0910932
  2979   6 C     3090   1 H                                       1.0918059
  2978   6 C     3091   1 H                                       1.0925745
  2978   6 C     3092   1 H                                       1.0925319
  2977   6 C     3093   1 H                                       1.0903195
  2977   6 C     3094   1 H                                       1.0915082
  2976   6 C     3095   1 H                                       1.0934480
  2976   6 C     3096   1 H                                       1.0930100
  2975   6 C     3097   1 H                                       1.0921569
  2975   6 C     3098   1 H                                       1.0918487
  2974   6 C     3099   1 H                                       1.0924757
  2974   6 C     3100   1 H                                       1.0932153
  2973   6 C     3101   1 H                                       1.0925733
  2973   6 C     3102   1 H                                       1.0924967
  2972   6 C     3103   1 H                                       1.0923607
  2972   6 C     3104   1 H                                       1.0928386
  2971   6 C     3105   1 H                                       1.0928194
  2971   6 C     3106   1 H                                       1.0924897
  2970   6 C     3107   1 H                                       1.0927767
  2970   6 C     3108   1 H                                       1.0927107
  2969   6 C     3109   1 H                                       1.0911974
  2969   6 C     3110   1 H                                       1.0924786
  2968   6 C     3111   1 H                                       1.0933821
  2968   6 C     3112   1 H                                       1.0913897
  2967   6 C     3113   1 H                                       1.0928741
  2967   6 C     3114   1 H                                       1.0933555
  2966   6 C     3115   1 H                                       1.0892511
  2966   6 C     3116   1 H                                       1.0931659
  2965   6 C     3117   1 H                                       1.0922460
  2965   6 C     3118   1 H                                       1.0903094
  2964   6 C     3119   1 H                                       1.0920591
  2964   6 C     3120   1 H                                       1.0920224
  2963   6 C     3121   1 H                                       1.0931550
  2963   6 C     3122   1 H                                       1.0934347
  2962   6 C     3123   1 H                                       1.0909644
  2962   6 C     3124   1 H                                       1.0923130
  2961   6 C     3125   1 H                                       1.0919709
  2961   6 C     3126   1 H                                       1.0937422
  2960   6 C     3127   1 H                                       1.0937594
  2960   6 C     3128   1 H                                       1.0923524
  2959   6 C     3129   1 H                                       1.0918477
  2959   6 C     3130   1 H                                       1.0937681
  2958   6 C     3131   1 H                                       1.0932176
  2958   6 C     3132   1 H                                       1.0927250
  2957   6 C     3133   1 H                                       1.0928150
  2957   6 C     3134   1 H                                       1.0930345
  2956   6 C     3135   1 H                                       1.0927367
  2956   6 C     3136   1 H                                       1.0929938
  2955   6 C     3137   1 H                                       1.0926813
  2955   6 C     3138   1 H                                       1.0921773
  2954   6 C     3139   1 H                                       1.0923676
  2954   6 C     3140   1 H                                       1.0929289
  2953   6 C     3141   1 H                                       1.0926042
  2953   6 C     3142   1 H                                       1.0922196
  2952   6 C     3143   1 H                                       1.0924513
  2952   6 C     3144   1 H                                       1.0919180
  2951   6 C     3145   1 H                                       1.0922496
  2951   6 C     3146   1 H                                       1.0925255
  2950   6 C     3147   1 H                                       1.0924071
  2950   6 C     3148   1 H                                       1.0919590
  2949   6 C     3149   1 H                                       1.0919971
  2949   6 C     3150   1 H                                       1.0928532
  2948   6 C     3151   1 H                                       1.0914215
  2948   6 C     3152   1 H                                       1.0927257
  2947   6 C     3153   1 H                                       1.0933389
  2947   6 C     3154   1 H                                       1.0918852
  2946   6 C     3155   1 H                                       1.0934934
  2946   6 C     3156   1 H                                       1.0935280
  2945   6 C     3157   1 H                                       1.0903472
  2945   6 C     3158   1 H                                       1.0932668
  2944   6 C     3159   1 H                                       1.0915556
  2944   6 C     3160   1 H                                       1.0917911
  2943   6 C     3161   1 H                                       1.0933390
  2943   6 C     3162   1 H                                       1.0929554
  2942   6 C     3163   1 H                                       1.0920681
  2942   6 C     3164   1 H                                       1.0910399
  2941   6 C     3165   1 H                                       1.0906265
  2941   6 C     3166   1 H                                       1.0931013
  2940   6 C     3167   1 H                                       1.0940907
  2940   6 C     3168   1 H                                       1.0910153
  2939   6 C     3169   1 H                                       1.0909374
  2939   6 C     3170   1 H                                       1.0923500
  2938   6 C     3171   1 H                                       1.0910616
  2938   6 C     3172   1 H                                       1.0924268
  2937   6 C     3173   1 H                                       1.0936262
  2937   6 C     3174   1 H                                       1.0929025
  2936   6 C     3175   1 H                                       1.0927977
  2936   6 C     3176   1 H                                       1.0930925
  2935   6 C     3177   1 H                                       1.0924023
  2935   6 C     3178   1 H                                       1.0915492
  2934   6 C     3179   1 H                                       1.0923462
  2934   6 C     3180   1 H                                       1.0936263
  2933   6 C     3181   1 H                                       1.0939805
  2933   6 C     3182   1 H                                       1.0914492
  2932   6 C     3183   1 H                                       1.0913875
  2932   6 C     3184   1 H                                       1.0924669
  2931   6 C     3185   1 H                                       1.0926125
  2931   6 C     3186   1 H                                       1.0929944
  2930   6 C     3187   1 H                                       1.0925680
  2930   6 C     3188   1 H                                       1.0926662
  2929   6 C     3189   1 H                                       1.0925297
  2929   6 C     3190   1 H                                       1.0927760
  2928   6 C     3191   1 H                                       1.0928817
  2928   6 C     3192   1 H                                       1.0934378
  2927   6 C     3193   1 H                                       1.0929133
  2927   6 C     3194   1 H                                       1.0900564
  2926   6 C     3195   1 H                                       1.0915962
  2926   6 C     3196   1 H                                       1.0920246
  2925   6 C     3197   1 H                                       1.0937818
  2925   6 C     3198   1 H                                       1.0931019
  2924   6 C     3199   1 H                                       1.0929162
  2924   6 C     3200   1 H                                       1.0930547
  2923   6 C     3201   1 H                                       1.0913455
  2923   6 C     3202   1 H                                       1.0898607
  2922   6 C     3203   1 H                                       1.0931615
  2922   6 C     3204   1 H                                       1.0926450
  2921   6 C     3205   1 H                                       1.0927725
  2921   6 C     3206   1 H                                       1.0928637
  2920   6 C     3207   1 H                                       1.0896062
  2920   6 C     3208   1 H                                       1.0931746
  2919   6 C     3209   1 H                                       1.0935466
  2919   6 C     3210   1 H                                       1.0932836
  2918   6 C     3211   1 H                                       1.0921118
  2918   6 C     3212   1 H                                       1.0934753
  2917   6 C     3213   1 H                                       1.0909271
  2917   6 C     3214   1 H                                       1.0912415
  2916   6 C     3215   1 H                                       1.0918374
  2916   6 C     3216   1 H                                       1.0922567
  2915   6 C     3217   1 H                                       1.0921483
  2915   6 C     3218   1 H                                       1.0935155
  2914   6 C     3219   1 H                                       1.0932662
  2914   6 C     3220   1 H                                       1.0925850
  2913   6 C     3221   1 H                                       1.0921303
  2913   6 C     3222   1 H                                       1.0930176
  2912   6 C     3223   1 H                                       1.0913314
  2912   6 C     3224   1 H                                       1.0931340
  2911   6 C     3225   1 H                                       1.0930736
  2911   6 C     3226   1 H                                       1.0930246
  2910   6 C     3227   1 H                                       1.0928862
  2910   6 C     3228   1 H                                       1.0919840
  2909   6 C     3229   1 H                                       1.0928921
  2909   6 C     3230   1 H                                       1.0909443
  2908   6 C     3231   1 H                                       1.0941651
  2908   6 C     3232   1 H                                       1.0911332
  2907   6 C     3233   1 H                                       1.0920859
  2907   6 C     3234   1 H                                       1.0924172
  2906   6 C     3235   1 H                                       1.0917437
  2906   6 C     3236   1 H                                       1.0922683
  2905   6 C     3237   1 H                                       1.0931287
  2905   6 C     3238   1 H                                       1.0931259
  2904   6 C     3239   1 H                                       1.0931160
  2904   6 C     3240   1 H                                       1.0923152
  2903   6 C     3241   1 H                                       1.0925984
  2903   6 C     3242   1 H                                       1.0911481
  2902   6 C     3243   1 H                                       1.0929090
  2902   6 C     3244   1 H                                       1.0931355
  2901   6 C     3245   1 H                                       1.0932947
  2901   6 C     3246   1 H                                       1.0924840
  2900   6 C     3247   1 H                                       1.0918130
  2900   6 C     3248   1 H                                       1.0928787
  2899   6 C     3249   1 H                                       1.0929892
  2899   6 C     3250   1 H                                       1.0929023
  2898   6 C     3251   1 H                                       1.0921713
  2898   6 C     3252   1 H                                       1.0926003
  2897   6 C     3253   1 H                                       1.0881380
  2897   6 C     3254   1 H                                       1.0879859
  2897   6 C     3255   1 H                                       1.0884414
  3016   6 C     3256   1 H                                       1.0878249
  3016   6 C     3257   1 H                                       1.0881019
  3016   6 C     3258   1 H                                       1.0868257

 * 2 distinct bonds (by element types)

   Z      Z             #   av. dist./Å        max./Å        min./Å
   1 H    6 C        2178     1.0922604     1.0943594     1.0863084
   6 C    6 C        1071     1.5275498     1.5360188     1.5230118


optimized geometry written to: xtbopt.xyz


           -------------------------------------------------
          | TOTAL ENERGY            -3427.484874303791 Eh   |
          | GRADIENT NORM               0.000955939967 Eh/α |
          | HOMO-LUMO GAP              11.518474497354 eV   |
           -------------------------------------------------

------------------------------------------------------------------------
 * finished run on 2024/10/04 at 03:20:56.232     
------------------------------------------------------------------------
 total:
 * wall-time:     0 d,  5 h, 59 min, 32.562 sec
 *  cpu-time:     1 d,  5 h, 43 min,  9.892 sec
 * ratio c/w:     4.960 speedup
 SCF:
 * wall-time:     0 d,  0 h, 14 min, 54.371 sec
 *  cpu-time:     0 d,  1 h, 32 min, 49.748 sec
 * ratio c/w:     6.228 speedup
 ANC optimizer:
 * wall-time:     0 d,  5 h, 43 min, 56.050 sec
 *  cpu-time:     1 d,  4 h,  9 min, 23.220 sec
 * ratio c/w:     4.912 speedup

