3795
 energy: -5103.665138134839 gnorm: 0.000908370388 xtb: 6.6.1 (8d0f1dd)
C          104.95851411921113      116.19617301640481      113.28068240399999
C          104.65675692473995      115.65251385496180      114.65916665554803
C          105.12927959852964      117.71152132444720      113.26595500817041
C          105.34503146002125      118.25623365987049      111.85823092310372
H          104.24533096451778      118.17588294008284      113.70651291161874
H          105.98365970871701      117.97015364806704      113.89209095245317
C          104.06394523884404      118.27421231236070      111.02909213341430
H          105.71485324523510      119.28105316658659      111.91749644399833
H          106.10217639453219      117.65372064777704      111.35562758760716
C          104.24931576983317      119.05394266484758      109.73602846096531
H          103.72949066903743      117.26574616650539      110.79735908437661
H          103.28033214575187      118.77393529858118      111.60559932221587
N          103.65603179876854      118.48371176823694      108.68051288151462
O          104.77783809008446      116.54892934686953      115.61477687204130
O          104.34552645337546      114.49619025676638      114.86419772817636
H          104.43221272154707      116.21468755004143      116.50065322790455
H          104.14463335011436      115.88510983520247      112.62378126737200
H          105.86467380771640      115.70088644853104      112.92184875881601
C          103.67544509287639      119.02368351359867      107.34364730696444
H          103.22918943942345      117.56890848846436      108.79868779116349
C          104.38101172667490      118.09914457802310      106.35321617160672
H          102.64553174243999      119.18467736275014      107.00731340858565
H          104.18432674223908      119.98827348585547      107.38225012758528
C          104.27748037294479      118.67526293325814      104.94581981562648
H          105.42755050558459      117.99688620322827      106.64134307999562
H          103.91745150619002      117.11218392816227      106.39289739271561
C          104.93131011173620      117.79357030120833      103.88352301111379
H          103.22165069143210      118.80290572317641      104.69880885408631
H          104.73687286841921      119.66506454791687      104.94032321462477
C          104.82121072420271      118.44164468438190      102.50536061878623
H          105.97875243093260      117.61729078849740      104.13300378500777
H          104.41891161173227      116.83123601348196      103.86787248308342
C          105.11294189108919      117.48591505849883      101.34365359122781
H          103.80302101568113      118.81175049147258      102.38651365424262
H          105.49375940217546      119.29740993065039      102.43906441208361
N          104.80139926072812      118.11593607190774      100.07856169244708
H          106.16615269746163      117.20159710721533      101.32879006232909
H          104.52491971784717      116.57288474249592      101.44484632180232
C          103.59964875384919      118.23702559801423       99.49135680733033
H          105.54496361266290      118.64658070771362       99.64447126180077
O          104.85680216336817      120.11808926505839      109.68238573589583
C          102.44808447814223      117.47478706434460      100.11316039195864
C          101.19048844010246      117.50890149966983       99.24655015005334
H          102.75640026471032      116.44170896578582      100.28074825227714
H          102.23300334436921      117.92136636397841      101.08521895496676
C           99.95153192330606      117.01696976332411       99.99558557719193
H          101.02779643005674      118.52804066598884       98.89123027340311
H          101.35527235224903      116.88680231077998       98.36493173184638
C           99.40642075740841      118.04505630138694      100.98739633897959
H           99.16008801768038      116.79752484273531       99.27633749727339
H          100.18901241002072      116.08891254717005      100.52045387224179
C           98.02357069733878      117.67295411479198      101.50007456175241
H          100.07754298011706      118.19869996322038      101.83017296758858
H           99.29018639601090      119.00206903448044      100.47038158059559
N           97.81627170747572      117.94803913267012      102.80053246713521
C           96.48589508111061      117.88462653499982      103.38786704886385
H           98.51825403591778      118.48117274360226      103.30616068452264
O          103.46791555983188      118.95445184083412       98.50110818029988
C           96.40021205871506      118.70983172914096      104.66686658621138
H           95.76824737657344      118.25106338584635      102.64523938907737
H           96.22717488657918      116.84063848989925      103.59037515419108
C           97.08637904176396      118.05903391402663      105.87076557931373
H           96.85511781572119      119.68368675158990      104.47626815715020
H           95.34767653228458      118.87471033071766      104.90020212224044
C           96.30063683531560      116.88151139628535      106.44908122094384
H           98.08882625843837      117.74102289200574      105.58449778225412
H           97.19060597843723      118.81286097854593      106.65255549000527
C           96.94551232242418      116.33817909535694      107.72474024803134
H           95.28798679539501      117.21631365107783      106.68196179899374
H           96.21868504000334      116.07961721972441      105.71461896955920
C           96.08692459780301      115.25988702147231      108.37698149064363
N           96.60330312573842      114.91021857638005      109.68614594813469
H           95.05814032255583      115.62695897388257      108.48449132606973
H           96.04748527598041      114.35147572609873      107.76891672064681
C           96.32490907284239      113.76326442801344      110.30577790676145
H           97.12225028738517      115.63254968329531      110.17725430393807
O           97.16690849281308      117.15807834522758      100.78950242798838
C           96.86019847131425      113.67499863124881      111.72415981902409
C           98.37929671515526      113.44363833871550      111.77384586632117
H           96.62971239959749      114.61788580854559      112.22097057340098
H           96.34100521068325      112.87152531150427      112.24753172909826
C           98.79472463582853      111.97819661345852      111.89821087848784
H           98.84006413230256      113.88189719286916      110.88576911210649
H           98.77552541152107      113.96911411431846      112.64303420425003
C           98.32320615291111      111.10777086965290      110.73214930507723
H           99.88494230985843      111.93657223198602      111.95744062221857
H           98.39807555338140      111.56994240843029      112.82983244714070
C           98.95375347809630      111.54542007250134      109.42545735066454
H           98.62664098109582      110.07545785323255      110.91942775419683
H           97.23816659376170      111.14044474432859      110.65241839575673
N           98.08526518651448      111.82478124311345      108.45186428424374
C           98.44445388020736      112.23955364858462      107.11321537015034
H           97.09853074424466      111.86072785917960      108.67890644481697
H           97.93406545266519      115.93358197238004      107.50538033851136
H           97.07743968464132      117.14940003455212      108.44310264552422
O           95.70168742388628      112.84365578621831      109.76908252734479
O          100.17344674031068      111.60917542490427      109.27311541758930
C           97.60826081778679      111.48730253415073      106.07871386080215
H           98.27452493938279      113.31644698488819      107.01497676309012
H           99.50812604511783      112.03167924300045      106.97916132372713
C           97.76861257952352      112.05150338758398      104.66621004340426
H           97.89819870509079      110.43548051020585      106.08692380804708
H           96.55699651681495      111.54163722202021      106.37093376095794
C           97.09169945250915      113.41107160109766      104.49434047921675
H           98.82892051658632      112.13604733938251      104.43149137983896
H           97.32455703398951      111.34796832536161      103.95947200172816
C           97.02557747455457      113.86025145954801      103.03440242206430
H           96.07149351852742      113.34997498985020      104.87863488393040
H           97.62499491648460      114.16435002476457      105.07490318970456
C           98.39544525873552      114.10208460763251      102.40382501786901
H           96.51349165949964      113.10354923511591      102.43884618993771
H           96.44251173830382      114.78025698857934      102.96001415745683
N           99.17971330204900      115.04035963100553      103.17813576257399
H           98.95485963915327      113.16862244493517      102.34231402820528
H           98.25032908228620      114.49448771602832      101.39005409467681
C          100.48623440553926      114.92522631986999      103.42382405452466
H           98.71385139942227      115.90258385785006      103.42856604071888
C          101.06872050323948      116.05247742559456      104.24837181192171
C          100.55533050124085      116.05753006144573      105.69703916518377
H          102.15603537135526      115.96822305240650      104.24334639281825
H          100.79210212945026      117.00175264733254      103.78616599862359
C          101.27093631394025      115.04728443775008      106.59169795592577
H          100.71553911738749      117.05667906342143      106.10606448462860
H           99.48297384678034      115.85894265897042      105.70578722624145
C          100.78470868367027      115.11864783914568      108.05514276691891
H          101.13348736915573      114.03726390956130      106.20489133258624
H          102.34098209978058      115.26718001560387      106.57036243377699
C          101.98519881088716      114.93446475142846      108.95849124958264
H          100.36350404415863      116.10405030472877      108.25905388853371
H          100.03159451213909      114.36159820075818      108.26285332040307
N          102.24456751252045      113.68449441085595      109.34432469574132
C          103.47280558265979      113.33777941420968      110.02511921238666
H          101.56338001809148      112.94416120056918      109.21030759798478
O          101.16359244712223      113.97452721087237      103.02560178585783
C          103.24568718148147      112.62786402411636      111.35337857811322
H          104.05481311681567      112.69440350422079      109.36159466805606
H          104.02553709925348      114.26607752422485      110.18625899737820
C          104.56652987693349      112.28553716708133      112.04313098672984
H          102.66068182669895      113.27123418257160      112.01404169647026
H          102.67556783493404      111.71445912961478      111.17686269138932
C          105.37116125243105      111.21476590227654      111.30568717188805
H          105.17067253671712      113.18947434479357      112.13859426516503
H          104.34442186092714      111.94690838199401      113.05463282859881
C          106.62752831512245      110.79675936233762      112.06878932153334
H          104.74379896865403      110.33564950511762      111.14674005753547
H          105.68188548795648      111.59946304406505      110.33415204474836
C          106.29542766339321      109.93204247375624      113.27977800481995
H          107.28498846924458      110.22183505501789      111.41296311044408
H          107.16788027815861      111.69220201124588      112.38069361706789
N          107.49247097014039      109.43383106143891      113.92026382040960
H          105.73517185784524      110.49253884851458      114.03212958992070
H          105.67646359340297      109.08643269268330      112.95054247060395
O          102.72769127334848      115.87569964601987      109.23407178370229
C          107.60932794212674      109.25709667932649      115.24100113871927
H          108.25932574480558      109.15103973661819      113.31397128936173
C          108.95913634773927      108.70536691611228      115.66136149708382
C          109.91883317261352      109.83380987999915      116.04531368166870
H          108.82873591013394      108.05082168343175      116.51997138880314
H          109.37928256723893      108.13348001585221      114.83446113974048
C          109.59713599575358      110.45355403055076      117.39864866550879
H          110.93323297409955      109.43485481229133      116.07478095173835
H          109.89182392686810      110.60738044477876      115.27733400991167
C          110.61156826654532      111.53340575279968      117.74929049443980
H          108.59358796076616      110.88190705997157      117.38783337192608
H          109.61577107736693      109.68494188988498      118.17443735008948
C          110.30962795412735      112.21146374701148      119.07641177129261
H          111.61811134797921      111.11336291131600      117.79373287870403
H          110.62188774871854      112.30644945203578      116.97688494567321
N          111.29665225008426      113.00353684593955      119.49570895048485
O          106.71646529884458      109.52382598754971      116.04317378173630
C          111.21603086273750      113.80219100994121      120.69920060335306
H          112.11907200367169      113.12512075837463      118.91198540496860
C          112.40258446657545      114.75261450667365      120.76222758824328
H          110.27693192493788      114.36678011422579      120.68550187132334
H          111.19204598907629      113.13683318954972      121.57242784414122
C          112.50625478427588      115.44628684156133      122.11655017630156
H          113.31924024602473      114.19460782456883      120.56050773279082
H          112.28391999348275      115.48934861949702      119.96745203879692
C          113.57336031910896      116.55031965273838      122.12488260916204
H          111.53375257465740      115.88267910590585      122.34791575396171
H          112.72506971497981      114.69448775955965      122.87696705774601
C          112.96274848636384      117.95050515499045      122.12201039593295
H          114.19682920344258      116.46172664297623      123.01491971121997
H          114.22427857984287      116.42631998210327      121.25799531298995
C          112.20043829243161      118.29442118766114      120.84180362925576
H          112.24990397692925      118.01868185268350      122.94449959143311
H          113.74079222376120      118.69872214288313      122.28488187388895
N          111.38579801597189      119.47993815264851      121.01508422363509
H          112.88996775886200      118.46204201435563      120.01198268562705
H          111.51811753264545      117.48524471851792      120.57300087723796
C          110.10898552062174      119.40079949871787      121.41026316652311
H          111.84265972967337      120.38540614382825      121.01505295956130
O          109.26686533285049      112.03949293218383      119.69951097042697
C          109.39593750237478      120.73203580051815      121.53200746326993
C          107.90021553280394      120.57233685334209      121.26571640458671
H          109.54838014752185      121.10387608418702      122.54796306954802
H          109.84170779164815      121.45018884047320      120.84312694672799
C          107.15397366822751      121.88637231255751      121.45673456938475
H          107.75152325737504      120.21281105045662      120.24503757273557
H          107.49327800399922      119.81346827234054      121.93550909639417
C          105.65108232068394      121.75072919610244      121.21078427160887
H          107.29667939526705      122.23647669754109      122.48065919759836
H          107.58519012445188      122.62786690956746      120.78348273849842
C          105.28768528719324      121.23876700763577      119.82858314026808
H          105.20517909620261      121.07844095014163      121.94501647372397
H          105.17359560347292      122.72628765811268      121.32551859909071
N          105.80259695978800      121.96231255114327      118.81717395125867
C          105.46143936034640      121.77106354485646      117.42610839912935
H          106.35529382585638      122.77503955432624      119.03607822574054
O          109.55160565879176      118.33258279721728      121.65725070527529
C          106.60288857340078      121.17731996658321      116.59189057132464
H          104.59959082948264      121.10288165324002      117.39982638799741
H          105.16424282974855      122.74051947713428      117.01336554714922
C          106.31895893921019      121.37427105016194      115.10387098211133
H          107.54266729217386      121.65697534624668      116.86209103056565
H          106.69382073508936      120.11284409365156      116.81395021915222
C          107.34672200622236      120.72041339292961      114.17997829230988
H          105.34116311214552      120.93990326633278      114.88587508165539
H          106.26258436590813      122.44270216101367      114.88504536214039
C          108.66351519425454      121.48435658856262      114.02978581806055
H          107.55751569396226      119.71106645999892      114.53757672858472
H          106.90063369290880      120.62806002038282      113.18762895198485
C          109.55149131201176      120.73665142250296      113.04094531453313
H          108.46326759403908      122.48880051546105      113.65372156406112
H          109.17038230355448      121.56812495494864      114.99044181496120
N          110.73036824564426      121.46850225567904      112.62389149702332
H          109.85608454473601      119.78364245695043      113.48720775196145
H          108.98014162363597      120.51290439031004      112.13561612782198
C          111.23611463901005      121.32898622210872      111.40090038693327
H          111.19974689061954      122.07972057502180      113.28577914570076
O          104.56302069824520      120.26954449021048      119.65282771176484
C          112.51179133633130      122.08475300033535      111.11209905051581
C          112.25897875476983      123.53581925557825      110.68690820169169
H          113.13194039742349      122.08805739041175      112.00781270701478
H          113.03538217064086      121.56079216885776      110.31057999788787
C          113.54781525548232      124.17194576575270      110.16569175455615
H          111.49822686362323      123.58008492928798      109.90612381847869
H          111.89744763886995      124.08905043790260      111.55640008898730
C          113.47676310003503      125.69529177864676      110.10714318224049
H          114.37566532561415      123.89380005971219      110.82105517370370
H          113.75956089722942      123.79166608824063      109.16548356451432
C          112.61230886626110      126.22674037457753      108.97618962412756
H          113.11126270771013      126.08968820901144      111.05753747490668
H          114.48278539749862      126.09219109104066      109.94104903779896
N          112.33014428818038      127.53077741929741      109.08515131356796
O          110.70415426057019      120.61481304056231      110.54109408962405
C          111.52951795038808      128.27257632380412      108.12597486809189
H          112.60101354783929      128.02262105615071      109.92156850434419
C          111.51685654888560      129.75371077234757      108.47298359151334
H          111.94661617151917      128.11167433358091      107.12752835810119
H          110.50404395569242      127.88747453293976      108.14155484519763
C          112.88953927039637      130.41805384534911      108.38464609465768
H          110.82075257831406      130.25509608538016      107.80036497393245
H          111.12743519567897      129.86867708781313      109.48766655487516
C          112.81111141454058      131.86538602384181      108.86564978837688
H          113.60010927652570      129.86701506256162      109.00231899646076
H          113.24662166145045      130.38894339655843      107.35423399645776
C          114.15181373784586      132.59883540022241      108.84789854348421
H          112.11013241483680      132.41290736623907      108.23303054159335
H          112.41298740859112      131.88514098512081      109.88212881826271
C          115.21943070357791      131.94885079598558      109.72674312096491
H          114.53632116025187      132.64840738004975      107.82878365662633
H          113.98446363345801      133.61819187591155      109.19998819627973
N          114.72366611154335      131.70106946260256      111.06300932512883
H          115.54461067203663      130.99103220514269      109.31232204165281
H          116.09286271406569      132.61009129820476      109.77447671790074
C          115.04701941639529      130.63077904058053      111.78356478049258
H          114.05636912687434      132.37267576086109      111.44278637519098
O          112.25663714963126      125.55089703140553      108.01829532039893
C          114.38324684946188      130.54678784419235      113.14507668600210
C          115.18546973542263      131.31714391799753      114.20202757915612
H          113.36715618450505      130.93464483241948      113.09170018501409
H          114.34150185116239      129.49660861266912      113.44208555168539
C          115.08636552484653      132.84092964557252      114.11252547071638
H          114.83688048935088      131.00020125492637      115.18771004589526
H          116.23572802767747      131.02798764305552      114.11004950124978
C          113.74574594616307      133.40923017351443      114.58476250489723
H          115.86893471889876      133.25944889566011      114.74844716363151
H          115.27959320261741      133.17286619083001      113.09202281432705
C          112.62423658433954      133.38256544566607      113.56027726896967
H          113.40903253871366      132.90580353247427      115.49139225874303
H          113.88117327968634      134.46512446989328      114.83451250782055
N          111.40619730541654      133.46488873380960      114.09679942724108
C          110.18801902835585      133.53215227687465      113.31827380590893
H          111.30412044855186      133.50112177185764      115.10814521172830
O          115.84360562978345      129.77260443699970      111.39062882372636
C          109.08761578486542      132.69534128011230      113.96680771654025
H          109.85831343121447      134.57487090903246      113.23766160939140
H          110.42427477522988      133.17239413247387      112.31419859805020
C          107.81386762771234      132.63765150907986      113.12143588661081
H          109.46469535516975      131.68586745433922      114.13489908143293
H          108.85902967626420      133.12704378179211      114.94316186433730
C          107.93506814630919      131.71412403639573      111.90752304934900
H          106.98454222021589      132.29191518133425      113.74206476322341
H          107.57112458959486      133.64589883769921      112.78230046046785
C          107.93056879763100      130.23441384579678      112.29045557124132
H          107.10206261913028      131.90533208251486      111.22921920308458
H          108.85498005372094      131.94298161128032      111.36845216298241
C          108.34428160483080      129.35902665238228      111.11935497095266
H          108.62715539106982      130.05459673554535      113.11025815202102
H          106.93565255589252      129.94482927602743      112.63500146476926
N          108.43674944451782      127.96246465799061      111.50369491040161
H          107.63200225065299      129.43766742392947      110.29107675176662
H          109.31729708016972      129.69161446462095      110.73651571108292
C          108.61840013437885      127.01564837422958      110.56784545411648
H          108.45500832557434      127.74794320201899      112.49308941849526
O          112.81394351930221      133.33828707676125      112.34332431863774
C          108.74638628587353      125.59490912597344      111.08602668889935
C          108.23749558835200      124.59953435533119      110.04396653766358
H          109.80489461270901      125.40731505304586      111.28519213781890
H          108.20127093364661      125.49523772209827      112.02400463723106
C          108.34290066698698      123.15832692105992      110.52475323294286
H          107.19865106064569      124.83569141427138      109.80938660112055
H          108.81519551826680      124.72959166675236      109.12786409972107
C          107.73386031933585      122.15807629064479      109.54063841381782
H          109.39055456733419      122.91591256906270      110.69751244667587
H          107.81227124189503      123.05692559514496      111.47273188354131
C          108.38806862643089      122.17989132853010      108.17204786954385
H          107.83728180863918      121.15181543725537      109.94841993829030
H          106.67104834691177      122.36275260614563      109.42178380578825
N          109.62473830511486      121.68461925560305      108.13614556460087
O          108.67619852832271      127.29196096857835      109.37685815682543
C          110.42311969866786      121.56582479191222      106.93652689233298
H          110.03776183594513      121.30442960624626      108.98307103786433
C          111.83666262097600      122.09727511549637      107.15031203514289
H          110.48824502040885      120.51178336513708      106.64166408584848
H          109.91147301273371      122.12003552180919      106.14632738529328
C          112.70716476230903      121.83946644354594      105.92316238209989
H          111.80887749318649      123.16659090463243      107.36899200513702
H          112.26156187425075      121.57938753097650      108.01024970889326
C          114.14427426083505      122.32433344120808      106.10810711464570
H          112.70063375739637      120.77000621822323      105.69987042646441
H          112.27185996988575      122.36297685710450      105.06784702701988
C          114.99397935672837      121.44096115852558      107.01625909180915
H          114.63092066768066      122.37227482092040      105.13034809593900
H          114.13508917304399      123.32857315648420      106.53145625225760
C          116.42664864004053      121.96713358299115      107.11279078762757
H          114.56352623610643      121.41200230539150      108.01817637273388
H          115.01206102355316      120.41865139108828      106.63294582318838
N          116.44151599497694      123.31482389832233      107.66590574922724
H          117.02770266908902      121.25139717241362      107.70027958819692
H          116.86912800175858      122.02116215133489      106.11217763897784
H          116.03364353130790      123.30542505954649      108.59507832003879
H          117.39435265577181      123.64565261429361      107.77626415733498
O          107.80770236205326      122.60208324690733      107.17067129248522
C          110.97945487194724      113.47491305463718       98.11965904344071
C          110.31566858481898      112.64574100628516       99.19087128557923
C          112.49849668788852      113.51509154167081       98.27457466495834
C          113.11592850565043      112.14978920864519       97.96405743448790
H          112.90166611574426      114.26359672726413       97.59133013984790
H          112.75307460439716      113.83667654388907       99.28648671692081
C          114.59637182933514      112.06249338163281       98.32443516210185
H          112.56085416393448      111.36403542162078       98.48227556250289
H          113.01079466827581      111.96689474309058       96.89263506708518
C          114.95007870320097      111.74113043446788       99.76369452973255
H          115.08792073024854      111.30301900709598       97.71191835329932
H          115.08362045432789      113.01553188002455       98.09870359270357
N          113.98060281595275      111.79372794835676      100.68200806064615
O          109.21788912116294      112.05866258658294       98.76658694274479
O          110.74693393982189      112.52654922631488      100.32213865271400
H          108.75782524668236      111.49713086142742       99.44374342575389
H          110.58197471389875      114.49213055113857       98.18218223985079
H          110.69307180778777      113.07527294521091       97.14712711064409
C          114.24744828828024      111.66850005950982      102.09750481616001
H          113.05616797938562      112.11542983113628      100.43432653282549
C          113.96471056216636      112.97330006038310      102.83972202687248
H          113.62983637687410      110.86629088400751      102.51510641567106
H          115.29828677789058      111.38791326813852      102.20036615994059
C          114.32173930993622      112.84063541816778      104.31901577484201
H          114.54020593968669      113.78015697866689      102.38011030662149
H          112.90608762840283      113.21304411701148      102.72974465651177
C          114.12430301490915      114.13126297152405      105.11178273143892
H          113.71159644933509      112.05194438920579      104.76518938512230
H          115.36616918533214      112.53463086401929      104.40563326941411
C          112.67106017500666      114.58995255723880      105.11082774337468
H          114.43395976442882      113.96126313652306      106.14447267168178
H          114.75652067726797      114.91716421128872      104.69457668577874
C          112.39631328681814      115.67611949825280      106.14374037556648
H          112.39283389485448      114.96071153107285      104.12313049838123
H          112.03096933361047      113.73897266581716      105.35074185258333
N          111.03442590101280      116.14076629936929      106.02392799245685
H          112.57154153329073      115.27012501087512      107.14732601034173
H          113.05314282615814      116.53698576076317      105.99593337634532