3536
 energy: -3716.248390073256 gnorm: 0.000982793373 xtb: 6.6.1 (8d0f1dd)
C           48.52229105379627       61.56217339935795       60.60852341280112
C           49.31058590764501       62.62551602099417       61.36854941085937
C           49.15357089308706       62.41516389641909       62.87291290504051
C           48.84379950825803       64.03690632509922       60.99470882749872
C           49.32950931220836       64.52973845427263       59.62657966605830
C           50.78399540850468       64.98799803373844       59.70617332215860
C           48.43866898347385       65.67795310176584       59.13185906646463
C           47.12397040299268       65.20277423178963       58.49188413970964
C           47.36440947048708       64.84339580178909       57.02762681260785
C           46.05273428163638       66.28971318892232       58.63956831308562
C           44.65642666654718       65.92888760355771       58.11484440320726
C           43.77247398652843       67.17561706782132       58.17119634152775
C           44.02070467432202       64.76589301495760       58.90175262663743
C           43.57586533669112       63.59351945364192       58.01894793609906
C           42.36640607787259       63.98749675813488       57.17114779311962
C           43.20975872425871       62.36066417787683       58.85780481101184
C           44.37804942267732       61.61412042583834       59.51397041381561
C           45.31610661158574       61.02408804199380       58.46026285449489
C           43.86844190168537       60.47292399028562       60.40923034078892
C           42.97777545083942       60.88432398815576       61.58811302463809
C           43.71085873758415       61.84945519977327       62.51700685452346
C           42.51003309018600       59.63417513095439       62.34836770517067
C           41.28343227508060       59.87641458866831       63.23833045252015
C           41.09993332328440       58.71677617704605       64.21595192787635
C           39.99997914025165       60.07074312886631       62.41271449264386
C           39.06790698245646       61.14755768735489       62.98818234538128
C           37.65264183855146       60.95612570214440       62.44662455174146
C           39.60810763278224       62.53946652603181       62.63642377542564
C           39.02385761572618       63.71578471192953       63.42913958847350
C           39.44775319860565       65.02488572245258       62.76330661928355
C           39.37448936545176       63.68699316182821       64.92696224925605
C           40.86634446073084       63.78504092244430       65.30128721461077
C           41.15612268934307       62.85339918917774       66.47902553748311
C           41.25799558072769       65.22813326767033       65.65061768596227
C           42.76720022223182       65.51597982540517       65.71190838784401
C           42.98036030293243       66.87687882790598       66.37483496816198
C           43.39308847248709       65.48249757084396       64.31214725291584
C           44.92761079490451       65.49111830328764       64.28367939764017
C           45.40428981628776       65.65133712469164       62.83939410899043
C           45.53517893920618       64.22573226844092       64.92068407415923
C           46.44896002529580       64.51741943229653       66.11779513169266
C           47.73702919915868       65.19407837136542       65.65287248127655
C           46.79759065768445       63.22999146849471       66.87888401986450
C           45.68537579119909       62.71408821556943       67.80093023022553
C           45.65482302167989       63.52151859059784       69.09862967814726
C           45.87810647420335       61.22690404918233       68.13188359403580
C           45.61716107370877       60.26358657093979       66.96776218547255
C           44.15158784360319       60.29173552850294       66.53942353929263
C           46.03218340636251       58.83567823029472       67.34945838027531
C           46.30250686869196       57.92551953358908       66.14035972637001
C           46.28219040306419       56.46631604566854       66.59469638827564
C           47.64114020967143       58.27595143073361       65.45896325840596
C           47.60267899566245       58.53472963304649       63.94316978933733
C           46.73640661420294       59.74340824982607       63.59558034136843
C           47.13112955956234       57.34277352105676       63.10568552657709
C           47.99883652203839       56.08046068174630       63.15421516799833
C           49.45168888003877       56.36359791717818       62.77904067966825
C           47.39716676926174       55.04044919347682       62.19738261273814
C           47.71148615615050       53.58568172627532       62.55751028299746
C           47.36596678063052       52.68707087983244       61.37179645230744
C           46.93496357304794       53.13426146143722       63.80500676262236
C           47.75575699800310       52.28712511730036       64.78848818266799
C           46.80019102295240       51.53911782603534       65.71426905328008
C           48.70370935582488       53.19428672317712       65.58268916409963
C           49.71187525424073       52.50704913692940       66.51545545470665
C           50.37040181976010       53.57514092324570       67.38879404385509
C           50.75495649871444       51.72517176430907       65.70680571679583
C           51.93053271662350       51.12700980366306       66.49620038524237
C           52.89313662293127       50.46858000050879       65.50971510721276
C           51.45919130066132       50.11674204746004       67.54835239949858
C           52.50492555108239       49.67356574688050       68.58582704318906
C           51.89343208612974       48.56210125960577       69.43917754844101
C           52.94997602337382       50.86280041621013       69.44661837073669
C           53.90490526630992       50.55904759171042       70.61041284109635
C           54.08672451473922       51.84046785616695       71.42645449046567
C           55.26882949466164       50.02031269089004       70.13739233519139
C           55.73115926196778       48.75525125531839       70.87190059433344
C           55.99635672188877       49.04052360909400       72.34997106346674
C           57.00500524482305       48.17897373204908       70.23637391489457
C           56.80833007277497       47.47010321127920       68.89043368121379
C           56.15589896440998       46.10227216965495       69.08474433877019
C           58.15728811292469       47.29900694172674       68.17440269401128
C           58.66808074636126       48.58001696059300       67.50047525737727
C           57.94128344785181       48.77364613975576       66.16886107889580
C           60.18452109626642       48.55058265157234       67.24294509175539
C           61.12792867014758       48.99493165449041       68.37775100671753
C           61.24530575604184       47.96414363636141       69.50114719065073
C           60.78360665606160       50.35858520789526       68.98887497380170
C           60.75725788311345       51.51235505172095       67.99076488776832
C           60.41443998595005       52.83054279311216       68.67482983047678
H           47.46250410268180       61.64224172805049       60.84203044412030
H           48.64518598960368       61.67443556482679       59.53485743126400
H           48.86352293733847       60.56628462403719       60.88332266426804
H           60.38211563088554       53.64262337956296       67.95259722092636
H           59.44232063842835       52.76744098636864       69.15979940336226
H           61.15675817051147       53.07342055274621       69.43245776033777
H           59.81807899574129       50.30012086786131       69.49563573617662
H           61.52981253938403       50.58088488014394       69.75651823498106
H           60.46902573102842       47.53808666042667       66.94492661427618
H           60.39039068637913       49.19621861396334       66.38570728156290
H           58.43060095370814       49.43604576409959       68.13509976448465
H           58.22128541207159       49.71723858980592       65.70759406523791
H           58.19369684887079       47.96597236824630       65.48499987712786
H           56.86316045875477       48.77328651500958       66.30874903832589
H           58.88354102115984       46.93602609366692       68.89929136851551
H           58.05745508991382       46.52724433792789       67.40671568828520
H           57.71906676714066       48.99646565440082       70.11629721157588
H           57.44999729744862       47.46163953319886       70.93093476140017
H           62.12086481890976       49.08361908245168       67.91661940352562
H           60.34598282129558       47.94846003193800       70.11120684182801
H           61.41655404880806       46.96855223116884       69.09772621662925
H           62.08284241926596       48.21451541769687       70.14993239559540
H           56.14863103828910       48.07320187945017       68.26035420511211
H           56.80772429961097       45.45018170290248       69.66314218720377
H           55.20725025527653       46.18953244472696       69.60835605127082
H           55.96704046038821       45.63204240257414       68.12202890908600
H           54.93525513114830       48.00642536596174       70.80721838683374
H           56.78889546612141       49.77922747998171       72.45670159776114
H           55.10474281374488       49.41578592304565       72.84489526531632
H           56.30683941860363       48.13238608164072       72.86282047837906
H           55.21886753431444       49.80356337925310       69.07097639199837
H           56.02897054151543       50.79435795732439       70.26682037426836
H           53.43256139886182       49.81578148017023       71.25781090442561
H           53.13284106723524       52.18732452627393       71.81994543368766
H           54.76124261524970       51.67695937478349       72.26280765077931
H           54.50058120379652       52.62750432289508       70.79809643178393
H           53.43664429006115       51.60061918106589       68.80579189937389
H           52.05266398755867       51.32878403428708       69.86424184165733
H           53.37112337770743       49.25800505399515       68.06286895238379
H           51.08310546840482       48.95353664990748       70.05109615514965
H           51.49191145260907       47.77475124921455       68.80395270435032
H           52.63546346902268       48.11333485156321       70.09320370168490
H           50.61459328682356       50.53572608962303       68.09709328318982
H           51.10203620888239       49.22795253755680       67.02319130295831
H           52.46018530483080       51.94438928301690       66.98869748308063
H           53.75314687190924       50.04817026845000       66.02375540375789
H           52.39396797968136       49.66724646222066       64.97097436579465
H           53.25376820761167       51.19479836666151       64.78405051914920
H           50.25298369922569       50.91691017362596       65.17327726792304
H           51.17270557828696       52.40220443459970       64.95637236235324
H           49.16847606584944       51.81962693693202       67.16891247301436
H           51.01434154937305       54.21081009713241       66.78578599147031
H           49.61740017906966       54.20485297314003       67.85728268881232
H           50.96355458808313       53.12370382657485       68.17924627940560
H           49.26655810493653       53.81719753935909       64.88425955990783
H           48.08527896253720       53.86409000640862       66.18694486980210
H           48.33536129777151       51.55564759626620       64.21754956724175
H           46.20642002679141       52.24558124731504       66.29149621681070
H           46.12007192274335       50.91910723418239       65.13434636091722
H           47.34031033995544       50.89435535900779       66.40144356849378
H           46.54888641290560       54.00184989090207       64.34328688521791
H           46.06824109404835       52.55550232440447       63.47934467361667
H           48.78441729073100       53.49374853370922       62.75025057369827
H           46.32706531150134       52.82832495574741       61.07948971570595
H           47.99604487836561       52.92056158798805       60.51615945871654
H           47.50853106677316       51.64227353309307       61.63397596465006
H           46.31097424035438       55.15182481282794       62.17201916738953
H           47.76620092797415       55.24396058494126       61.18943136213747
H           47.98256202003191       55.68113978251514       64.17006952902003
H           49.50018963817288       56.90692089671911       61.83827902541484
H           49.95027197250396       56.95070040841571       63.54628940717443
H           50.00194074597495       55.43225623803959       62.66375467471943
H           46.11672901423606       57.07749213716171       63.41105968988725
H           47.07742887403016       57.67137052276825       62.06328871330335
H           48.62854012928413       58.77730097500983       63.64430401776498
H           46.79605147427947       59.94871201613776       62.52924624675688
H           45.69549927418885       59.56286452838830       63.84971495859562
H           47.07695365687761       60.62702668134339       64.12865084394841
H           48.05138095312910       59.17661323933544       65.92203616280663
H           48.35637908274606       57.47426758241943       65.65194959660350
H           45.48890359290968       58.05567910854504       65.42281287803502
H           47.06800881635506       56.28456144560598       67.32573701848970
H           45.32641012948372       56.21851003780540       67.05305153247704
H           46.43159618290748       55.80032655406974       65.74947782213384
H           46.93415486379082       58.86542150946978       67.96573349976489
H           45.24023363522829       58.39609018930134       67.96052199575679
H           46.22746948796240       60.57591702590652       66.11965801751192
H           43.49775058379351       60.15418088861369       67.39853755424676
H           43.89982941238728       61.23310379265703       66.05975281885239
H           43.94606486080232       59.49738690497099       65.82640276211004
H           46.90386710340502       61.08825118224052       68.48257187181579
H           45.21234715417262       60.96115082476640       68.95698810758957
H           44.71987335256940       62.84045506889117       67.30515790821065
H           46.57618273686834       63.37169456862325       69.65852769534243
H           45.54792495689825       64.58431006911989       68.89471969411846
H           44.82066793372105       63.21197863797688       69.72480700999330
H           47.05890189828173       62.46616754903430       66.14497759583416
H           47.68720073237905       63.40617953428534       67.48872309251055
H           45.92546363556370       65.19790190798085       66.79754765887378
H           48.37848114430076       65.41404594457990       66.50245549188851
H           48.28143477711053       64.54124251435927       64.97402545547723
H           47.52886743945199       66.12689737897782       65.13496189647616
H           44.73396814022881       63.55743720952106       65.23546848795696
H           46.11577949609857       63.68388455698010       64.17091383361925
H           45.26942311056938       66.36571094228721       64.84360753361773
H           45.02078895884662       66.57264361700143       62.40607685528299
H           46.49112161015226       65.67441683698911       62.79383454071041
H           45.05544967041162       64.82004946280767       62.23010651927742
H           43.05515056010930       64.58965702360588       63.78392007673632
H           43.02908663881398       66.34847652252702       63.75254689543565
H           43.24991874269950       64.76083614255261       66.33766238587701
H           42.48161356853727       67.65902694072886       65.80491670073505
H           42.57032784756527       66.87730741447508       67.38276671414549
H           44.03702705492009       67.12168211401820       66.44201299112495
H           40.81753127039750       65.90940982304097       64.92222136718605
H           40.82052940773510       65.46662400642359       66.62387513422129
H           41.46652423952619       63.45152091676670       64.45219523623133
H           40.51937016437818       63.10506230303457       67.32498892898464
H           40.97018808173779       61.81668265893045       66.20484495376007
H           42.19100627748185       62.93487063867384       66.80113071946300
H           38.83576907037523       64.50214376643598       65.41648410640400
H           38.97309558822966       62.75919899325314       65.33868901420907
H           37.93067238687805       63.65866417729730       63.37034873820342
H           40.53093250554125       65.10824533425465       62.72756337803972
H           39.07120176083883       65.06641454682364       61.74286067771792
H           39.04685899647650       65.87916582781359       63.30439622919258
H           40.69081589887928       62.54163685841114       62.76106950124258
H           39.41032294324831       62.71504995603944       61.57519761648857
H           39.03880342739911       61.02977001864905       64.07549355794445
H           37.26093554522538       59.98281173684546       62.73540018488215
H           36.97986856724857       61.71742503219511       62.83287650640113
H           37.65177009362609       61.01689445957062       61.35982678519682
H           40.24370074677490       60.34233855484243       61.38415599465097
H           39.46414013863243       59.11974359038627       62.37197216245141
H           41.45997839993948       60.77840556403500       63.83051441633742
H           41.95115440019123       58.63550646239658       64.88812411263022
H           40.20607751851963       58.86428800005789       64.81835425459354
H           41.00049328626904       57.77811239552240       63.67558349935453
H           42.26545090592400       58.84610336760939       61.63321088222270
H           43.33518583991020       59.27067554567287       62.96499668333332
H           42.09039329119646       61.38755593200781       61.19551569863146
H           43.17017654083160       61.97512241725767       63.45160842477994
H           44.70311922391298       61.47465527173654       62.75357874746601
H           43.81096029314041       62.82764204938959       62.05316747216517
H           43.31298346009733       59.77156437494853       59.78126929885146
H           44.73248990594872       59.93401008913823       60.80797901257284
H           44.95397823814836       62.30877749639276       60.13139025861894
H           45.82236784884181       61.80421745886512       57.89883018474325
H           46.07690882496948       60.40541827313655       58.93139124316564
H           44.75698061972444       60.40512614029709       57.76148276895133
H           42.51066104906414       62.68794712852167       59.62920516302393
H           42.67962638281542       61.65211267385820       58.21572920965079
H           44.39544186075651       63.33552076096454       57.34284797545224
H           41.51232840853025       64.20426725349664       57.81002420636746
H           42.57872874212404       64.86910216061122       56.57322960575151
H           42.09117684869734       63.17926974241548       56.49650714601141
H           44.73687280166034       64.40008231005990       59.63705969885660
H           43.15406314006811       65.13048198015879       59.45747808418722
H           44.74983998973823       65.63841932218045       57.06522886427462
H           43.68755424977325       67.53447641220528       59.19529407870333
H           44.19518509955750       67.97492761324764       57.56513358199542
H           42.77396971532975       66.95967654449025       57.79983416616612
H           45.96330416240592       66.55037941763418       59.69747148206325
H           46.39816848315755       67.18196399158134       58.10997133497777
H           46.78813706278402       64.30140927547305       59.01319730070278
H           47.58352323876709       65.73839398211612       56.44872450399296
H           48.21077900488562       64.16583945734291       56.94176978157268
H           46.49717758397765       64.35510227757158       56.59008265986741
H           48.22433397446381       66.33323246424601       59.97937677218425
H           48.98591349696370       66.26937288565689       58.39607500661408
H           49.27137052304417       63.70680074542990       58.90871162944966
H           51.41774959506633       64.20653785719024       60.11820383613594
H           51.15709148996167       65.24346665716702       58.71738972481386
H           50.87099568215848       65.86733527395532       60.34098747613048
H           47.75213124846547       64.05152091575826       61.01998040471072
H           49.19607223184033       64.74125006458632       61.75242655895182
H           50.36950126723890       62.51857550041966       61.11202479618989
H           49.75985712286344       63.12827154122736       63.42711989342767
H           48.11312873792748       62.55367410079886       63.15949063493498
H           49.45837712798959       61.41052666621348       63.15782646768136
H           61.73197918064546       51.59437815396411       67.50292672891662
H           60.01548550999004       51.30978137166989       67.21719145998041
C           64.44552977956918       36.79173577769116       58.59285073783971
C           63.80193966429447       36.97592757510844       57.21827215715070
C           64.56119914624580       36.15900058406597       56.17599845006401
C           63.77930354593877       38.46817309413859       56.87093745922099
C           63.12970668706418       38.85716479209626       55.53457629342438
C           63.28104607093410       40.36691323916001       55.35526961071867
C           61.65871050252368       38.42448496472795       55.49719395512957
C           60.83394557598964       38.88036012129692       54.28290837471532
C           59.39937779117143       38.37929085346709       54.45849138030083
C           61.44144264902254       38.36767227722014       52.97173663488871
C           60.68868157858221       38.74316641786948       51.68454578936701
C           61.32526575508831       38.00067077441126       50.50938895678340
C           60.71904261356833       40.25940359703826       51.46190814763980
C           59.94938951477160       40.78856223918979       50.24102349833621
C           60.22978347104612       42.28485533301439       50.10248557301444
C           58.44698284076767       40.50465157708106       50.37629763632391
C           57.53656872224115       41.14100683839742       49.31451090312128
C           56.08077291586162       40.82953704543023       49.66050966022519
C           57.89389220196383       40.64620111526538       47.90812571059630
C           57.09327771072163       41.26256985442277       46.74951115463237
C           57.52157885613926       40.58933448167449       45.44516565336361
C           57.31373652435439       42.77773174535582       46.68859810751023
C           56.58380518461962       43.53225058546163       45.56801841810086
C           56.99593922603592       45.00210579237640       45.63636238701465
C           55.06421388945521       43.35566740555727       45.69269629334729
C           54.19484899555865       44.27658258332185       44.82477338213053
C           52.72328343978751       44.01072810823553       45.14177752126249
C           54.46053060235228       44.08960317911141       43.32614321947810
C           53.86839990488097       45.21836638627771       42.45497787601713
C           52.80270850441845       44.66495852701282       41.51082208965799
C           54.96898229178972       45.93876949896488       41.66212302646889
C           54.58018896785783       47.33200872341428       41.14689547856368
C           55.60334937799757       47.78969516667241       40.10782320457838
C           54.48064262790660       48.35658935171690       42.29430701902875
C           53.05490278371645       48.84054123872014       42.58880535416247
C           52.60052263586680       49.83942540862526       41.52535524756120
C           52.97152462888433       49.48454433686318       43.98097288030787
C           52.97838659607375       48.47889065539155       45.13917087931923
C           51.62002010291712       47.78834508596253       45.26526697973528
C           53.31660255819418       49.15291819051561       46.47661930501724
C           54.77457446218649       49.58281735494656       46.68195712889501
C           55.71329942921460       48.37781684475086       46.68474806922616
C           54.91116490267375       50.33516771247100       48.01655300210338
C           54.48711497364715       51.80700033034955       47.96761253840779
C           55.57896336252453       52.64855772699556       47.30698778379382
C           54.23801034944164       52.37414351364615       49.37096647557556
C           52.97076601708277       51.91785538688503       50.10679241448832
C           51.71603143402624       52.36386179811344       49.36122030597877
C           53.00157105654085       52.51386084786364       51.52220653773701
C           51.97960465222805       51.96325258705043       52.52662032158499
C           51.89691618556842       52.92053090232247       53.71583351853211
C           52.38475626383107       50.55926390842686       52.98743045648935
C           51.31924875147682       49.78253161815446       53.78121975350538
C           51.98416531946295       49.05096398061485       54.94829807951800
C           50.57886056237584       48.74968726526984       52.91982799289061
C           49.75741826132604       49.30668667716799       51.75336494450006
C           48.58755539023274       50.15165498871995       52.25911954968532
C           49.19672779292969       48.17737999565705       50.87240599686032
C           50.21658927064026       47.22530571025936       50.23178225601606
C           51.20273809594856       47.98248270236865       49.34963001137070
C           49.46728587791507       46.16092074043522       49.41876777597128
C           50.30956625398929       44.98277328940441       48.90797957990860
C           49.45589832543205       44.16297494195793       47.93811491727190
C           50.82742049855990       44.07103864722411       50.03824694364550
C           52.27430215592186       44.30625520909081       50.48912008347265
C           53.26432840227621       44.05689277761230       49.34950431970643
C           52.65915779020907       43.37521358019671       51.65136061226948
C           51.84190028484814       43.47771494092091       52.94627821786491
C           51.77796367971123       44.91612220363142       53.45794235655619
C           52.46386685300176       42.60271617514746       54.04794363933890
C           52.51865760943255       41.09670897228418       53.76925588968931
C           51.11315598250557       40.49777975187302       53.71894422507622
C           53.33531801703226       40.35001901375939       54.83744891133603
C           54.80572203631147       40.76714021340795       54.98995418070858
C           55.52520281681966       40.75195746392523       53.64074158732489
C           55.54435232068676       39.84847732764617       55.98615927424715
C           55.83746321986668       40.46658671190887       57.36364388352855
C           56.90831659351253       39.63147399476028       58.06620355571761
C           54.55264359738298       40.55409983319786       58.19752216271764
C           54.70235048258970       41.03277177372589       59.65043811358679
C           53.37514551260397       40.82051577329575       60.37943462737612
C           55.13492043731438       42.50260701112087       59.70035489762013
C           55.38482629131497       43.08150752306676       61.10243077563694
C           55.56120418607190       44.59538597599421       60.99430334505237
C           56.61270085885737       42.42592598252853       61.74492133376448
C           56.99495846020474       42.91122348337108       63.15111884627026
C           58.34561739713422       42.29900135176350       63.52538776241420
C           55.91907241994981       42.54682043501047       64.17951965708838
C           56.13436335156944       43.18085660133585       65.55275301899793
C           55.01195280753735       42.81147075176577       66.51563684462431
H           64.44512552975141       35.74251573962048       58.87922123094361
H           65.47586747897269       37.14221765479293       58.58009034919195
H           63.90201302682957       37.35229036512204       59.35062391775237
H           54.05119394927978       43.14546342601506       66.13079128658563
H           54.96910639848980       41.73291094831320       66.65150607409355
H           55.16991575725759       43.27198515736215       67.48828454305601
H           54.94532307092918       42.87345202535698       63.80941898534825
H           55.88302065181750       41.45986148372265       64.28684652166491
H           56.45011669140492       41.34785042487479       61.80121867493364
H           57.46612272874206       42.59545482763869       61.08397794025529
H           54.50502751734582       42.88980132891090       61.72006454369721
H           55.59875652461665       45.05588170749412       61.97777284401333
H           56.47776973159937       44.83558560336989       60.45904209671272
H           54.72568007393194       45.03775477233801       60.45554780204807
H           56.04932124484997       42.62524195961191       59.11589101909188
H           54.35445361381205       43.09521736638340       59.21456765104540
H           53.85097937330123       41.21945829516866       57.68978185953593
H           54.10359312292357       39.55758533560271       58.21810365205215
H           57.11049415692110       43.99930766362731       63.13951765964939
H           58.26351907683420       41.21670405551958       63.60249023941765
H           59.09023121317758       42.52908712999220       62.76591480957912