3795
 energy: -5103.664168089410 gnorm: 0.000918230920 xtb: 6.6.1 (8d0f1dd)
C          112.88025951210797      116.45480474757538      135.16303783046376
C          114.22188372815955      116.67100198562920      134.50539226473529
C          111.83837044294864      116.02615885915581      134.11566073390719
C          111.37608263155637      117.20358194439476      133.26501516024891
H          112.27146284501319      115.25058180110565      133.47960170577457
H          110.98259383495693      115.59088050485340      134.63389542987485
C          110.44465681866720      116.78368236340638      132.12548545395978
H          110.86010757558137      117.92566571623958      133.90107074703576
H          112.24201966724840      117.70477645676056      132.83026318681681
C          110.20487442829322      117.98135215312723      131.23068062887546
H          110.93373346777429      116.00941349425416      131.52997811221084
H          109.50157738792191      116.39018904778243      132.50269202833294
N          108.92931636091669      118.31279240983571      131.02131708958217
O          114.34055133770021      117.83835625755653      133.91471855342942
O          115.10129505599501      115.83230895790342      134.50742252067562
H          115.20949099856176      117.94125969289095      133.43274217240975
H          112.55957454668101      117.37954553638960      135.64106254298196
H          112.99576399118875      115.66982374177238      135.91022304518279
C          108.55154259190239      119.45299780002702      130.20775520757749
H          108.19721857186666      117.66394302503400      131.29305601200412
C          107.20520941782246      120.01918774533841      130.63983933012358
H          109.33252603644016      120.20822469343852      130.32659808090887
H          108.51011687806044      119.15493518791838      129.15513309831383
C          106.84803435900993      121.32284142607105      129.92047575792537
H          106.42715226127116      119.27483202622432      130.45788707341291
H          107.23397871909476      120.20990796699088      131.71418753637343
C          106.66436277704399      121.17942258175573      128.40275408586780
H          105.91680549200802      121.68785524961555      130.35566706953904
H          107.61682182121575      122.06944509576542      130.12494471315406
C          107.91207587213971      121.54471159781509      127.59711071436405
H          106.36720000095009      120.15548624112039      128.17126647710623
H          105.85230803111743      121.83186186682464      128.07663820076598
C          107.68599069718029      121.32762700478888      126.10612714269438
H          108.16201911443574      122.59224084822566      127.77416892303967
H          108.76006511568303      120.93770175210967      127.91369037698445
N          108.90609619957856      121.55766956778494      125.35675925702222
H          107.33406411020049      120.30577816216200      125.92595379208825
H          106.91430332360285      122.00757516526743      125.72995701026407
C          108.92785760201716      121.67758956880016      124.02702279264426
H          109.79022707325426      121.50367531582978      125.85375461589184
O          111.14497005084080      118.61671014519742      130.75447180578382
C          110.29350169240497      121.97618106298481      123.44921307875522
C          110.55925215542429      123.48186029112736      123.56133452123100
H          111.05571446898416      121.43014794018568      124.00491035398480
H          110.29966138356022      121.67684732994381      122.40133721198818
C          111.85410337246958      123.89012512854563      122.86536831721976
H          109.72861192381752      124.03021339379264      123.11209529916685
H          110.61034055705593      123.75129466833940      124.61828228268635
C          112.19315155920042      125.35108773563429      123.15240553430925
H          112.67288297540567      123.25510122608391      123.20863510566005
H          111.74552837721104      123.76353901873027      121.78750665892457
C          113.35110919263836      125.85215989228233      122.31287129625230
H          111.32781628077687      125.97559166903444      122.91489837711470
H          112.42406138566396      125.48648361494232      124.21006440250936
N          113.89978695756017      126.99662226570040      122.74411088710320
C          115.00885056747403      127.64502200006110      122.06917333215465
H          113.54841305451927      127.43739208163846      123.57937442385287
O          107.91536916430094      121.61137459857771      123.33049172990039
C          115.08391787653093      129.12718598623846      122.41158701774073
H          115.94787980937470      127.15953248796809      122.36096403086219
H          114.87877462502068      127.49944031023732      120.99406908792092
C          116.22452125542699      129.81268959861501      121.65484369717275
H          114.13729917808574      129.61190423722368      122.16672213276891
H          115.25153514937442      129.22980648349807      123.48555441839444
C          115.85235657951353      130.14729204140585      120.21097436044464
H          116.49448737948383      130.73544746388916      122.17153924287986
H          117.10169745533342      129.16243423992591      121.66684879712724
C          117.06955842875803      130.60691026465190      119.40979296709213
H          115.42692441371064      129.26949425809056      119.72661407278321
H          115.10116883354107      130.93728455782892      120.21507787972082
C          116.69981558675657      131.23891983626649      118.07290543387587
N          115.93682208479134      130.32505390174782      117.24472269008500
H          116.10806638049201      132.14788043250948      118.22259114014004
H          117.61758605299791      131.52308033731589      117.54424705962943
C          115.24241610287632      130.70637067086943      116.17598071112316
H          115.99062131901613      129.34077092074938      117.49259883529989
O          113.75345631391409      125.27677820241716      121.30749474637631
C          114.59305990182817      129.57631222334140      115.40078274858668
C          113.12537624825426      129.82099199010298      115.04133526831374
H          115.16164591358964      129.47475090588392      114.47157017156053
H          114.69094621437040      128.65033777669683      115.96706699338368
C          112.59946433712010      128.68223350538472      114.17066747807925
H          112.53705768402614      129.88560949657943      115.95816096365185
H          113.02441015424010      130.76974081569048      114.50974997733559
C          111.15555769598070      128.89217491787292      113.70379391984068
H          113.23434270640654      128.58621022568397      113.28762602513679
H          112.66080147351713      127.75008362481873      114.73608303622854
C          110.77502923705435      127.80472758485574      112.72371454858309
H          110.46521360940430      128.88482680229123      114.54615599417998
H          111.08074695450510      129.86250504863617      113.20403570431981
N          109.69627366541593      127.08849676164063      113.03509323915513
C          109.20915121558834      126.01172184268144      112.18948704518692
H          109.08648549440571      127.41650752609182      113.77737419058519
H          117.63007752695346      131.34598626125748      119.98517619399496
H          117.72471625108882      129.75240534874126      119.23103617614495
O          115.15651833702275      131.88762673187028      115.81713971371687
O          111.44582950105102      127.56527857091830      111.71423301410069
C          107.74581795157714      125.71723208142130      112.48796463488729
H          109.35004511800349      126.30325525882937      111.14427425517398
H          109.81253825486489      125.11477738013967      112.36812212987640
C          107.16493870979930      124.57567161026236      111.65483915062342
H          107.65852036980922      125.45063436484963      113.54350333826387
H          107.15667973791072      126.62003760147346      112.33330645039324
C          107.16362960889211      124.80684556654718      110.14159003007835
H          107.71495769860968      123.65719737475189      111.86330271672770
H          106.13930781230177      124.40769311349419      111.98370288871270
C          106.47707179501654      126.09569653518783      109.68769926764226
H          108.18862355147525      124.81090488282913      109.76780404451196
H          106.64846374846334      123.96188202394336      109.67897862305070
C          105.03156891251469      126.20355938378850      110.17417218983071
H          107.03334090908442      126.96756056619510      110.03305773345764
H          106.46929368607104      126.12544600452314      108.59529051786841
N          104.33952302973110      127.28527671423906      109.51178754406425
H          104.49740191257004      125.27096018744039      109.96285950739774
H          104.99085819004172      126.39250359580863      111.24750308270727
C          103.87651950837339      128.38034532440835      110.10946958489768
H          104.29537108558367      127.22861749574250      108.49736109199260
C          103.16726380475042      129.34716566937610      109.17970274011610
C          101.69978840501579      129.54802417605663      109.58250640910694
H          103.68098666556210      130.31003407552524      109.22472858966994
H          103.22758703204406      128.97092627743191      108.15909701945088
C          100.95988527142380      128.22376517470326      109.81996212753283
H          101.65552939912374      130.15207903633774      110.49023369022729
H          101.20952612868929      130.11121686653857      108.78759881500842
C          100.84701459553376      127.89020124064909      111.31057809126968
H           99.95504160556446      128.27381990902572      109.39658923585759
H          101.48164836533962      127.40898480146673      109.31453927922246
C          100.62654085311881      126.41955373659759      111.56614640641860
H          101.78572127045724      128.14749071118786      111.81044035772398
H          100.05156854898785      128.47779129765965      111.76619009011395
N          100.08259954056123      126.07898205618702      112.74201190021085
C           99.59009909081649      126.96004330750210      113.78246176130961
H           99.97300611459460      125.08788941023225      112.91365508410681
O          103.99000538003772      128.59570460430498      111.31928780766276
C           99.14206221632557      126.14530713196758      114.99343642073740
H          100.37930601552638      127.66205859909611      114.06491789010197
H           98.73829765066279      127.53697637347365      113.40203496682413
C           98.43859735117796      127.01249321541600      116.04049317441111
H           98.43934340926678      125.38137457265607      114.65298754558040
H          100.00359274478406      125.64109371724336      115.43281213075016
C           99.36897755304739      127.97695422849361      116.79312949356763
H           97.65281050159383      127.57953559318766      115.53845309539790
H           97.94835131580929      126.35593484190012      116.76022080449114
C           99.62262038524594      127.56563854610394      118.24446627272647
H          100.32953389790305      128.04608805409524      116.28295817307082
H           98.93141898377668      128.97563011315606      116.79935613352274
C          100.45606828364147      126.29171791238750      118.36626554635598
H          100.15560463691467      128.37151003100260      118.75426224242231
H           98.67240941276960      127.41483428408360      118.75806605538587
N          101.77598831370001      126.50173200051650      117.81558502147892
H          100.52901388105958      126.00872227669589      119.42434492358888
H           99.99845307461015      125.46340996452511      117.82138638554711
O          100.96233972112147      125.54978722208683      110.76166437121427
C          102.39386873889454      125.64175985866851      117.00553176439385
H          102.27401206274637      127.33323462487611      118.13110839940111
C          103.69682084578547      126.14480425509464      116.42298552704203
C          103.42163530300309      126.67680647670871      115.01195219523510
H          104.09834971748137      126.94093276214835      117.04782090451766
H          104.41028899622361      125.31968024460750      116.37240464906401
C          104.69095246338671      127.07718219876527      114.26332516588465
H          102.90768309039096      125.89816462727623      114.44269319028930
H          102.75531910777819      127.53979041929158      115.07905104679048
C          105.35922747606753      128.32458971487344      114.84904667206368
H          105.39594830840574      126.24376840390410      114.28363961332177
H          104.41981835913423      127.27955961335881      113.22607305508032
C          106.60634100323782      128.69667892768356      114.07119141817152
H          104.65818899988908      129.15995988605610      114.82078929666895
H          105.65333683055708      128.14431300892755      115.88317228592216
N          106.38733002792820      129.14261771684338      112.83244898257847
O          101.91774068567734      124.54582695239691      116.70049337486959
C          107.44671158730040      129.51131176326905      111.91758951188243
H          105.45219456176139      129.09382520380973      112.43851241051659
C          106.98324125705075      130.59254706944350      110.94425888551905
H          108.29903410882758      129.84623993789091      112.51323994218696
H          107.75999878153777      128.62963783993607      111.34436445191838
C          107.81854343141545      130.60871493155281      109.66512236088997
H          105.94341895193845      130.38875241571046      110.67931718716932
H          107.02036245531241      131.57007420963103      111.42698260279128
C          109.27025212291170      131.02359313938055      109.89953611776282
H          107.78277217374911      129.61615326906221      109.21195696761362
H          107.36460107522782      131.30564488347187      108.95769120506033
C          110.11273271284588      130.89693429941238      108.62885020205616
H          109.29044951141138      132.05884545299517      110.24398587527416
H          109.71506463664738      130.42256985517628      110.69225349513339
C          110.56269818325575      129.45877154910198      108.34504994588544
H          109.53817879535477      131.26259830276629      107.77674490367248
H          111.00647023190284      131.51685631767054      108.72098265588888
N          111.62264537724751      129.04596678588302      109.23748805487497
H          109.72312810847841      128.76757017029436      108.44019022958578
H          110.95880373004339      129.40064279668053      107.32837156496015
C          112.91246743172984      129.05565817999641      108.89372343689135
H          111.39745447795373      128.84169646940083      110.20326828947724
O          107.73326495882422      128.59421628965995      114.55399367062154
C          113.88041679973473      128.89157788008819      110.04211531060500
C          113.97205751121383      130.25664890717457      110.73889617589012
H          113.53463490669438      128.12758468148817      110.73538522802652
H          114.85619496350481      128.61319738415528      109.64082737344064
C          115.30944447822574      130.47294941850726      111.43841963029756
H          113.85049452220089      131.04678916125300      109.99206668390873
H          113.15676367239367      130.36158802459266      111.45640876967173
C          115.30388630773480      131.80112934582658      112.19807130342176
H          115.52231705627413      129.64977006549233      112.12286465017146
H          116.11379504909941      130.49642174908624      110.69829917071868
C          116.69428944103269      132.38509683240767      112.32563668910475
H          114.71717996057346      132.52478593759398      111.62647381597192
H          114.84889588691222      131.68940503732858      113.17899105048043
N          117.04337513489391      132.76234641385966      113.56032456975105
C          118.34588955481007      133.30595571991566      113.88105838493166
H          116.40934945228844      132.59611911380708      114.33476130938490
O          113.30447142130839      129.23335806898808      107.74390041839638
C          118.95687760991558      132.56052679809616      115.06259395613606
H          118.96942192613928      133.19846871398292      112.99011850177567
H          118.25323239350237      134.37265477030959      114.11512888559115
C          120.38412499735796      133.01553269699232      115.35940736790461
H          118.32954182750161      132.73839541753949      115.93838868909079
H          118.94232744370566      131.49301878193023      114.83722743295455
C          120.89178049788052      132.49556391418278      116.70549656961357
H          121.04641824083477      132.68049836330317      114.55911975799916
H          120.40824095919810      134.10709208486477      115.37637141626742
C          121.01392872598966      130.97455849908710      116.74953663411021
H          121.86940433429037      132.93443379512061      116.91395279911256
H          120.20990403692026      132.82363095579893      117.49312639253026
C          121.40588582182443      130.48091134483968      118.13617364745801
H          120.05946669673416      130.51692522428550      116.48548478596415
H          121.75623924062410      130.64505197243582      116.02105423048891
N          121.29111803954801      129.04297938490254      118.23675417555471
H          122.43621768553382      130.75369777604146      118.38007777266219
H          120.74685902927096      130.94154414945243      118.88457921363667
C          122.12566614456121      128.27863702078500      118.95025898682999
H          120.58469256211576      128.58812053347572      117.66929543893079
O          117.42579942995978      132.53560684467757      111.35028829355058
C          121.68799988304529      126.83346686172315      119.05500258330616
C          120.40938207839685      126.72111391436599      119.89361929745965
H          121.49139295991441      126.45061637767893      118.05207415072400
H          122.49778013961495      126.25009116391787      119.49342565923023
C          120.51234567773653      127.33026664207908      121.29215440978966
H          119.59882525129244      127.21786477969766      119.35736599503660
H          120.14897041917112      125.66670110569748      119.98802937589022
C          121.62844721589551      126.72504244297281      122.14760769196926
H          120.66348765982599      128.40889651205148      121.21799850618501
H          119.56539351967369      127.15888790536644      121.81105628342888
C          121.25422655605205      126.70778247294778      123.62438512000116
H          121.76930426312249      125.68026534310984      121.85829562836555
H          122.56813069227650      127.25298619343152      121.99677242967223
N          122.24421932978002      127.00806422597215      124.47148580686209
O          123.13112636652757      128.71319242393588      119.50503504789980
C          122.11213677477673      126.91424429802963      125.91049728821766
H          123.16074045741128      127.29121433787287      124.13851958203253
C          123.35714504853127      126.26396812854254      126.51130010736100
H          121.97460632393891      127.91463089022109      126.33721367151840
H          121.21259545241877      126.32747631316782      126.10731898941810
C          123.23700049562522      126.01139473786286      128.01495001644929
H          123.54213565726982      125.31511984981194      126.00399320888523
H          124.20922959939629      126.91589800593765      126.30984432732043
C          122.25307328228251      124.88537603740734      128.32635281261221
H          124.22103080151103      125.73542652736118      128.39874470206576
H          122.92918119652339      126.92951052786296      128.51896605213966
C          122.26659561466273      124.46633712412243      129.79550255292600
H          121.24297802910284      125.19924523447540      128.05808320213060
H          122.52316542163335      124.02542489220188      127.71368480751326
C          121.16923625402943      123.45196123259753      130.10008929677031
H          123.23856731413244      124.03983923987363      130.04790715395774
H          122.10705556942624      125.34049187452533      130.42876150525009
N          121.37453027465635      122.20240898823350      129.39407087214707
H          121.13243987206026      123.22814068881313      131.17096794282475
H          120.19551288933529      123.87248159272880      129.81666638674645
C          120.79677811211414      121.05908245562564      129.76524730451217
H          121.95530915694115      122.21222413240420      128.56314092310970
O          120.12765348836886      126.39297429796174      123.99753568145540
C          121.11980673292109      119.88877783823810      128.85345999530264
C          120.42509379421520      118.59412185756676      129.26453308597647
H          120.81886294707212      120.17122648476625      127.84212764508922
H          122.20359378955800      119.75841579647046      128.84557072232573
C          120.66435824084178      117.48075533165574      128.24804666548340
H          120.77956418831720      118.28551669627352      130.24988474757359
H          119.35151164557878      118.77469754107990      129.34596138363733
C          119.88730462143822      116.21297045206487      128.61660457622602
H          120.33266954916350      117.82932391754829      127.26875189185566
H          121.73088185852953      117.25451643098080      128.18902490625916
C          119.87939012146867      115.22426204750199      127.46606040304444
H          120.32535961869773      115.74318495675631      129.49722867138752
H          118.85647342767436      116.49100193659368      128.83661541829306
N          119.19235571408177      115.65795607020173      126.41051547885554
C          119.13002303379169      114.99939911685908      125.12153820941001
H          118.61923644232144      116.48309377912983      126.53634752180936
O          120.06255003871526      120.97334986624000      130.75057069161949
C          117.89872186903911      115.44325653987582      124.33330374035688
H          120.04321508328856      115.23000618240496      124.56300474245165
H          119.10753830280109      113.91666225977299      125.28050182966707
C          117.84477882776929      116.94448726928931      124.02923868873590
H          117.87315226166838      114.88334570771799      123.39755706744018
H          117.00875619690243      115.17938582740013      124.90714102878952
C          118.97455490353973      117.42055222518110      123.11844026710180
H          116.88331362475220      117.15821024509290      123.55754125198791
H          117.86936267151268      117.50825058287032      124.96151111076168
C          118.87017542213592      118.91042307043628      122.78649620408669
H          119.93477776130523      117.24388362367900      123.60452088923661
H          118.95364622987719      116.84761713422014      122.18947799557256
C          119.95939477228235      119.29766832532592      121.79018752133663
H          117.89300881813355      119.13519317711484      122.35735727405009
H          118.97928533620676      119.50399037460537      123.69549768269306
N          119.93985991753389      120.69947705689248      121.42789125316821
H          120.94462426865604      119.09672781766020      122.21836062378706
H          119.84453252300692      118.70542902418123      120.87611014950160
C          121.01753313869203      121.46949402364930      121.50201322170290
H          119.05894208505373      121.09374688734711      121.10854532642588
O          120.47039017426113      114.14374546423451      127.50014309891904
C          120.89767784311265      122.85431310423087      120.90698546125007
C          120.85417079235440      122.80633482552230      119.37560725236369
H          119.99247866806071      123.33229021632015      121.27981313996305
H          121.75902739226382      123.44240210131419      121.22929784801742
C          122.04741491209526      122.05943268258058      118.78824115437152
H          119.92765724520558      122.33147362452982      119.05388675921635
H          120.86270986996971      123.82693008764380      118.98859158636920
C          122.06189344534296      122.12494128206680      117.26021458354644
H          122.97222105956151      122.50257108659594      119.16237706253632
H          122.01975995493821      121.01378545227993      119.09976287865044
C          123.29521791388376      121.42159440610359      116.73678342211612
H          121.18145319452729      121.63566393967282      116.84423920602003
H          122.07348253093065      123.16360509323347      116.93058642514076
N          124.42033266450126      122.12945373962751      116.85196536543016
O          122.07457967683307      121.08293778246609      122.01900254503673
C          125.69811626161368      121.61494857811626      116.40548901892873
H          124.36913319795420      123.09271436373453      117.16565635898972
C          126.72479709129743      122.72224645847120      116.22498009405076
H          126.06939265199929      120.88579273050294      117.13566231285144
H          125.53649471242112      121.08779065704036      115.45885158280642
C          127.19659118545349      123.29781089359851      117.56021571548391
H          127.57464270876329      122.30709554864552      115.68049862850415
H          126.28610049586683      123.51558921998654      115.61392382622186
C          128.43974170139174      124.17575105598701      117.40688840428881
H          126.38856676974889      123.87792805468663      118.00835161767026
H          127.42080623736048      122.47542062713897      118.24160235620404
C          129.20527900808148      124.36631980931020      118.71666045100295
H          129.11108697552723      123.71403362027311      116.67833995389607
H          128.15251120029689      125.15227929398196      117.01127086475111
C          128.36233725832324      125.05227661849617      119.79695551200608
H          129.53409303578852      123.39262471783685      119.09004458754004
H          130.09861432926397      124.96859432966409      118.52279870452578
N          129.06285668573580      125.34521882349657      121.03922945238206
H          127.98054429133701      126.00169733355565      119.40906934374482
H          127.51538166434737      124.41120181313272      120.04469178921114
H          129.42986778028316      124.48381378034489      121.43023156328513
H          129.85764077084869      125.94757031304756      120.85108856760270
O          123.27482891090611      120.27318420738844      116.30285201055250
C          103.62696774043421      117.45538112836518      116.42087483705883
C          103.58739530463066      118.07386761863606      117.79784627406578
C          102.40048702647188      117.73705535589137      115.55475764960401
C          101.07828745520494      117.35184267891245      116.22019496218789
H          102.36773815766887      118.79935693025618      115.30734895335188
H          102.51057617564811      117.17327762555951      114.62577902886095
C          101.04441345831400      115.92460423030788      116.77457922280345
H          100.87961875835174      118.03977441262950      117.04357621571603
H          100.27589612161442      117.46569525564898      115.48907965334995
C          101.43191249734517      114.89319548028932      115.73561169024102
H          101.71066971100998      115.82851586559701      117.63134643929338
H          100.03346220340727      115.70447880300100      117.11926664785858
N          100.45401748415354      114.57303649201609      114.88631533910576
O          102.92951651496487      119.20782288080832      117.84878679765082
O          104.11889509487763      117.56260516179394      118.76527912377499
H          102.99045959217898      119.68266243706766      118.72582319055365
H          103.77399250198863      116.38082269656319      116.52734606222342
H          104.51589828819631      117.87926613671031      115.94557085326022
C          100.64524627485886      113.59965162107801      113.83128330302569
H           99.57346748178054      115.07331505163674      114.92392873149198
C           99.32536606534966      113.14879546839130      113.22305745264426
H          101.26293467601205      114.03594116563289      113.03648521956373
H          101.18906934258251      112.75065317213327      114.25849811999532
C           98.40539958472280      112.42946009074929      114.20812397235086
H           98.82687133414981      114.02543461313864      112.81082587964391
H           99.56219863239153      112.47870400021870      112.39389529136142
C           97.16569764383419      111.82949066551866      113.53054794151443
H           98.97586112968499      111.62452179139950      114.67544924331119
H           98.09629636375529      113.11903585899522      114.99472515754333
C           95.92518769517916      112.72994688382148      113.53381385781108
H           97.42271769359709      111.54125431767694      112.50902094147489
H           96.88614166873793      110.91342091854722      114.05357319470633
C           96.09957815886622      114.09959297916184      112.88741478622315
H           95.11101498775710      112.20250558350553      113.03168496856905
H           95.62117334836023      112.90274218088035      114.56728724844396
N           96.41984594824169      113.99794715067678      111.47561786014857
H           95.16978051196155      114.67202153555218      112.97088290268260
H           96.87412435634009      114.66744663885530      113.41276396483859