3258
 energy: -3427.484897894131 gnorm: 0.000717233716 xtb: 6.6.1 (8d0f1dd)
C           94.59696788055523      113.01313096167469      103.40132572991782
C           95.29005889912867      111.68581596560266      103.11786457776775
C           95.69432336408002      110.97871045908872      104.40787456270819
C           96.41342500866702      109.65484597020154      104.16019621548908
C           96.67796698196514      108.91190076508332      105.46641900671966
C           97.39483450629821      107.58056785200057      105.26182200269497
C           97.56768284135094      106.84038126069866      106.58549364046871
C           98.24625161997812      105.47788324124532      106.44928190884499
C           99.71429352550346      105.52424300332891      106.02479714802996
C          100.60168386293336      106.29891784081464      106.99628658661082
C          102.08360188700657      106.10687770303399      106.69134479691211
C          102.98175069199627      106.91802839610557      107.61992216409600
C          104.45751489960301      106.60013755910511      107.39663466201831
C          105.40621647374834      107.45582258451162      108.23538912210678
C          105.19921032597038      107.35473218525054      109.74637324592231
C          105.43688474112606      105.94962594943361      110.28939598519942
C          105.35703674407561      105.87074438853649      111.81257183952620
C          103.93232842591364      105.84756088828891      112.35595134675366
C          103.92606915018276      105.77923490890011      113.88146786266596
C          102.53046890769286      105.54570861184881      114.45004346903596
C          102.49487295963642      105.48207756579140      115.97630911139674
C          102.76352920091595      106.81396766872649      116.67838813296532
C          101.70997722506293      107.87584602731467      116.37626177208398
C          101.85776842297791      109.11517159723545      117.25617313889843
C          100.93586636826544      110.23288721032462      116.77468033915586
C          100.74289212795736      111.37584884559166      117.77025933192031
C          102.02439871322622      112.06326131408922      118.24134222241562
C          102.89871312800133      112.59185206544203      117.10641697502322
C          103.88333202068524      113.66942160644192      117.56306275838278
C          104.86728876373265      113.21323146844026      118.63888407453098
C          105.81239938111973      114.34929388019128      119.02759049618528
C          106.67484086509404      114.05410045248428      120.25481976322482
C          107.71245234795735      112.95614571932499      120.03241845816315
C          108.70617753875177      112.86936666394243      121.18911539975799
C          109.62841501237565      111.65373949639512      121.09830879829387
C          110.67863806711549      111.68337852673336      122.20721855278273
C          111.43539279222915      110.37084660029632      122.40454240830363
C          112.38652348498802      110.00292996319706      121.26724733859869
C          113.25619049294482      108.80879277896226      121.65668988582104
C          114.24050249491208      108.38859624606064      120.56802443783224
C          115.12738423247586      107.23688559310393      121.03608966675941
C          116.01753126794732      106.67443169459180      119.93142182233177
C          116.89420955280332      105.52968176384577      120.43600874047083
C          117.70946606262663      104.87953451448308      119.31950658472948
C          118.60799414975160      103.76465415228513      119.85100855877731
C          119.54786233331279      103.16328114393930      118.80489296949445
C          118.85270114892583      102.28123329636018      117.76873811274524
C          119.87016075634675      101.61831999156240      116.84206806705190
C          119.22842459118263      100.79591285758082      115.72603830519080
C          120.29046462077423      100.20570110055495      114.79886981605918
C          119.72095571363943       99.50596250683019      113.56436049153295
C          119.11135830702020       98.13658675579771      113.85335957443239
C          118.58589420047595       97.48591627566648      112.57590076450256
C          117.94382634153695       96.12271132253369      112.82333138326082
C          117.28259322075037       95.58286636304658      111.55679310288639
C          116.70230380340189       94.17505124852806      111.70270525888270
C          115.66574967966147       94.05199300656278      112.81913453621885
C          114.91810995612515       92.71764619381813      112.75889457542557
C          114.26329613571161       92.33976965825519      114.08852374607638
C          113.13683729079470       93.28325612506904      114.50715080749063
C          112.65842259881488       93.04084628900664      115.94115441511019
C          113.68223192091745       93.50241694173729      116.97605389708505
C          113.18402225210009       93.40453093550602      118.41553175903411
C          114.21860354102259       93.98184357244575      119.37851274602399
C          113.79080179296818       93.92792521880958      120.84249465909254
C          114.80614622559703       94.64111450161926      121.73338613350001
C          114.37815982965350       94.71576108540094      123.19651966214266
C          115.43954438733569       95.40263476740084      124.05286979322418
C          115.00458386243861       95.57570030690481      125.50564689642509
C          116.09631571469235       96.23031218297324      126.34854761802549
C          115.64925096208589       96.48440477487495      127.78543745341602
C          116.72828196131668       97.18921436190315      128.60477450138106
C          116.23260606029298       97.54798316576192      130.00482765208241
C          117.28681188542588       98.24535867410516      130.87663196454034
C          117.16924602954296       99.77101789318510      130.91599778099953
C          117.49406172871896      100.45742419413550      129.59194760780889
C          117.45061209372220      101.97970430470851      129.71997459939701
C          117.98201570446513      102.70978833573950      128.48569674202685
C          117.18062077344949      102.42784226012553      127.21697699521687
C          117.63721427748331      103.30630148791795      126.05497333490477
C          116.90797934504306      103.00494474658902      124.74546138908649
C          117.35054302990284      101.69203974072828      124.10337548794419
C          116.68915367626352      101.46560644962719      122.74739392932679
C          117.17370400555333      100.18288078487932      122.07709628553813
C          116.47727468695996       99.93459482248419      120.74196169139215
C          116.96217480981916       98.65122503149148      120.07251280443914
C          116.33590237696991       98.40671735035328      118.69889652690212
C          114.82534614049189       98.19506598545547      118.75912871591846
C          114.24241817074339       97.74339546709834      117.42258017327084
C          112.73509457816871       97.52598526494367      117.52094600419412
C          112.09621987956686       97.11930053815570      116.19652996448349
C          110.63786480383857       96.71209014477999      116.38536249176761
C          109.99546814261976       96.23177975415351      115.08654832449291
C          108.64809662794988       95.54394770559992      115.30912791762859
C          107.52020239660237       96.50242329191231      115.68279347460995
C          106.22414101779714       95.75696653452245      115.99676133920322
C          105.07165989367731       96.71627642184173      116.27847801097964
C          103.75433324850094       96.00113291868060      116.56841419583849
C          102.59529859922527       96.98708989897865      116.69761637945865
C          101.25588824139236       96.29321098414617      116.92994510958324
C          100.08531933400788       97.27395399217291      116.90559471906981
C           98.75430633509951       96.58429196066979      117.19337844789096
C           97.53799597996372       97.48624978439196      116.97815480374192
C           97.44751710267565       98.62554814194579      117.99252921681794
C           96.07864395254840       99.30830860696108      118.01062564061110
C           95.82924094475597      100.22243894205283      116.81189849029307
C           94.42235256191098      100.81675315829467      116.85474455210876
C           94.19001048166483      101.94613137854627      115.85042554403455
C           94.22106783764688      101.50667524919787      114.38648195286153
C           93.54835741879879      102.52251248197514      113.45901132024689
C           94.21887386822259      103.89433954765805      113.47553573132431
C           93.52680327737090      104.89523282823289      112.55163324707543
C           94.17389108989053      106.27518958462045      112.64841680046374
C           93.45060789900022      107.36223512753625      111.85333135027213
C           93.44107460367265      107.15827919802894      110.33685398726182
C           94.82317862660238      107.03282798111070      109.69286015760125
C           95.75006342792315      108.23144720820818      109.89738878521000
C           95.25851006514311      109.50658739283868      109.21758731519979
C           96.29782754748859      110.62342693598185      109.27829545545907
C           95.85789046944862      111.85235962719062      108.49378998751079
H           96.47382627415037      110.89882357911321      110.32099327775427
H           97.24224651784762      110.25551863658480      108.86973631547114
H           95.03222150816276      109.28850448236764      108.17085325439939
H           94.33592171447013      109.85127405360328      109.68967042153021
H           95.89198633363907      108.41556276956430      110.96357367710654
H           96.72708114385706      107.97408713231776      109.48108385581426
H           95.31730260355427      106.13918072136011      110.07897476058361
H           94.68077825633742      106.88181119955628      108.61871499389228
H           92.87204547000169      106.25577676270147      110.10159785622675
H           92.90841078519117      107.99714778166133      109.88266376272853
H           92.41326228901727      107.41743086520506      112.19550743230073
H           93.91563483130506      108.32367488930160      112.08156511961270
H           94.18868578793025      106.57839049651989      113.69875378035027
H           95.21128878322105      106.20797483088636      112.31918304053330
H           93.57535202311058      104.53050859777770      111.52375711442588
H           92.47118937286436      104.97099756335528      112.82661518837928
H           94.20573521742367      104.29252049022359      114.49156548023267
H           95.26284612753686      103.78729455117845      113.17506383955542
H           93.56132942075200      102.13212225429767      112.43781139451831
H           92.50100653975846      102.63309755765603      113.75338760333487
H           95.25380201879999      101.35532692736706      114.06760929497950
H           93.69845324467313      100.55156123545252      114.28864742551056
H           93.21142840421052      102.38804256979213      116.05838398750630
H           94.94501023511391      102.71769589215380      116.01098650474280
H           93.68907049552685      100.02381356856367      116.68612149150468
H           94.24500962936582      101.21394514982929      117.85884848000771
H           96.56334408172512      101.03128836100547      116.82814570906181
H           95.96226767826593       99.66316822536420      115.88529891737996
H           95.29639024116398       98.54556316193228      118.05329603121855
H           95.99675877349893       99.90763877656168      118.92189941298273
H           97.64297168472883       98.21673351950341      118.98755075801529
H           98.21479856204779       99.37115624238199      117.78206351134098
H           97.56955854901423       97.89096842515546      115.96469216650462
H           96.63695550012494       96.87197944673036      117.06051705231611
H           98.66075492844281       95.71550057881649      116.53626492158658
H           98.75139286301903       96.21480263911239      118.22255046700714
H          100.25742124724042       98.06035934542307      117.64235670318945
H          100.03846586863622       97.74977300137769      115.92429484298479
H          101.10405783815533       95.53873921257849      116.15426689088493
H          101.27779057335515       95.77256094383313      117.89101003677601
H          102.79382074190165       97.67643964850417      117.52232299160904
H          102.53195241506319       97.57801127687547      115.78153616992924
H          103.53744551663006       95.30193395490338      115.75705317334311
H          103.84676292108321       95.42078541198856      117.48975935480389
H          105.33114410014899       97.34956827123740      117.12897551398922
H          104.93699953903484       97.36678520180840      115.41048351960441
H          105.96169432528873       95.11607440725233      115.15159052474228
H          106.38151858633749       95.10999073376735      116.86367169607095
H          107.80934701763817       97.09263852416673      116.55374621154084
H          107.34655949175858       97.19413760613671      114.85442908437652
H          108.36544461718324       95.01081327559048      114.39776645412788
H          108.75981374013951       94.79698948236026      116.09854264421992
H          109.87152369395019       97.07406270625795      114.40239415960892
H          110.67245173592168       95.51771364518650      114.60919979125916
H          110.59424347966399       95.90411505927477      117.12086147172853
H          110.07853667578789       97.55723108023162      116.79048051858453
H          112.15699750876196       97.94508056296189      115.48373349210388
H          112.64890477041810       96.27918535924401      115.76989535929232
H          112.54023859530587       96.74781042463813      118.26216581944404
H          112.26038734114158       98.44320977359861      117.88007454551713
H          114.45850219773450       98.49191737920458      116.65927874363219
H          114.72469463067526       96.81186854142145      117.11212934222986
H          114.59969879392401       97.44423834346381      119.52117037623624
H          114.33875511374782       99.12431574420074      119.05846638624399
H          116.55895230917056       99.25294405340307      118.04361773453931
H          116.80163951880911       97.52016798875010      118.25873501161577
H          118.04901883725658       98.70142625548718      119.95940148930478
H          116.74217503247037       97.80052197306399      120.72340709451437
H          115.40131974292120       99.87642340138595      120.91303651048148
H          116.66581684282546      100.77972416098510      120.07468493676477
H          118.25407148815142      100.24305069515275      121.91948950050426
H          116.98626035190030       99.33616153449009      122.74274992661339
H          115.60557602881012      101.41462841505736      122.87532743522941
H          116.90554678815845      102.31836879670347      122.09902142405538
H          118.43608344440639      101.70666682849604      123.97372443120015
H          117.10672829311565      100.85579923381120      124.76118653552976
H          115.83164762447626      102.97398714462682      124.93137884605007
H          117.09804904314427      103.81899883828758      124.04055418134323
H          117.46776619289132      104.35220396057976      126.32367723566988
H          118.71267950399098      103.17951453702690      125.90421859684301
H          117.29553103523695      101.37890860810913      126.94371717901841
H          116.12214447214669      102.61279431527173      127.41138463114102
H          117.96317076517992      103.78497770357133      128.68473549323457
H          119.02514237446074      102.42616451389924      128.32219121511849
H          116.42237885014050      102.29673669706659      129.91258463096361
H          118.05119480231224      102.27901108630402      130.58335520160233
H          118.49072164023445      100.15145023753014      129.26372043183446
H          116.77485735379280      100.13997280385500      128.83749178324905
H          116.15677707163213      100.04421748121649      131.22418787973342
H          117.85495288805257      100.14694517925865      131.68079290058481
H          117.19100300452804       97.88326804026759      131.90304312729614
H          118.28554990144673       97.97076327434725      130.52971149721424
H          115.35102103944647       98.18706083162070      129.92147887818027
H          115.91607890335622       96.62441040754487      130.49587001489104
H          117.60219447581316       96.53788307600774      128.68711872176104
H          117.04210584987528       98.09157328667429      128.07857702795368
H          114.74889128362635       97.10218655964037      127.77512290971977
H          115.39117341773311       95.53528114995908      128.26156605100212
H          116.98440663754526       95.59315234050774      126.35120237438429
H          116.37856916197632       97.18215129839361      125.89130326886885
H          114.10550542603394       96.19487293908466      125.54072930241728
H          114.75195777547765       94.60098744110429      125.92993990242765
H          116.36290550839824       94.81842192036893      124.01910542833440
H          115.66140267443937       96.38553550478611      123.62766641369436
H          113.44021458283255       95.27127078535381      123.26999882003398
H          114.19887728300188       93.70791260530751      123.57895718598530
H          115.76764102036563       94.12542282119274      121.66421787029701
H          114.95649412304432       95.65751496596765      121.35809463097024
H          112.81102377370534       94.39862813163239      120.95231761046865
H          113.69369745128968       92.88685263798054      121.16063643917464
H          115.16102229595694       93.44011596365142      119.26096932662514
H          114.40538072423402       95.02272583604862      119.10444019378113
H          112.24585430094388       93.95562172947261      118.51719976273283
H          112.98497887830172       92.35978875713040      118.66795920184057
H          114.59511006850830       92.91043056272039      116.88473351185107
H          113.94358219735292       94.54251800700398      116.76911603897223
H          111.72853476142787       93.59236793194488      116.10002044865567
H          112.44259033942232       91.97860037462225      116.08167354804252
H          113.47915841778077       94.31620735903412      114.42477312749915
H          112.29789748788259       93.15728426677043      113.81795355995294
H          113.86397313992521       91.32455195294871      114.01503240812897
H          115.03792409333059       92.33044035025645      114.85745155734094
H          114.16174750816641       92.75593528109053      111.97176452401429
H          115.62811838921881       91.92921289835120      112.49429353163967
H          116.16792083546935       94.13170910855094      113.78515888604946
H          114.95536849139974       94.87538545681345      112.73797486545210
H          116.23540964990421       93.89541198389615      110.75401151836758
H          117.51380217740905       93.46645433726223      111.88869795960983
H          116.48546977576504       96.26920927939094      111.26224053818582
H          118.01904858837869       95.57252013166965      110.74852722335531
H          118.70122366720946       95.41657914142263      113.17302805432428
H          117.19390365422497       96.22438689528558      113.60960722280861
H          117.84406428971761       98.14887736782427      112.12581689818842
H          119.40419226423062       97.37874705361155      111.85919021266233
H          119.86565715140694       97.49013400653477      114.30998733646750
H          118.29136914405005       98.24237125291111      114.56610820502739
H          118.96226382160945      100.14471107639920      113.10868308446936
H          120.52385232597439       99.37799261515747      112.83264225340844
H          120.94084726037376      101.01776792313994      114.46475901847636
H          120.91310957226504       99.50333855024458      115.35940435969152
H          118.62707241263958       99.99642409776148      116.16333932642858
H          118.56023857955952      101.43583623571739      115.14548867948260
H          120.49941032241748      102.39337916804273      116.39543961562038
H          120.52617450395800      100.97193614871317      117.43202118831094
H          118.27226807906563      101.50900574250201      118.27964036903657
H          118.16164746847350      102.88059364323782      117.17444535040080
H          120.07945663310811      103.96868264910425      118.29152049870716
H          120.29730000579295      102.55737401633769      119.32278902028132
H          119.21371603672571      104.16767805230830      120.66784120037399
H          117.98780759026511      102.96862920190590      120.26916768747675
H          117.02850287529340      104.47605128934474      118.56799577029932
H          118.32577283948380      105.64013752833903      118.83477140719685
H          117.57221225370867      105.91065469446244      121.20458254201492
H          116.26214678876316      104.77210421076354      120.90617649815169
H          115.38866764825480      106.31480113562984      119.11314988488890
H          116.65261192128912      107.46792122987715      119.53234396979218
H          115.75419938512053      107.58037054212870      121.86334442396097
H          114.49323595575642      106.43374266889603      121.42010651520117
H          113.68887005293634      108.08028583880227      119.67748870960941
H          114.86453616021424      109.24026265461143      120.28728803830496
H          113.81560355838778      109.06044017223692      122.56203931101238
H          112.61012312902567      107.96087323510497      121.89964332973359
H          111.81667451327139      109.76605462973005      120.36637805679239
H          113.02765219241510      110.85682755369869      121.03598011379522
H          112.01882707309667      110.44913680489199      123.32690828481083
H          110.71457046107908      109.56223401438831      122.54717865973471
H          111.39031248031432      112.48646113565192      122.00098280523721
H          110.17633145805279      111.92623779637002      123.14789685426270
H          109.03199450470179      110.74149449276244      121.18376527391254
H          110.11981175339399      111.63945022618690      120.12392109355798
H          109.31355516764003      113.77854647693403      121.20940147061847
H          108.15545825088758      112.82375629401638      122.13281688441236
H          107.20381319633709      111.99745181403193      119.92047994999035
H          108.25578802016972      113.15411676753908      119.10680216254383
H          107.19454463445986      114.97423566329779      120.53676651189046
H          106.02872067734606      113.77692104121273      121.09201216245769
H          106.46054790264753      114.58792851299641      118.18056409629294
H          105.21206626692566      115.23941968407007      119.23813849303600
H          104.31730486345458      112.89464337095779      119.52634782122233
H          105.43966909655062      112.36019648883230      118.27033116495612
H          104.44894579055484      114.01689468076283      116.69410334115221
H          103.32022020420288      114.52435284157787      117.94756512713963
H          103.44945195933245      111.76690192644661      116.65266283981215
H          102.25306526654255      113.02385254151798      116.33581506441988
H          101.73182955039826      112.90370240349846      118.87688554490313
H          102.60079980746848      111.36890786462799      118.85529757286004
H          100.09142388682974      112.12290038395020      117.30690989039415
H          100.22092967029540      110.99167846139871      118.65207362702948
H          101.32070923259727      110.63003129861541      115.83365312868271
H           99.95271768394662      109.80466031987530      116.56663213690597
H          101.62196972253844      108.85619861092535      118.29174352006500
H          102.89562469549058      109.45259874081050      117.22922856788166
H          101.78587769469139      108.18360679544251      115.33215877733244
H          100.71491020146426      107.44880928617698      116.52083478750212
H          102.78133421013774      106.63335769510194      117.75751939834794
H          103.74928101356211      107.19319846696045      116.40023053227239
H          101.50898472915370      105.12455530679466      116.28199042204228
H          103.23195536812678      104.74886661827698      116.31471736044196
H          101.85645483940955      106.33245178592455      114.10737295257705
H          102.14885328074233      104.59769682331195      114.05887679240028
H          104.57962688460037      104.96648966932622      114.20855236693271
H          104.33751138872280      106.70973402225017      114.27685021327167
H          103.39362074521964      106.73848813411861      112.03081791503307
H          103.40902761871263      104.97694203044999      111.95044673704852
H          105.85538687840680      104.95722952855894      112.14242253323070
H          105.89704899290675      106.71496000432059      112.24706180121825
H          104.70811770590751      105.25692092101383      109.86384018544427
H          106.42953402701112      105.62208690164383      109.97019260548822
H          105.89888451807678      108.04126104047386      110.23177046087753
H          104.19183350552484      107.68745742001333      110.00026053677419
H          106.43196051029840      107.15995841259209      107.99663689022350
H          105.29055055466893      108.50052967994650      107.94034675643358
H          104.63243756938635      105.54265381404282      107.60765346612814
H          104.69981235557309      106.75914209435204      106.34147651221440
H          102.80754728928910      107.98569677534321      107.46033818965628
H          102.71354644180030      106.69270969365350      108.65377583146631
H          102.33551996617354      105.04940051391257      106.79639713042882
H          102.27900347104007      106.39419499521979      105.65604082550392
H          100.36643848065839      107.36287383309548      106.94741230146109
H          100.39663524923833      105.95984521517498      108.01269581525362
H          100.07471941517414      104.49363632729566      105.95842768009668
H           99.79738883485118      105.95750971811640      105.02587414512604
H           98.18066343691731      104.96351935479383      107.41278806427492
H           97.68769768288523      104.88112675740705      105.72227334505831
H           98.13444249986237      107.46523505383239      107.27847843078590
H           96.57939256938108      106.68575174959450      107.02723033069894
H           96.82051089526595      106.95853926776029      104.56982019070090
H           98.36846087542632      107.76752719490001      104.80651933157588
H           97.27579006876830      109.54548878682047      106.12657106965057
H           95.72293459991408      108.72749278735033      105.96625819770837
H           95.80319087706576      109.02743088988103      103.50499976651034
H           97.36022034132559      109.84322685727605      103.64766486769931
H           96.34329291454797      111.63927276955189      104.98909138558614
H           94.79681372398653      110.79156240207867      105.00437841098727
H           94.61684394968256      111.03801079286657      102.55007701519293
H           96.17901981854563      111.86138243238182      102.50773124276049
H           95.26349720905434      113.68186149520965      103.94218181863222
H           94.29585700468819      113.49899018467868      102.47557962320728
H           93.70735926465032      112.85638987106300      104.00823846135725
H           94.90392953533645      112.22201393697854      108.86382030114136
H           96.59024901676345      112.65074360396490      108.58677700643487
H           95.74149127214875      111.60976301059843      107.43991759371343
C          109.00942374487218      117.12650861870756      129.31802331034871
C          110.50630000874942      116.84252967234825      129.29569249608130
C          111.27787799410534      117.93750532325816      128.56181452946709
C          112.79632465059397      117.79620696310089      128.67688052079436
C          113.34863253750578      116.57770872641015      127.94196160554230
C          114.87068012691549      116.48820684804033      128.03521925566065
C          115.40800082903469      115.29173761781045      127.25539018550155
C          116.92336831018464      115.14119255314604      127.35645363119849
C          117.42314362036765      113.95155464064062      126.53981610999621
C          118.93390333516565      113.76192408777322      126.64753185671080
C          119.42965956364750      112.60477589494526      125.78313506658867
C          120.93639338081823      112.39030202809445      125.91326577013938
C          121.44721545304419      111.32600709027071      124.94480379902993
C          122.94816235367030      111.07459169709020      125.09297489572579
C          123.54773565579129      110.31215666656587      123.90993352264650
C          123.08205641646458      108.86141616910444      123.79910540770472
C          123.54007322301722      108.22148918789408      122.48881657311699
C          122.93773665898036      106.83277715068898      122.28294004769521
C          123.44266057015444      106.12919831167517      121.02102273303392
C          123.00511466166590      106.81422997449563      119.72810308872660
C          123.44895677477321      106.04718386387884      118.48312741074267