3258
 energy: -3427.473729201029 gnorm: 0.000990172437 xtb: 6.6.1 (8d0f1dd)
C           94.59755958497622      113.01400950516636      103.40155230198866
C           95.29039368033253      111.68648907553830      103.11771558215423
C           95.69449337167335      110.97961294109453      104.40813953442706
C           96.41331075355620      109.65538751316724      104.16005781175744
C           96.67760789342232      108.91273004345638      105.46676720592953
C           97.39453970614944      107.58118456616097      105.26174413234374
C           97.56733447212532      106.84164919235027      106.58610514509999
C           98.24525109081931      105.47868672341181      106.45018875159528
C           99.71339489948683      105.52440515215874      106.02524469038786
C          100.60097936346121      106.29916670687383      106.99703897999754
C          102.08311000266303      106.10667350984895      106.69143395010953
C          102.98108713216054      106.91840739763917      107.62037744602090
C          104.45706762102242      106.59993526223505      107.39700366679659
C          105.40600905597915      107.45599800356395      108.23574079640474
C          105.19869930651178      107.35493861785386      109.74706072412840
C          105.43626753359341      105.94922089554422      110.28956256664092
C          105.35692145232530      105.87083188789170      111.81320540867699
C          103.93172106003040      105.84779440351767      112.35629999991299
C          103.92651354794063      105.77954038675620      113.88220018422264
C          102.53044287836342      105.54564114699981      114.45037135029021
C          102.49506963483613      105.48238439912438      115.97688518089538
C          102.76422810166659      106.81483925199237      116.67843717701510
C          101.70980313571719      107.87639350408840      116.37616472401588
C          101.85817057638812      109.11573645941026      117.25664551176038
C          100.93598052578322      110.23357342574623      116.77468023059792
C          100.74285060120926      111.37626800460404      117.77092040275107
C          102.02476197669718      112.06317213405407      118.24233516070349
C          102.89896699677905      112.59168827842586      117.10682326606663
C          103.88327449027466      113.66989810338895      117.56383292553039
C          104.86758151615741      113.21308365777772      118.63956801613769
C          105.81246310049650      114.34992457957462      119.02793751866081
C          106.67474686289474      114.05421796454586      120.25548318115038
C          107.71263049947457      112.95605830703749      120.03230832071586
C          108.70643225478601      112.86921106762689      121.18947984349620
C          109.62867807630549      111.65313711825880      121.09799027378618
C          110.67903764343852      111.68332875472279      122.20729886596197
C          111.43558130875292      110.37038281389682      122.40465971536190
C          112.38669136936147      110.00279782059583      121.26676755826135
C          113.25635931048348      108.80838045727063      121.65684800082970
C          114.24080430214163      108.38830607066386      120.56772759632273
C          115.12793724437753      107.23655493943077      121.03642239984809
C          116.01821477667521      106.67420681789970      119.93130249113260
C          116.89492419960709      105.52934489977288      120.43668699369076
C          117.71059767435577      104.87957458492660      119.31984071716052
C          118.60978717676835      103.76498655797720      119.85179558169781
C          119.54910289000834      103.16405341824766      118.80477320828039
C          118.85329506838728      102.28161914272164      117.76890565393492
C          119.87115618886841      101.61881975753769      116.84210356369989
C          119.22872301363724      100.79629560175124      115.72619328795730
C          120.29095229124059      100.20597240108842      114.79891097936809
C          119.72107996507825       99.50633813755272      113.56428186894753
C          119.11136041668404       98.13683583762794      113.85361476954621
C          118.58614941546959       97.48631788459701      112.57572756771258
C          117.94365306356676       96.12317650507713      112.82331483301711
C          117.28285243798494       95.58380363589544      111.55616466070849
C          116.70252407099532       94.17596344241434      111.70265254652251
C          115.66624441727159       94.05309077173014      112.81955247810846
C          114.91873756130873       92.71855313662994      112.75909762933557
C          114.26463556890536       92.34062636012051      114.08894039352208
C          113.13776254324507       93.28385393342231      114.50729829849918
C          112.65925373110514       93.04073199115284      115.94132925110891
C          113.68324474460637       93.50249293245648      116.97617848068361
C          113.18444313272437       93.40469557395107      118.41565485556106
C          114.21921739280441       93.98189692876203      119.37876283795482
C          113.79087996418264       93.92782150332677      120.84279338096664
C          114.80623871623398       94.64124839056936      121.73377405046823
C          114.37770011227438       94.71581218870759      123.19692588086426
C          115.43920850790465       95.40271236490383      124.05336239083309
C          115.00346167587351       95.57611346927706      125.50598438196899
C          116.09531226215347       96.23086110097918      126.34879431857775
C          115.64765144304515       96.48486364424458      127.78554950104974
C          116.72686147975652       97.18966907368907      128.60471492785942
C          116.23070889788735       97.54875910681619      130.00448228846096
C          117.28489272342472       98.24604136943827      130.87614127457221
C          117.16742204041461       99.77147462461487      130.91541203823741
C          117.49268328773286      100.45722271004587      129.59116604222069
C          117.44896224905619      101.97945705658830      129.71941714275454
C          117.98091890526727      102.70946228558461      128.48551973725176
C          117.17948649551830      102.42731142282412      127.21680066556688
C          117.63721961332266      103.30573962950560      126.05509235629677
C          116.90801013950491      103.00483558200553      124.74525215471239
C          117.35049361507514      101.69140527990753      124.10370001598827
C          116.68911097123149      101.46540852682197      122.74740305402685
C          117.17383270581318      100.18242341724418      122.07721357326493
C          116.47674750027389       99.93463133726084      120.74202355443393
C          116.96178442459629       98.65099145785290      120.07263703867763
C          116.33613837837298       98.40690763843362      118.69863645531562
C          114.82537286996852       98.19507339778789      118.75904912274315
C          114.24291908903291       97.74315242698489      117.42205128586555
C          112.73533917363490       97.52547666142549      117.52080025160761
C          112.09645605068393       97.11850808083585      116.19609465841744
C          110.63776780089954       96.71138781392462      116.38526402119490
C          109.99549777211651       96.23084394054597      115.08603610461978
C          108.64813586051420       95.54261726500629      115.30890883148899
C          107.52001080630620       96.50162266012293      115.68177254292347
C          106.22396988898149       95.75561745293034      115.99593391909593
C          105.07170143731304       96.71569057438512      116.27762592834219
C          103.75430785301873       96.00020827821851      116.56775176904169
C          102.59540830458609       96.98669651794020      116.69704484731288
C          101.25602982062836       96.29216776139374      116.92914046192044
C          100.08568946172052       97.27349688033478      116.90494425259250
C           98.75444988887017       96.58377994467116      117.19262756230334
C           97.53844349424638       97.48612865357316      116.97732716648665
C           97.44853334172325       98.62510105493382      117.99235271557168
C           96.07978909166826       99.30820715598290      118.01097411228774
C           95.83066076517439      100.22274664837714      116.81236641619167
C           94.42341744775827      100.81644103119650      116.85544523639507
C           94.19118640986429      101.94596535609328      115.85125977486464
C           94.22148048765622      101.50613989645804      114.38724047078034
C           93.54822981431450      102.52224339879557      113.46049844987638
C           94.21881519999845      103.89409755893546      113.47699547378114
C           93.52647280134920      104.89479189619607      112.55291329305976
C           94.17396455937082      106.27466915956377      112.65024964259447
C           93.45103533819739      107.36169198524574      111.85455986030586
C           93.44190678155962      107.15729085531630      110.33828484194008
C           94.82372688215996      107.03120281843471      109.69392810040080
C           95.75060326716715      108.23012511158535      109.89838469609700
C           95.25840527110083      109.50509730990875      109.21825630942661
C           96.29838060484583      110.62161634998327      109.27897354850619
C           95.85817960775427      111.85074760439501      108.49423437250843
H           96.47488640479091      110.89698994041002      110.32146321117310
H           97.24284056421767      110.25342340289549      108.87055067013263
H           95.03261182941610      109.28720953373441      108.17186296164773
H           94.33715229825637      109.84995493380748      109.69135920782267
H           95.89230769151129      108.41467326626459      110.96440299052094
H           96.72799451224546      107.97297750730402      109.48257594881812
H           95.31926988762260      106.13814172026470      110.07971452218125
H           94.68138163228375      106.88089715348785      108.62008101936885
H           92.87357275335101      106.25477946750149      110.10349652318067
H           92.91034955122349      107.99621350851193      109.88390109294906
H           92.41390003948590      107.41565474489725      112.19594642550742
H           93.91555683371553      108.32318689761416      112.08347976479506
H           94.18790154974428      106.57823672054032      113.70043875891255
H           95.21176415015996      106.20716241286976      112.32171807429060
H           93.57568566626789      104.53035006434442      111.52529534945262
H           92.47162358963713      104.97093140301513      112.82841163272487
H           94.20581433406859      104.29252374801524      114.49280943153914
H           95.26292261468278      103.78716047735807      113.17635483041157
H           93.56103465346136      102.13241916783801      112.43937733598842
H           92.50175861790555      102.63313481640755      113.75599631946922
H           95.25371942389897      101.35321579208235      114.06694309556627
H           93.69770178344490      100.55196191608435      114.29061976011499
H           93.21263698702282      102.38730838447491      116.05881304484706
H           94.94607615588234      102.71779201014743      116.01184163320163
H           93.69118248767880      100.02346991413745      116.68576712855696
H           94.24618449516279      101.21332747310612      117.85938276089131
H           96.56476738666628      101.03200950324374      116.82915863948095
H           95.96405052245404       99.66395857820967      115.88555494964370
H           95.29795200277596       98.54575091385829      118.05259096662047
H           95.99880782378094       99.90736653951490      118.92219506966163
H           97.64365509160309       98.21539896012415      118.98672835986234
H           98.21622762770841       99.37065143550456      117.78237610343945
H           97.56955735451174       97.89093498937115      115.96392252630180
H           96.63785960450888       96.87224625608577      117.06067754420143
H           98.66144486482102       95.71586794974532      116.53497400481487
H           98.75196004706081       96.21507785002181      118.22157016303115
H          100.25859445793898       98.05994764914996      117.64146391820996
H          100.03935350048940       97.74976801455460      115.92380151162429
H          101.10476946578721       95.53884411583550      116.15291855885127
H          101.27855933547029       95.77228211378407      117.88991624518530
H          102.79400407716153       97.67616331841914      117.52157667723446
H          102.53257652486472       97.57793601251555      115.78107563818128
H          103.53778770749712       95.30214499729085      115.75605451329038
H          103.84732053622396       95.42089524474581      117.48897784881291
H          105.33174393050285       97.34910164218360      117.12789431455758
H          104.93764418611619       97.36620911380825      115.40956914262098
H          105.96178733500078       95.11579799022712      115.15057551512689
H          106.38167164634848       95.10972741973107      116.86288037223640
H          107.80903400782643       97.09264033901889      116.55227185613050
H          107.34675160687701       97.19277059335143      114.85285129841883
H          108.36594326454914       95.01009723483827      114.39763318818360
H          108.76007788605556       94.79681594712905      116.09872601791838
H          109.87168309431721       97.07331182351756      114.40219984238773
H          110.67271695103065       95.51691858978313      114.60977230916761
H          110.59472537667391       95.90347727307456      117.12020932942875
H          110.07861560200749       97.55652660372326      116.79050400863811
H          112.15723696840638       97.94404531949816      115.48317401818800
H          112.64869974280610       96.27815975329075      115.77057201045436
H          112.54081427420785       96.74709427169115      118.26139398168311
H          112.26008179772435       98.44237733419781      117.88004941974683
H          114.45853423421396       98.49140674073568      116.65851953442396
H          114.72449748487657       96.81171178905319      117.11233009972588
H          114.59961687304079       97.44387778130914      119.52014725990072
H          114.33778910717133       99.12382109956921      119.05847838037624
H          116.55854351732899       99.25299120995388      118.04323393065643
H          116.80052709190677       97.52023661285791      118.25869853754914
H          118.04786059970125       98.70218081457683      119.95923580828020
H          116.74092924843065       97.80070070932169      120.72296309713744
H          115.40065880987660       99.87703584053050      120.91308085236759
H          116.66538316037447      100.77976453321281      120.07485753077285
H          118.25333210872004      100.24362728475131      121.91864165495973
H          116.98591738046220       99.33617018011240      122.74259313584740
H          115.60530107971591      101.41505849025118      122.87465003768550
H          116.90598550203141      102.31825508855491      122.09936496643530
H          118.43531364756774      101.70650920054044      123.97338928662036
H          117.10603624588605      100.85550435279289      124.76120602925187
H          115.83145808195889      102.97432869573554      124.93046625787383
H          117.09854809050408      103.81836660796803      124.03984402196934
H          117.46806162445095      104.35155655375827      126.32322780192406
H          118.71195098783704      103.17760360710373      125.90396601807598
H          117.29434194717817      101.37858896634273      126.94320044624712
H          116.12096595017969      102.61290515069125      127.41049199684818
H          117.96190909550890      103.78454775763809      128.68387240214790
H          119.02337576301122      102.42513319615031      128.32157362633535
H          116.42088438953647      102.29675611886432      129.91216180582796
H          118.04985558645305      102.27826989084299      130.58228106331242
H          118.48948053589861      100.15165590697272      129.26373836617600
H          116.77394399298235      100.13933188521906      128.83640063341602
H          116.15493627008519      100.04495153546293      131.22309267627386
H          117.85306538272151      100.14760707159195      131.67976579144042
H          117.18876348692618       97.88410803506054      131.90238426901968
H          118.28338413998944       97.97123547255440      130.52915898736188
H          115.34888315713548       98.18767587022350      129.92122034840739
H          115.91451921771782       96.62515272629408      130.49517141714460
H          117.59968004139631       96.53755794780587      128.68772956726963
H          117.04168848516548       98.09142826134342      128.07801771486373
H          114.74668862986937       97.10187776618255      127.77551576998970
H          115.39033295316105       95.53560668143263      128.26107002020862
H          116.98238291707959       95.59305545736052      126.35204310279548
H          116.37840500699517       97.18238345560947      125.89119841341817
H          114.10406164716719       96.19500761727174      125.54077605412121
H          114.75105516713688       94.60164333644971      125.93009253438177
H          116.36136966829044       94.81753404008205      124.02035012512810
H          115.66212381766474       96.38523081001823      123.62778121042223
H          113.43928829599193       95.27083130022513      123.27042817809377
H          114.19898799109464       93.70808835688197      123.57888144919234
H          115.76670909793714       94.12473822728617      121.66523842840299
H          114.95744551631680       95.65749561648001      121.35826473664946
H          112.81052916177158       94.39769788437798      120.95260334397653
H          113.69493027592198       92.88702710037903      121.16046476807639
H          115.16051929602489       93.43924675870498      119.26171993245836
H          114.40717320757335       95.02264757472128      119.10455849823583
H          112.24593142734136       93.95543523647333      118.51724718703716
H          112.98626822726251       92.36025873438378      118.66764745591104
H          114.59502432187270       92.90973199760401      116.88530778400761
H          113.94566035028559       94.54239105051727      116.76881920959998
H          111.72872340939492       93.59130507570464      116.10024727117124
H          112.44494679589594       91.97866909652716      116.08138619190683
H          113.47944199831608       94.31721142610257      114.42511660418104
H          112.29865209169195       93.15791561047014      113.81833953780742
H          113.86499348320322       91.32608694625982      114.01562086954769
H          115.03899929060302       92.33239247774060      114.85774239835918
H          114.16241067633179       92.75703687217640      111.97206302116453
H          115.62920448504703       91.93105288902872      112.49500228709644
H          116.16864581516847       94.13246035741166      113.78532339412671
H          114.95585015166645       94.87674098618466      112.73921898789892
H          116.23549795910868       93.89620968676373      110.75430812302901
H          117.51409110518875       93.46865307061081      111.88955745454847
H          116.48639162207172       96.27083256930517      111.26071866192903
H          118.02001715290190       95.57349960948179      110.74881889378355
H          118.70103637834823       95.41751626116664      113.17183077087094
H          117.19374753011166       96.22477576814227      113.60959011937669
H          117.84490260384965       98.14956797079911      112.12454900086082
H          119.40472280833247       97.37847192482346      111.85997912022083
H          119.86608353364853       97.49105794923990      114.30871714937855
H          118.29164347140923       98.24237363377354      114.56668627598847
H          118.96263931936583      100.14531000470558      113.10797758970163
H          120.52397919088041       99.37783693988749      112.83316389552978
H          120.94159921037202      101.01753083737691      114.46487801036047
H          120.91159865156474       99.50304799779292      115.35945920270206
H          118.62826922830146       99.99677550720422      116.16396103945554
H          118.55949022354136      101.43570422915984      115.14591944151042
H          120.50037840564596      102.39366408017862      116.39583048527213
H          120.52521708981436      100.97185101592009      117.43207335426891
H          118.27403094793959      101.50929211395555      118.28029876735961
H          118.16112218930716      102.88026864948107      117.17491494018638
H          120.08003457802253      103.96969275394378      118.29181099929879
H          120.29726880806368      102.55780362114326      119.32251400728408
H          119.21565780257647      104.16981084208679      120.66708475265978
H          117.98967281368226      102.96954234756853      120.27028113087179
H          117.02951325814195      104.47658401890222      118.56829870771601
H          118.32639842190086      105.64075540244210      118.83594600456408
H          117.57220157697533      105.91109615556627      121.20467168158571
H          116.26221229818240      104.77240524664164      120.90627966052256
H          115.38922455823155      106.31494565515665      119.11314773291457
H          116.65290867528107      107.46789653903146      119.53284114375390
H          115.75467890716554      107.58081363998744      121.86267122393991
H          114.49383747265561      106.43372274435217      121.42030775817095
H          113.68921310968862      108.08001803856713      119.67736254422275
H          114.86453847762215      109.23989737724523      120.28752181406708
H          113.81590972029981      109.06077783956540      122.56126699637736
H          112.61037558473626      107.96073939942765      121.89968575579498
H          111.81690717407032      109.76611740400021      120.36606690412390
H          113.02797847120610      110.85631396842793      121.03622134651683
H          112.01927566290161      110.44859736716499      123.32632749638044
H          110.71469916238152      109.56211368854247      122.54654571464296
H          111.39049287023721      112.48600236133383      122.00066939702654
H          110.17642990272678      111.92541999289887      123.14750873970367
H          109.03292232131106      110.74085479215228      121.18369601253497
H          110.12024449386769      111.63926186428480      120.12391728867534
H          109.31422248856548      113.77756170987371      121.20934562802542
H          108.15577601385088      112.82274684091182      122.13257938777612
H          107.20430639226038      111.99747036593031      119.92036889069971
H          108.25611041499879      113.15439438727056      119.10711739215354
H          107.19463763757685      114.97372460890412      120.53721776279072
H          106.02873999559236      113.77583838279865      121.09169593151368
H          106.46030837495944      114.58872768474683      118.18111255453508
H          105.21172370029254      115.23892516056092      119.23933724526384
H          104.31781300485702      112.89507594784136      119.52684696834120
H          105.43995569033822      112.36042648008747      118.27078490016694
H          104.44868778221633      114.01746943757119      116.69520704780979
H          103.32001868477388      114.52352916687890      117.94946613380706
H          103.45000000977703      111.76695857639102      116.65340157108646
H          102.25323765673494      113.02348605958399      116.33682745716732
H          101.73234313126964      112.90379126430295      118.87677678282596
H          102.60129123590666      111.36879093707829      118.85557936854521
H          100.09224501698563      112.12317285471470      117.30724056888313
H          100.22188606511838      110.99141773348342      118.65223428446389
H          101.32121485379503      110.63042056109167      115.83397523281681
H           99.95342244934119      109.80478382364156      116.56698388962548
H          101.62191676680226      108.85632558907520      118.29142325520273
H          102.89591417247817      109.45252688725476      117.22921212993816
H          101.78569385147759      108.18405915212303      115.33229665845667
H          100.71557674725672      107.44882256005083      116.52147070550438
H          102.78165388057137      106.63432024454364      117.75711208034714
H          103.74949816482906      107.19413307717930      116.39968316999528
H          101.50908024012519      105.12601480157633      116.28197515928927
H          103.23187395994556      104.74928378937106      116.31501812974352
H          101.85687148527401      106.33229630305938      114.10776027411090
H          102.15042716086562      104.59733540907339      114.05993964585912
H          104.57964158213944      104.96664936862510      114.20850758872392
H          104.33792248289943      106.70990047333842      114.27702857796714
H          103.39397833761980      106.73890109412608      112.03133792565477
H          103.40908404291511      104.97724162807395      111.95129818585411
H          105.85482967818683      104.95725137852119      112.14260785275671
H          105.89660318555974      106.71509453225312      112.24705320365105
H          104.70684302135304      105.25753966616998      109.86466115050686
H          106.42853246815849      105.62176075190496      109.97029594363248
H          105.89832630691488      108.04107856157447      110.23212990750305
H          104.19135626041923      107.68686783401998      110.00025303005116
H          106.43121632409597      107.15969144816624      107.99668577282402
H          105.28994239125774      108.50057426349461      107.94147419369652
H          104.63186831518125      105.54309765032185      107.60904097244114
H          104.69998043195251      106.75905729466159      106.34244847386657
H          102.80742725351236      107.98564982515857      107.46045356494308
H          102.71337076436637      106.69283304611378      108.65391598340692
H          102.33552846858578      105.04968957791854      106.79707559759149
H          102.27880030760591      106.39439778372453      105.65662168121109
H          100.36691518804193      107.36308853344548      106.94812304356277
H          100.39700297716308      105.96000262879970      108.01332456948778
H          100.07442395686988      104.49437418002455      105.95934251276503
H           99.79739745978500      105.95842578007915      105.02706422248498
H           98.18016128249546      104.96473455530217      107.41348779192927
H           97.68784771701826      104.88295759845366      105.72250717098076
H           98.13406278762851      107.46645336161698      107.27910716926846
H           96.57940098889583      106.68655351406365      107.02682623975505
H           96.81978123757627      106.95913474291417      104.57108192137818
H           98.36810957629434      107.76760935385876      104.80592923213173
H           97.27541795456204      109.54612532849511      106.12707588260638
H           95.72297923481489      108.72750329711300      105.96550509005861
H           95.80267012324366      109.02814854226386      103.50598725315152
H           97.36021283464066      109.84289748770206      103.64719610199330
H           96.34336515942574      111.63994947447362      104.98975397309927
H           94.79711317096343      110.79197258215487      105.00351192032531
H           94.61662576784724      111.03878227610356      102.55141591974520
H           96.17925755692656      111.86095768126178      102.50698708220850
H           95.26347481622304      113.68314812722404      103.94292998338818
H           94.29666981018119      113.49941579425379      102.47567119039145
H           93.70828022154728      112.85621700179946      104.00812153798532
H           94.90441866438405      112.21947898616895      108.86451413747683
H           96.59042006058161      112.64937865436566      108.58730693008049
H           95.74226835209608      111.60801641798004      107.44046707940834
C          109.01030746935402      117.12560169545495      129.31645661642116
C          110.50713141120235      116.84157813854675      129.29410255424904
C          111.27827521570038      117.93708829173349      128.56043231052180
C          112.79671009368921      117.79621310861694      128.67597919955762
C          113.34921954090058      116.57756219450530      127.94123556237906
C          114.87139770268682      116.48849146719726      128.03479318147723
C          115.40868997499338      115.29170997501629      127.25515117004565
C          116.92421920496010      115.14146036286705      127.35621075217389
C          117.42372264795547      113.95153489498642      126.53957506342914
C          118.93462534206797      113.76209366890220      126.64731236869322
C          119.42997004099584      112.60456337217221      125.78300839468565
C          120.93686081578818      112.39045713112392      125.91309515066402
C          121.44721297849905      111.32572292425465      124.94474443112473
C          122.94822464728261      111.07430809615160      125.09288902310062
C          123.54770113304282      110.31242201963751      123.90956865938222
C          123.08177269773149      108.86168620368294      123.79859770483380
C          123.54003562888995      108.22218615321145      122.48802220420485
C          122.93764055316034      106.83333991344280      122.28228298555011
C          123.44236041340451      106.12923578389019      121.02059512281770
C          123.00465851696042      106.81425792592078      119.72763444535542
C          123.44957286832845      106.04689395522648      118.48301098611775