3864
 energy: -5104.213296335719 gnorm: 0.000789969463 xtb: 6.6.1 (8d0f1dd)
C           40.09326924489021       34.74766745332727       41.25922857157831
C           39.32840173118717       34.71456301021455       40.10137462624525
C           38.18261212581426       33.92711419539122       40.09110179824350
C           37.81397939009418       33.19811483772417       41.20729804997850
C           38.58728912605432       33.24034268710825       42.35537179014240
C           39.73152181383772       34.01740452599235       42.37692934082348
C           39.74445261423809       35.51639130427647       38.89139187059551
C           40.04669264531145       34.58409866496246       37.71598241314546
C           38.65371283392815       36.54514765565109       38.55812703540280
C           39.02871537837661       37.56417970451478       37.46896391096275
C           37.77750641139503       38.29626818004817       37.04887866867586
C           37.25077610377317       38.10377721048139       35.77799668859956
C           36.08009728386361       38.73054874754146       35.38875248038121
C           35.40798667251806       39.55429214747246       36.27315741187137
C           35.92378125241160       39.75614189191469       37.54107553942576
C           37.09875385645356       39.13670853705826       37.92383388518484
C           40.12174620474604       38.52877761138574       37.94028714914614
C           40.50252550595522       39.56183489192983       36.86776252516017
C           40.89701587947992       38.87787146728743       35.58594875875060
C           40.17385011762604       39.09406952621881       34.41909625428308
C           40.52908239620353       38.46935913352910       33.23619588372200
C           41.61530147615663       37.61201610244043       33.20176682863113
C           42.33887210295074       37.38254906569787       34.36038474129561
C           41.98124085234444       38.00775259546516       35.54035510171317
C           41.61697904420321       40.46557569625161       37.41537688531542
C           41.89871517142574       41.71593054026213       36.56607152259989
C           42.47881840162868       42.81612526072279       37.42294690574719
C           43.67378593635581       42.61765759880847       38.10589481907098
C           44.27162894853195       43.65045259870332       38.80528363726631
C           43.67743664407259       44.90035183586669       38.83907126758411
C           42.45740226906301       45.09327834024659       38.21508736130783
C           41.86133452324048       44.05702265877112       37.51631140139730
C           42.87063139205539       41.39668455340180       35.41832384523591
C           43.23904955919475       42.64486201534839       34.60337311582332
C           41.99467313485413       43.21281574697478       33.96186765920763
C           41.24169125130401       42.45545004798427       33.07011942922797
C           40.08430376834973       42.96286707142203       32.50894428116462
C           39.64437149161503       44.23286852683458       32.84217764298796
C           40.38488033170966       44.99722542635485       33.72513040760749
C           41.55472068106130       44.49346126620769       34.26712548459411
C           44.30281471551993       42.38361514444527       33.51918964713663
C           45.45549561920217       41.44459885058586       33.90805375244688
C           46.36637909175557       41.26835587157808       32.71507713688822
C           46.48673744048359       40.03237168714330       32.09332009303237
C           47.32728064496378       39.85645544128864       31.00832461034826
C           48.06415734669254       40.92194340771651       30.52371927080145
C           47.95315185806734       42.16039593483929       31.13236987727317
C           47.11284089917466       42.33056573805549       32.21644743268526
C           46.28228937129549       41.90140310777727       35.11807027917516
C           47.17054637794330       40.73942101332062       35.61062166433027
C           46.44479398337438       39.91132128466545       36.64004135463284
C           45.91615785203948       38.67084552332010       36.30361166488804
C           45.23979460240635       37.90694929434311       37.23994897813539
C           45.07957751545787       38.37551390102521       38.53236937776212
C           45.61269029700610       39.60332079763275       38.88628040095886
C           46.28765798852100       40.36303017039928       37.94637087127664
C           48.52795555154513       41.23894079536413       36.13162561540068
C           49.52983062309547       41.40513463470971       34.98740593976652
C           49.81176836005363       40.12188796303603       34.24073211358773
C           50.31259770905896       40.21281019713989       32.94562135188379
C           50.60876070902989       39.08133771616968       32.21009994536769
C           50.40301338767189       37.82519083671442       32.75570969446962
C           49.90546149074058       37.71933517905175       34.04184098383566
C           49.61653928994146       38.85592500378348       34.77794640684352
C           50.86202442439753       41.99945266763470       35.48244814087364
C           50.75950403512699       43.48493768570653       35.85719787818621
C           50.11222945319864       44.29263065153582       34.75833169128298
C           48.99562755247171       45.07562478621750       35.01939494912738
C           48.42412894695706       45.86114641622886       34.03393569327645
C           48.96402389786057       45.86971347863754       32.75955462266987
C           50.07397213571140       45.08844995172534       32.48234701197590
C           50.64437400971269       44.31110229397961       33.47324027385120
C           52.13792652669460       44.11160939644341       36.11768136930340
C           52.92740974356914       43.54242127434171       37.30473826457589
C           54.33273323916180       44.09007854678246       37.25858193098043
C           54.57868394297763       45.45734042720689       37.28597981123174
C           55.87129581669708       45.94554740782878       37.24832110844098
C           56.94669886442552       45.07544983358192       37.19159741314934
C           56.71666750423395       43.71107686483866       37.15719698041342
C           55.41981432541910       43.22760894216690       37.18493963123084
C           52.25210602961000       43.85898303744426       38.64803106531337
C           53.15641550791253       43.52681765534087       39.84912960531651
C           53.83621360741623       44.74376663217813       40.42354178505892
C           53.10245819192479       45.82484860072896       40.89900709361950
C           53.73599386396454       46.91669757854847       41.46398759563493
C           55.11411450958604       46.93500945218067       41.58790139525001
C           55.85521665663962       45.86136173326506       41.12809295213541
C           55.21899466728203       44.77982586027732       40.54612105996365
C           52.38337321062535       42.80389325439715       40.96650356064837
C           52.25877846225375       41.29304301051477       40.70794187415582
C           51.17476026572081       40.71723232742940       41.58599699243001
C           51.28542795176402       40.73706176185103       42.97254783755627
C           50.27467236701859       40.24933690879838       43.78097668533420
C           49.11238363038938       39.75682918261899       43.21156037821996
C           48.97997414788955       39.74029403180305       41.83349371313118
C           50.01237770761768       40.19808744799253       41.02943719186773
C           53.60216147140798       40.58924757861474       40.94506297557883
C           53.53609997752810       39.10437941736269       40.57220788405418
C           53.22242964098701       38.94551567602225       39.10319944075276
C           52.11342959243579       38.22003620828273       38.68867127075984
C           51.82024453115901       38.07097402452224       37.34458753179074
C           52.62603361895207       38.65919651335890       36.38600927412049
C           53.73562675979013       39.38500861643551       36.78571544462471
C           54.03334789566633       39.51914129058888       38.12952950502409
C           54.83241668488909       38.33831122507690       40.88980689710571
C           55.38923532993823       38.52767429843116       42.31128296220785
C           56.59541092452409       37.63879191264791       42.48928796397063
C           57.86550672779236       38.19174518753395       42.59380133396307
C           58.97924196300473       37.39176437553159       42.78052615019481
C           58.83841968486692       36.01714267023835       42.85708133074006
C           57.58023560482393       35.45113658407887       42.73652531383988
C           56.46981278301344       36.25556949018117       42.55522131821325
C           54.34257713255529       38.25866281520599       43.39966955831251
C           54.92087115299135       38.38736677570367       44.81825378514979
C           55.77199939456239       39.62311450604287       44.98086175821291
C           57.10421407193017       39.51042917564784       45.35424581218816
C           57.89736917378543       40.63300294782298       45.51609261949385
C           57.36678715609889       41.89406438497812       45.30955900554381
C           56.03576294540710       42.02164920415324       44.94788632053609
C           55.24829161097225       40.89653971216297       44.78828238211597
C           53.80354990443183       38.43259292894604       45.87047178710464
C           53.01580981068434       37.12371265299578       46.04679185452851
C           51.69975772056221       37.45814551486117       46.70138746069476
C           50.49673705398032       37.19344115830413       46.06088506464425
C           49.29394475077029       37.58733071107274       46.62262328492609
C           49.28009754689761       38.26663093841847       47.82741697124991
C           50.47411169032235       38.52994786352102       48.47566829463960
C           51.67154226895514       38.12022825782226       47.92308008336617
C           53.83372996285719       36.10633068812311       46.84931678518493
C           53.18344582854297       34.72226303344913       46.92404472450207
C           52.83726513133671       34.14779435568241       45.57215075784597
C           53.78530950201545       34.06885921697799       44.55746965183075
C           53.49940628841090       33.42047720684807       43.36984345218227
C           52.25931090565606       32.83430414601612       43.17559796079573
C           51.29770114438325       32.92775026804433       44.16656054158862
C           51.58702370895141       33.58264498134051       45.35157953774342
C           54.12656059753669       33.71041386795279       47.60583306549677
C           54.14251655339867       33.74727379263907       49.14202028861002
C           55.35075168751695       32.98704879092149       49.63407948779527
C           56.31150343567149       33.61387231448655       50.41647221690071
C           57.41807502056503       32.92643736619492       50.88232550887664
C           57.58299037118692       31.58930272445425       50.56960516437752
C           56.63668234875070       30.95206355084448       49.78517632601606
C           55.53347243184635       31.64459254236773       49.32179290056412
C           52.84719251890721       33.15007681036212       49.70851473147033
C           52.86303446801851       32.96156908478833       51.23195528655687
H           40.66481065246925       36.04968171476564       39.14826627069869
H           37.75570893184477       36.01442006841847       38.23206708728195
H           38.40076340791513       37.08483424777435       39.47330135635523
H           39.40304096747189       37.02081803795816       36.59597428471412
H           39.78347196209766       39.05633059555079       38.83415357902398
H           41.01147658031544       37.95975924940583       38.21182306428801
H           39.61865464226991       40.17837003611853       36.66290951995799
H           41.31426157914775       40.78916212377396       38.41247732840479
H           42.53495261471154       39.88592896305725       37.52953633582714
H           40.95456852646375       42.07460789720928       36.13842761378968
H           42.42602408174739       40.64980052374055       34.76142948152237
H           43.63820161386425       43.39422742999841       35.29499860393751
H           43.81896697609841       41.94442648155052       32.64213058488269
H           44.71007041750659       43.34926297461931       33.21031548985353
H           45.01902912581598       40.46789603686905       34.14171051410475
H           46.90847348638846       42.74592447227015       34.82806486993258
H           45.62867184247538       42.23605810660483       35.92447899252852
H           47.37246532411309       40.09539242661722       34.74860926797589
H           48.39603404498524       42.19897184929451       36.62975223817494
H           48.93136902771976       40.53990878668460       36.86767246895976
H           49.10409395079899       42.10271083353315       34.25605419051222
H           50.15404269451615       43.58355877732528       36.76217396493251
H           52.74087751620186       43.99325820434761       35.21584791777963
H           51.99384669744494       45.18430913497526       36.26937977879250
H           52.99120757425398       42.45342312999809       37.20079456550442
H           51.97835074470701       44.91350607146681       38.66756570345750
H           51.33123337704884       43.27801447072202       38.71720882415084
H           53.94361681916045       42.85501324826177       39.49766163369785
H           52.90063155747327       42.95828484132650       41.91619596487369
H           51.38558383844254       43.23792797632716       41.05728543554928
H           51.96991847546897       41.14265758441461       39.66196042399739
H           54.38256030403620       41.07355749181801       40.35805564230672
H           53.87796170105842       40.69742357654019       41.99228107464792
H           52.72217545640059       38.64643117049824       41.14216177481735
H           54.64093115834425       37.27602135940396       40.71733642354307
H           55.61300235279038       38.64060389769447       40.18660452354319
H           55.73046851396517       39.56309398380095       42.40846239640745
H           53.51579759195364       38.95919976874483       43.28904585223651
H           53.93593579678146       37.25551970601866       43.26685357740087
H           55.56157540505477       37.51974624185098       45.00696211672112
H           54.24596037082375       38.71095201543183       46.83082242088623
H           53.09845698501395       39.21828386105002       45.58985275598338
H           52.80464926562473       36.69707162193414       45.06173487348968
H           54.81725065937246       36.00843184536811       46.38895562579046
H           53.98630147382085       36.48187831029808       47.86297167446389
H           52.25768296116375       34.80539155989401       47.50134017329791
H           53.83864883895876       32.70395626772046       47.29093973194489
H           55.14279590094918       33.87631641097895       47.23952688537295
H           40.98779132190152       35.35324628008858       41.28423124152859
H           40.34630829009303       34.05468243405201       43.26439111437067
H           38.29758109565642       32.66852479512696       43.22538720997441
H           36.91938107897226       32.59199820693281       41.18108119801040
H           37.56822152500118       33.87904051961562       39.20386136866475
H           37.76525792970511       37.45332988983050       35.08342257168741
H           35.68795392558588       38.57141454515347       34.39411746306529
H           34.48986508550281       40.03701256244663       35.97572968873364
H           35.39984717659379       40.39441501258435       38.23775644098266
H           37.48462422608144       39.30783818856870       38.91776453241744
H           39.32040287665302       39.75761352920125       34.43502281864229
H           39.95540161437192       38.65181752630028       32.33788915141494
H           41.89469017945796       37.12453973182823       32.27842676868122
H           43.18594384636911       36.71112699490234       34.34124730182478
H           42.55911858919367       37.82302259545322       36.43327840422064
H           44.14448033687502       41.64708176048040       38.08238935102565
H           45.21017469437098       43.48429185119354       39.31526879492849
H           44.16974950920045       45.71943983833144       39.34322963452233
H           41.97113133698183       46.05704353929977       38.25521855589649
H           40.91217666417291       44.22140506409275       37.02379753564575
H           43.76944949752554       40.96135239597078       35.85335406936676
H           41.55436312853627       41.45286859646224       32.81188607243818
H           39.51789318122930       42.35927166655628       31.81282257952759
H           38.72883268993697       44.61998782302290       32.41818073098609
H           40.04432488273557       45.98564620462078       33.99998593946385
H           42.13390492894307       45.10275924934177       34.94487587607580
H           45.91305810430477       39.19235101303428       32.46203158689424
H           47.41020197227914       38.88455467192068       30.54261462187032
H           48.72229939792662       40.78713850853521       29.67743160932925
H           48.52833105097994       42.99842036584227       30.76453696419037
H           47.04306983762549       43.30676058026679       32.67498412924905
H           46.04183298242961       38.29589298929548       35.29610183927286
H           44.84531044447738       36.93885905834089       36.96230297801327
H           44.54166186032391       37.78873625634812       39.26332894218967
H           45.49092974206300       39.96963482915837       39.89540802154522
H           46.69265234930048       41.32256626681903       38.22966902042766
H           50.46393677112851       41.18891103022906       32.50548733897751
H           50.99623408106034       39.17700021511671       31.20527626548668
H           50.62876148736389       36.93732939830478       32.18187965812906
H           49.74506595143672       36.74303716376177       34.47875245563963
H           49.23158387929789       38.73766567468413       35.77829042778061
H           51.20522134041936       41.41862579603664       36.34127195488028
H           51.61002339282815       41.88503450997113       34.69479705426684
H           48.56583859008971       45.07667358612149       36.01099895584116
H           47.55574741427171       46.46366910152542       34.26015281938188
H           48.52439132178418       46.48253146111673       31.98392250461084
H           50.50551351751903       45.08546639072942       31.48958189440754
H           51.51734904347737       43.72015809076866       33.23562268697821
H           53.75579395683724       46.15324915040638       37.33508035042782
H           56.04628094473998       47.01074863807411       37.26696165011487
H           57.95627921138167       45.46054374398775       37.17290062377841
H           57.54950016301464       43.02241023902013       37.10294867066342
H           55.24927354917387       42.15937324322884       37.14942101466548
H           52.02304159463180       45.80313686579188       40.83469744701328
H           53.15930176675261       47.76065026086327       41.80972228355677
H           55.60594287150446       47.77580066191961       42.05569531319037
H           56.93251995146983       45.86044666362857       41.22287176429334
H           55.80910373821877       43.94946431732750       40.18190418908782
H           52.17116685858671       41.15043148510944       43.43079780690682
H           50.38527181834537       40.26578940024684       44.85632149904501
H           48.31205455062333       39.39620558483724       43.84086875384116
H           48.06129225269046       39.38756707660404       41.38418085008397
H           49.91057354941793       40.16088678759167       39.95330058258322
H           51.46559803281141       37.76232571803749       39.42099156781546
H           50.95831385598238       37.49079694727432       37.04886140007992
H           52.39175742702490       38.55440553364397       35.33645014342424
H           54.37240659520028       39.84371774011989       36.04121144615448
H           54.91214106692640       40.07690542868666       38.42147899355101
H           57.98543778567708       39.26486195500672       42.53871680484628
H           59.95811677346331       37.83987591297924       42.87549668596055
H           59.70405121232208       35.38931765575548       43.00978661735273
H           57.46915430187070       34.37716091129167       42.78874363716186
H           55.49433082274729       35.79948777419214       42.46737198486631
H           57.53236491595337       38.53071419287001       45.50853613931987
H           58.93653679116633       40.51743610116812       45.79484814627820
H           57.98412209323168       42.77228661050182       45.42977515022785
H           55.61446662978550       43.00458379357929       44.78835578246964
H           54.21184888436164       41.01098453818953       44.50877915955219
H           50.50354237192936       36.68174551266387       45.10860782584435
H           48.36375896191799       37.37384154510376       46.11464631769317
H           48.34697185526108       38.58763502836553       48.26634120142403
H           50.47484899917824       39.06916326709042       49.41232126407861
H           52.59522323492056       38.33258324142056       48.43866202589547
H           54.76094276822102       34.50733391670661       44.70004413799608
H           54.24909957036790       33.36005116353476       42.59257906747294
H           52.04654448706210       32.30873761115633       42.25550074315913
H           50.32183450599195       32.48552050062739       44.02225088784928
H           50.82783502859925       33.64362682013559       46.11905521042211
H           54.80674459397325       31.12672350093425       48.71350489761375
H           56.75832079770816       29.90736893701403       49.53495587995596
H           58.44315649745452       31.04602859746755       50.93439313358400
H           58.15027538106366       33.43287488016504       51.49636721989281
H           56.18670783467462       34.65360740282466       50.67809292439076
H           39.13911646584306       34.10364374455801       37.35808975241506
H           40.49359170496808       35.13358079738185       36.89108156400401
H           40.74573338995759       33.80950160360032       38.02636296181828
H           54.22458021268447       34.78509361742287       49.47954707272655
H           52.00931110550706       33.79693397663310       49.44321160880813
H           52.67967557641791       32.18128669741533       49.23512883307147
C           51.65442473763588       32.12441470594828       51.67820625236550
C           52.86798480369281       34.29285375033983       51.94301866632697
C           53.98059957259449       34.70723756078198       52.66531422413566
C           53.99163156490302       35.93080899887240       53.31326747748763
C           52.87764860953277       36.75157586944767       53.27608534209348
C           51.75869954917163       36.34124889415501       52.57167076690853
C           51.75847087173762       35.12947477390247       51.90442968162055
H           54.84555568130600       34.06079611153105       52.72458352144378
H           54.87198856794265       36.24296614249106       53.85713239783038
H           52.88253781331781       37.69702880645032       53.79936052299171
H           50.87157746086667       36.95758186993928       52.54049203915839
H           50.87298990857341       34.83476938187427       51.36089382674068
C           51.80584513554491       30.62945625942828       51.37178070317797
H           51.52039187078299       32.24326467353669       52.75427036122559
H           50.75236916586392       32.49607689091815       51.18839450173750
C           50.51987829487848       29.90430052805939       51.64626275007644
C           49.45011686046251       30.03071139581256       50.76620001884406
C           48.24762167042890       29.39617778235500       51.01606190524181
C           48.09619790351725       28.61787021138692       52.15126442704034
C           49.15397617850071       28.48225951364725       53.03417378724340
C           50.35471258629718       29.12506210713534       52.78343946763817
H           49.56744170842454       30.62800384443856       49.87275544154009
H           47.42384036140619       29.50289653648278       50.32478269632809
H           47.15592149871518       28.12264250721667       52.34403114268231
H           49.04556926999121       27.87826853861280       53.92449516538816
H           51.17451207364837       29.01295868468696       53.47908230936706
H           53.77450802012216       32.41942677050132       51.50783316460108
H           52.07215640520560       30.49207229936833       50.32188493500002
H           52.61216685079270       30.21391478203645       51.97947131899600
C           46.54366153124589       61.45509045377514       61.14931468862168
C           45.74207635626014       61.70877376064441       60.04335372578944
C           46.14323224771942       61.21723686307960       58.80637188778113
C           47.29543348748516       60.46229836560669       58.68670754390930
C           48.07553087496789       60.19854626462763       59.79981578625976
C           47.70246330497718       60.70664250173976       61.03151125922120
C           44.45737824603487       62.48330361211411       60.19569145022746
C           44.52591968659925       63.80513849778274       59.42730370051676
C           43.24935044485714       61.65960835920130       59.72560947259227
C           43.14888336856245       60.29767350680363       60.42577366225245
C           43.08624131986291       60.46337799837071       61.92346639823365
C           42.04682874168507       61.16337561612595       62.52554219343727
C           41.99583428781902       61.31478612324445       63.89912565496750
C           42.98554655948374       60.76561670816960       64.69684335974766
C           44.01850426603698       60.05656912964618       64.11001205302746
C           44.06355381352604       59.90350835220901       62.73574296439341
C           41.93227048612260       59.48667720160788       59.93486448388069
C           42.27425879149557       58.52503421255948       58.78899813781699
C           42.69391466265140       59.26632145007611       57.54170170373155
C           41.79475708176205       60.06297327620423       56.83905630399605
C           42.18097745959731       60.72128122068504       55.68619339779235
C           43.47362255886424       60.59208846695044       55.20611620928972
C           44.37870539429836       59.80944817593782       55.89962619609785
C           43.99070100292579       59.15439562892645       57.05672274804680
C           41.10114351455474       57.59189883332136       58.43951411994883
C           40.67363582304443       56.60677531740431       59.53917962046691
C           39.36178751279962       55.96337962514972       59.15559609159090
C           38.25871229524770       56.05266614769177       59.99484307262613
C           37.05991866430275       55.44416782395722       59.66467465019367
C           36.94281327601666       54.74077585644002       58.47873933779211
C           38.03070189425033       54.65335237182298       57.62673825373955
C           39.22823628673919       55.25530672881031       57.96614752850316
C           41.72329553158762       55.52068841980623       59.80519752931842
C           41.39929918055646       54.72345554697198       61.07844820761560
C           41.73085176700911       55.54130776682977       62.30168454239587
C           43.04328218398533       55.89129097964795       62.60096753173303
C           43.33991441106960       56.64000550595023       63.72448597989655
C           42.32840907778317       57.05711799897902       64.57179578228248
C           41.01745618248974       56.72134741107998       64.28256074528049
C           40.72401271462852       55.97028968441082       63.15729752060382
C           42.13911401963530       53.37877220202741       61.07169256203852
C           41.85379160809244       52.56088507286979       62.33631861978770
C           40.38191511283388       52.27026716280175       62.50514460447614
C           39.71659050173324       52.74737202425239       63.62941990247933
C           38.37730539992552       52.47535907683940       63.84134383626365
C           37.67758018237683       51.69927359406614       62.93443567919519
C           38.32626289219342       51.21699347389627       61.81152980013609
C           39.66115924915081       51.50852449408566       61.59363558791781
C           42.69488715709353       51.26874776267935       62.44732763260619
C           42.88829480950701       50.43795993855540       61.16091273613924
C           42.45191139226466       49.01044240236435       61.36617213324969
C           41.49010478488053       48.43427186385867       60.54707842284108
C           41.09914385365443       47.11998807817517       60.72913960984194
C           41.66503425152691       46.35819088425247       61.73619327534921
C           42.61841217041141       46.92440012652312       62.56325009865112
C           43.00756193516165       48.23731577474756       62.37924300150120
C           44.35853699164687       50.47789244403587       60.71271848562647
C           44.55550950632294       49.96958322945860       59.27610549554284
C           46.00617354248158       49.62466936131501       59.06029097397288
C           46.99356295472162       50.59928451951294       59.15769111593034
C           48.33026909154633       50.27004408964418       59.02428498035208