3864
 energy: -5104.070229919583 gnorm: 0.000978695615 xtb: 6.6.1 (8d0f1dd)
C           40.14997304171524       34.77434716516847       41.25003577541794
C           39.34226259642745       34.77034225456921       40.12117889595888
C           38.16478641783923       34.03208491654611       40.15565878812939
C           37.80512259714857       33.32550842321709       41.28875741241600
C           38.61997283661584       33.33942464595381       42.40812152037374
C           39.79753164552688       34.06467200940330       42.38398794293092
C           39.74956783043424       35.54549780979900       38.89094244685385
C           40.03179071061061       34.58376431734366       37.73438708896281
C           38.66415639089325       36.57484525861935       38.54264285944068
C           39.05311940524729       37.58669325865983       37.45208508298530
C           37.81000745994255       38.31930509911057       37.00808889855112
C           37.31244362499376       38.13324746029849       35.72468556745021
C           36.15260134720564       38.76479663204027       35.31186945676453
C           35.46209865829113       39.58579621017137       36.18436996582896
C           35.94867018597649       39.78051389280030       37.46478882419047
C           37.11352340472229       39.15696332739007       37.87162730362991
C           40.13910457244594       38.55508003678276       37.93276227300755
C           40.52845369653837       39.58526042449761       36.86073488603061
C           40.93766590571355       38.90230385720317       35.58240580740562
C           40.23067246355517       39.12466680174332       34.40681807694610
C           40.60673597677488       38.50938844085572       33.22547339922636
C           41.69702230554831       37.65709048345445       33.20197259755049
C           42.40246985808877       37.41999387573947       34.36987221452435
C           42.02387983137516       38.03443649004899       35.54910825238792
C           41.63827741061583       40.48991923055365       37.41649824022957
C           41.92284229501139       41.74153956429287       36.56977245301316
C           42.51068358594351       42.83613151922916       37.42805557592399
C           43.70308155138449       42.62805502103699       38.11286854660361
C           44.30998569309020       43.65627225476100       38.81125090218197
C           43.72809005103189       44.91218006357465       38.84212364314432
C           42.50870899921487       45.11409917575194       38.21909911349158
C           41.90356328453482       44.08240926451526       37.52147556619158
C           42.89085223630083       41.42094814958587       35.41902078775085
C           43.26023974439241       42.66794349245186       34.60218533494835
C           42.01366176291214       43.23758817945944       33.96555718738881
C           41.25725225262981       42.47975677557112       33.07721000830406
C           40.09691823778768       42.98709021852746       32.52252951701575
C           39.65836603454955       44.25680079104924       32.85830317680071
C           40.40306535609658       45.02182078307597       33.73705442047115
C           41.57588701340846       44.51822668020336       34.27354983325408
C           44.31904144096517       42.39979795903162       33.51447439829160
C           45.46248226484249       41.44848287031488       33.89835121132307
C           46.37926257524163       41.26712854056587       32.71004105256632
C           46.50955096356694       40.02553458438347       32.10184484051822
C           47.36565810708741       39.84198722505185       31.03059774779863
C           48.10667555637431       40.90481277660911       30.54692335288860
C           47.98394937423208       42.14893607491651       31.14108233583346
C           47.12857303155002       42.32730186840345       32.21214467450513
C           46.29315425043686       41.89461788242947       35.11034998362890
C           47.18121672125735       40.72735100990634       35.58915366072265
C           46.45019133790029       39.87464219472953       36.59415398621584
C           45.94845281819902       38.63030559105655       36.23131538779320
C           45.26676165200412       37.84356343456914       37.14412217553844
C           45.07218315689987       38.29302736532108       38.43864798654236
C           45.57940521201775       39.52372642166368       38.81987747332889
C           46.26225948417027       40.30547581578143       37.90344513734894
C           48.53206940428298       41.22267174807738       36.13097802574013
C           49.54149168495674       41.41163491819080       34.99641285479896
C           49.83858931933959       40.14075218712839       34.23319332811206
C           50.36303474283794       40.25678915023055       32.94963826842742
C           50.67007111245948       39.13850306363899       32.19871602710673
C           50.45210343334926       37.87309989235651       32.71689762652063
C           49.93196386859945       37.74306701931216       33.99153950224290
C           49.63138010609222       38.86608058986602       34.74399000199062
C           50.86311849735986       42.01232170006613       35.51071624357895
C           50.74437916284650       43.49518633554084       35.89159183233394
C           50.09844619388523       44.30325455740567       34.79183300354718
C           48.98063593570567       45.08488479186307       35.05120004316063
C           48.41007911948877       45.86965961928780       34.06427548364674
C           48.95203697748280       45.87773833095830       32.79075421237193
C           50.06349785033267       45.09785850958433       32.51565865086975
C           50.63338784636507       44.32197551448427       33.50786475792257
C           52.11470458270919       44.13397078223635       36.16486492424256
C           52.90633776704216       43.55967472043151       37.34756883826675
C           54.30928815556715       44.11495729650795       37.31186524633427
C           54.54653918888185       45.48353962353774       37.33553565485167
C           55.83693425556217       45.97873154233680       37.31147052672765
C           56.91754532717165       45.11435658658666       37.27179447218015
C           56.69549998757005       43.74866016979561       37.23968264971916
C           55.40143581076523       43.25780468452347       37.25404899354044
C           52.22721465046708       43.85933647872412       38.69355049360058
C           53.13451371966516       43.52426058542637       39.89132768483848
C           53.82576788796247       44.73671820754718       40.46224044336324
C           53.10147817864750       45.82111107848488       40.94457204913695
C           53.74582912332275       46.90778665320458       41.50785101273622
C           55.12482550924744       46.91737805894614       41.62269198412136
C           55.85624469383564       45.83979037261717       41.15668491947614
C           55.20949703763099       44.76328157959499       40.57758007597316
C           52.36429872452052       42.80773746883371       41.01498006397799
C           52.23988143789728       41.29498966448896       40.76816965218417
C           51.17191232753542       40.72389685231099       41.66916090161084
C           51.30351240593308       40.76140126411271       43.05363489170395
C           50.30853735187082       40.27836422478752       43.88427907639120
C           49.14130728562850       39.77011848955892       43.33931801858360
C           48.98846619979944       39.73418862396868       41.96376858006126
C           50.00442216620255       40.19008808689402       41.13765207035114
C           53.58819297476190       40.59453085671159       40.98708416457507
C           53.52217110376250       39.11356856905333       40.59815713405769
C           53.20842417342936       38.97311461785498       39.12653507062947
C           52.10154393743753       38.25021763085485       38.70264498006971
C           51.80816579281324       38.11993565668575       37.35652345651343
C           52.61093074311652       38.72561733494626       36.40649923774966
C           53.71872519227592       39.44852057135446       36.81601227210106
C           54.01797143626265       39.56262149301310       38.16139447197071
C           54.81731661297297       38.34324801826597       40.90893902257974
C           55.38386959751985       38.52777634958504       42.32685018684082
C           56.58364588149031       37.62827448046160       42.49951319759038
C           57.85809104696754       38.17120513152048       42.59957137148771
C           58.96529597366655       37.36171464394107       42.78380851851468
C           58.81235882391515       35.98860537469744       42.86305457935206
C           57.54949595596344       35.43285685185045       42.74530520595988
C           56.44542830979979       36.24644775880397       42.56548910661861
C           54.34305230152918       38.26671347975226       43.42320682752784
C           54.93082570818164       38.40428379898245       44.83751170749762
C           55.78481894748944       39.64033969709642       44.98560211628231
C           57.12268392577667       39.52836312258346       45.33898244659493
C           57.91983697852160       40.65108669745760       45.47887326450545
C           57.38775257252933       41.91148634563760       45.27138480337287
C           56.05072636315784       42.03862694715998       44.93203981356476
C           55.25940649878884       40.91320632187745       44.79356881025275
C           53.82077718414229       38.45589438371675       45.89719947000155
C           53.02763869950069       37.15076860256973       46.07983003852048
C           51.71897126330708       37.49307142097663       46.74502120292868
C           50.50994256562926       37.23958691331354       46.11106683978537
C           49.31411518637221       37.64495979341076       46.67921027851204
C           49.31308752851334       38.32458813231523       47.88396788469911
C           50.51290569749887       38.57361472964313       48.52745002486487
C           51.70356483776563       38.15247157635241       47.96855735108129
C           53.84684900635466       36.12798503329411       46.87377268575077
C           53.18921161661537       34.74763908726558       46.95495277568386
C           52.82602253425433       34.17412246939987       45.60694252468996
C           53.76292995769070       34.09184418598052       44.58239219776752
C           53.46225839683609       33.44155544983473       43.39940246388816
C           52.21932842679340       32.85668438651311       43.22115916176833
C           51.26891367489822       32.95326508022130       44.22242109784815
C           51.57245804860382       33.61053687861436       45.40258456430068
C           54.13447153639952       33.73252109727849       47.62866040490965
C           54.15826550097053       33.76965900046948       49.16430435157628
C           55.37484763184028       33.02288572326562       49.65718838028052
C           56.31631722913379       33.65548205843930       50.45798010665068
C           57.42745398868520       32.97963240108986       50.93016179441929
C           57.61607509590599       31.64917545002263       50.60324918055117
C           56.68930327768044       31.00694208828711       49.80006618742699
C           55.58073543699342       31.68720211919672       49.33157488290159
C           52.87153754827508       33.15759919964004       49.73447148587268
C           52.88847628538402       32.98758606871103       51.25971304778189
H           40.67706099770787       36.07705212528013       39.12644969970653
H           37.76858230946929       36.04594705107768       38.20865054786232
H           38.40353327408647       37.12026614326219       39.45228329471049
H           39.44206123984472       37.03893928697061       36.58862929830885
H           39.79075193018020       39.08552665222242       38.82159344705741
H           41.02814544816104       37.99051728552498       38.21693642812728
H           39.64672242004369       40.20169266650745       36.64874807861694
H           41.33168119262923       40.81193874406204       38.41312849397620
H           42.55691671349010       39.91189069199896       37.53468182875189
H           40.98015141927834       42.10720880658436       36.14711631363279
H           42.44113704826184       40.67651443468378       34.76415409298917
H           43.66497855655415       43.41655036637982       35.29181808687163
H           43.82905486111173       41.96779730055925       32.63824489072643
H           44.73519907145745       43.36272308694972       33.20944198211386
H           45.01814644675832       40.47519483489651       34.13069015402935
H           46.92059840865729       42.74074308265926       34.82618814255031
H           45.64526740546768       42.22580594229037       35.92334008476939
H           47.39485296822145       40.10249617448293       34.71671191634916
H           48.39237924497484       42.17357035953558       36.64623830548380
H           48.93229947126292       40.51387565656009       36.85998792626230
H           49.11344830849842       42.11639443589704       34.27372639369491
H           50.13127123505729       43.58516570287440       36.79333863624039
H           52.72260317563003       44.03261110327295       35.26472136745654
H           51.95818873491498       45.20345258487329       36.32870687941336
H           52.97466410005869       42.47207305202799       37.23612202412583
H           51.94306286250541       44.91141723229639       38.72416249852741
H           51.31021856716757       43.27079820129980       38.75915321291157
H           53.91493558158492       42.84721598144747       39.53646250717372
H           52.88343487654308       42.96993873792286       41.96282876038383
H           51.36575144326294       43.24149687645821       41.10644405956290
H           51.93241410647831       41.13836684639222       39.72856925291912
H           54.36128758666594       41.08805394001693       40.39865255018182
H           53.87164263676326       40.69573433704731       42.03304375159157
H           52.70692411846891       38.65251072442080       41.16412898835108
H           54.61987571528395       37.28254069913624       40.73600269540732
H           55.59461406405848       38.64501513657198       40.20265818854512
H           55.73229644005033       39.56106096812157       42.42293853116220
H           53.51384004199773       38.96554643494583       43.31535047281410
H           53.93528443887296       37.26275091623815       43.30021727903189
H           55.57190194736279       37.53754392058686       45.02719765889668
H           54.27044902477635       38.73329024486569       46.85463112034166
H           53.11706865442360       39.24495775933992       45.62115718047543
H           52.80477605826633       36.72692491636403       45.09626673589598
H           54.82471495963639       36.02513249351812       46.40265725501140
H           54.01233303164504       36.50360843303717       47.88560534006413
H           52.27012547949257       34.83846249023889       47.54215920074568
H           53.84070589200696       32.72797379180612       47.31448021065079
H           55.14828337160223       33.89730408879004       47.25594923739758
H           41.07122716396199       35.33950281473096       41.23838352523403
H           40.44632441065833       34.07705749274430       43.24784223394070
H           38.33806460901790       32.78478991145400       43.29144674866892
H           36.88532360290814       32.75858062842269       41.29791360274138
H           37.51924926645368       34.00575252931215       39.29028637468485
H           37.84157697962052       37.48425364692969       35.04061264170737
H           35.78316749716738       38.61112280249251       34.30845963302042
H           34.55229898492227       40.07232757744801       35.86931469098832
H           35.41022494488369       40.41595861616884       38.15313312046651
H           37.47740030812175       39.32244682160471       38.87512857176336
H           39.37592366880602       39.78572971387708       34.41605904173855
H           40.04650205833224       38.69656238247582       32.32051166563879
H           41.99382286211897       37.17866269970765       32.28004840343498
H           43.25187868681871       36.75191118075888       34.36074630650418
H           42.58691772300388       37.84435997525185       36.45055754810902
H           44.16522873724117       41.65349179126576       38.09222085451123
H           45.24603450507389       43.48269461339801       39.32406295600253
H           44.22976205074414       45.72807260573935       39.34331839371772
H           42.03138092955852       46.08223996854100       38.26050152259364
H           40.95613815512181       44.25500904754492       37.03020738174381
H           43.78876541584874       40.98254542046684       35.85269412726360
H           41.57096837487791       41.47845272303690       32.81826127430048
H           39.52829307070700       42.38420967004792       31.82915327489765
H           38.74114853966289       44.64452237573313       32.44078553788054
H           40.06520537954714       46.01060399405641       34.01390729495872
H           42.15914968994655       45.12706758179625       34.94852446715181
H           45.93112340190342       39.18965353464857       32.47168333297908
H           47.45700225374370       38.86645073875750       30.57586989087343
H           48.77667144759356       40.76454855692211       29.71174202935644
H           48.56015716004515       42.98608364591502       30.77384931706393
H           47.04978828323765       43.30705156471963       32.66215680254049
H           46.10098342019892       38.27259952828430       35.22229533605007
H           44.89352849771700       36.87338376787577       36.84832523034324
H           44.52850122693124       37.68919618321100       39.15093363818097
H           45.43425380215991       39.87591113505999       39.83142880326346
H           46.65037183146928       41.26618697435677       38.20834163707448
H           50.52315147046842       41.24134540306856       32.53332447488470
H           51.07590100806368       39.25308493112816       31.20410424993315
H           50.68603777373250       36.99602316112813       32.13134009447717
H           49.76194089853026       36.76025290691289       34.40850376043969
H           49.22860142005226       38.73149595162587       35.73529433274953
H           51.19875815951409       41.43138256652306       36.37261395825313
H           51.62214111499181       41.90914411816566       34.73301448998699
H           48.54908351128023       45.08565714723714       36.04284679202927
H           47.54130731860620       46.47148666829997       34.29129464034916
H           48.51179608430647       46.49069531128945       32.01633984450114
H           50.49674458280694       45.09533605019826       31.52508270654029
H           51.50761768711411       43.73275161177160       33.27517414543779
H           53.71885353693780       46.17473663679662       37.37095660624258
H           56.00284124389620       47.04529648982381       37.32644851471679
H           57.92382382515775       45.50629909457279       37.26316877830976
H           57.53184620908184       43.06512508435902       37.19737446523919
H           55.23513384130873       42.18949757691033       37.22043682582742
H           52.02080056014299       45.80708867563195       40.88823828061341
H           53.17546013937238       47.75395062039658       41.86046770202798
H           55.62200960058620       47.75532717313107       42.08953381421554
H           56.93298411251030       45.83316525802100       41.24504892612322
H           55.79012739886531       43.92940592085162       40.20987607968545
H           52.19335749871895       41.18659065472229       43.49282537373809
H           50.43497931289963       40.31143762612133       44.95741323470384
H           48.35363124865206       39.41358549020053       43.98636185734190
H           48.06586853894675       39.36806502173584       41.53400339378496
H           49.88571716760931       40.14135427670456       40.06403039495365
H           51.45670637506667       37.78019979154871       39.42978917260555
H           50.94882838320359       37.54008869438493       37.05475529271387
H           52.37597853940544       38.63548073591405       35.35668317563319
H           54.35390405194925       39.92030784253456       36.07923157095618
H           54.89638427246086       40.11579901039936       38.46285018110650
H           57.98495946800384       39.24317729284850       42.54224456498983
H           59.94700284793137       37.80268887907084       42.87398503183169
H           59.67200848413238       35.35331656259877       43.01412941463398
H           57.42811630275676       34.36037980389369       42.79742367143021
H           55.46537990694131       35.79988200514597       42.47791154810173
H           57.55060226765112       38.54905647379832       45.49332568062830
H           58.96298589644437       40.53571474502446       45.73955510759592
H           58.00639027672149       42.79046394687435       45.37349895148787
H           55.62682842460919       43.02067364174842       44.77130847067851
H           54.21832040806252       41.02689763644233       44.53019406777925
H           50.50689344855139       36.72911481082037       45.15836487062828
H           48.37948603241811       37.44078714437294       46.17612096205652
H           48.38572910270265       38.65706742217242       48.32638437089237
H           50.52411646930576       39.11071044807977       49.46522393074603
H           52.63176274010225       38.35467235003116       48.48026559684759
H           54.74053841832027       34.52924724768084       44.71451019330050
H           54.20350878784808       33.37919361869080       42.61479167034014
H           51.99625536565117       32.32841812955696       42.30595813010704
H           50.29163410340317       32.51166856846459       44.09169947710396
H           50.82352175897454       33.67490760370551       46.17987874356997
H           54.86819154772241       31.16743874196643       48.70879666751663
H           56.82858127095702       29.96769562254903       49.53967599502690
H           58.47920949047899       31.11545609507881       50.97285388467439
H           58.14204530616011       33.49115712340280       51.56030868905348
H           56.17089512141519       34.69046472831573       50.72864415159263
H           39.11862935331909       34.08982785191129       37.41122020182499
H           40.45783362968096       35.11305776933906       36.88546197474344
H           40.74149367827322       33.82157942600526       38.05072681859555
H           54.22774709463034       34.80912899126572       49.50117386137089
H           52.02301175026037       33.78662941976959       49.45894849365862
H           52.72249260425203       32.18047314647897       49.27253515874758
C           51.68573715014151       32.14808575001418       51.71679453606853
C           52.88578192118560       34.32777660099841       51.95391266520033
C           53.98986823601093       34.75041670477936       52.68474663431329
C           53.99578642753910       35.98369705062297       53.31413090504003
C           52.88425102060229       36.80633741195487       53.25132304801473
C           51.77279152996091       36.38687725106004       52.54029632613259
C           51.77827742910490       35.16563597347706       51.89041971012009
H           54.85167922803916       34.10282837025927       52.76517018351187
H           54.86940025031404       36.30352293321771       53.86396128916010
H           52.88481896354243       37.76027256808549       53.75946427626796
H           50.88682994985714       37.00331706194762       52.49074673581740
H           50.89821156141399       34.86526134174561       51.34132340641981
C           51.84171294070332       30.65201934477675       51.41954333612821
H           51.55739157958051       32.27472127323612       52.79267040980503
H           50.77949226625785       32.51411342913843       51.22983959134135
C           50.57016387585622       29.91936775002354       51.73964803792288
C           49.47713975980449       30.01755010134742       50.88525129423739
C           48.28906427148530       29.37393749736721       51.17810158485899
C           48.17650820517063       28.61692519209053       52.33200049813065
C           49.25700697163970       28.51200061796969       53.19127267038949
C           50.44346029170669       29.16201259365262       52.89622607482438
H           49.56531692447747       30.59859734297319       49.97746414755940
H           47.44759859854957       29.45715926411499       50.50535712229727
H           47.24864633130893       28.11287614275292       52.55649416938252
H           49.17792046327543       27.92788717609550       54.09707398563960
H           51.28378224260290       29.07235680613441       53.56995397338426
H           53.80378405775785       32.45559433023371       51.54124087434873
H           52.07909625567197       30.50717956501027       50.36375353287669
H           52.66901822696762       30.25070951257777       52.00821654730720
C           46.50467480702272       61.43960330352942       61.10330879422192
C           45.69323906490235       61.71868300839889       60.01068034908818
C           46.08181700037282       61.25357604186885       58.75952613175703
C           47.22953071725646       60.49616269778865       58.61359763883036
C           48.01859300652301       60.20537812930520       59.71361276433731
C           47.65927690608720       60.68984542558798       60.95886576910880
C           44.40823954674686       62.48617597929562       60.19283274531853
C           44.45752742659027       63.81949781474940       59.44359508997361
C           43.19872759976708       61.66138906897788       59.72800108261143
C           43.11909813208677       60.28754039841670       60.40783363486073
C           43.07636282993759       60.42586880572858       61.90934891024257
C           42.03488510454103       61.09957615904312       62.53673276812279
C           41.99974538999407       61.22415667279675       63.91329815283787
C           43.00831844859297       60.67610828269384       64.68731714339134
C           44.04395834960772       59.99384277193722       64.07455954916438
C           44.07259458755227       59.86506373504046       62.69726587213935
C           41.90111946897066       59.47695175626158       59.91909118693859
C           42.24501274307453       58.51060871277709       58.77790691709367
C           42.66575223812196       59.24804840745069       57.52881092566223
C           41.76270274414971       60.03009362427478       56.81481634292169
C           42.14863393491246       60.68437941777847       55.65975857192957
C           43.44614887261719       60.56734414531176       55.18961669356468
C           44.35597401534734       59.80165796209032       55.89584308307340
C           43.96754561457412       59.14886587986110       57.05430011322414
C           41.07349619858817       57.57404336844788       58.43210608996742
C           40.65412466375792       56.58878581915543       59.53409804798749
C           39.34590772008678       55.93106577636832       59.16136420583111
C           38.26373595692041       55.97194550571425       60.03096465749926
C           37.07322545618003       55.33955199552353       59.71736499619303
C           36.94252422752113       54.66309423036390       58.51753090982164
C           38.00845644978679       54.62574161948054       57.63498535464209
C           39.19975971683239       55.24886539236574       57.95860600791816
C           41.71079140230422       55.50824874689975       59.79711366425474
C           41.39776733288289       54.70979578543020       61.07184630085084
C           41.72941450714033       55.52629381449046       62.29657588494392
C           43.03983698559675       55.89054047656162       62.58652296725830
C           43.33791406795113       56.63189777917589       63.71481399614118
C           42.32881683382499       57.02879246217885       64.57443215045507
C           41.01969425813134       56.67970025009639       64.29354368664093
C           40.72480129897389       55.93432968536968       63.16499422576542
C           42.14531508321782       53.36954457133447       61.06098843294053
C           41.85677268008068       52.54394151618030       62.31960323121681
C           40.38463207479674       52.24737756004814       62.48050798471204
C           39.71730479824262       52.70640898088346       63.61099123392955
C           38.37928312187609       52.42506686689012       63.81814455426318
C           37.68383076154777       51.65893464930249       62.89990520924488
C           38.33399768708118       51.19684160248063       61.76968205876609
C           39.66785442040195       51.49744918983122       61.55636438416453
C           42.70353385475874       51.25553106459945       62.42758917079718
C           42.89395693741741       50.42671931617426       61.13982504870314
C           42.46279318820581       48.99678217415481       61.34115974722637
C           41.50448386783614       48.42045193974786       60.51840088224090
C           41.12319805795023       47.10230250774514       60.69220124685410
C           41.69409924028794       46.33844488687871       61.69495089440767
C           42.64315901149641       46.90580155225436       62.52604831611784
C           43.02377309691703       48.22248354619086       62.35010498531653
C           44.36215618282915       50.46943275262443       60.68551300147805
C           44.55240872943970       49.96101579546121       59.24812129756629
C           46.00135329506293       49.61670839495429       59.02149834399196
C           46.98860341534786       50.59217162230554       59.11187274155401
C           48.32470264614385       50.26381003488901       58.97003932861048