3795
 energy: -5103.642934563745 gnorm: 0.000878237399 xtb: 6.6.1 (8d0f1dd)
C          101.84448402627939       99.85094953608551      121.69667841635442
C          102.20520788912367      101.13734144933076      120.98449166608729
C          100.65918410282676       99.09775803829224      121.09058464357136
C          100.81201288529066       98.79015583600335      119.60229700732241
H          100.52238473182456       98.16820501980767      121.64560572648476
H           99.76081958098541       99.70292615613381      121.21728286657851
C          101.95310748834115       97.83109705644657      119.26514756003033
H           99.87923602061237       98.35807804932688      119.23507985382638
H          100.96611023902008       99.72060665636239      119.05502433581805
C          102.09809167538971       97.70944431975039      117.75691266643985
H          102.89683025875652       98.20971444338539      119.66282397001730
H          101.75831324365370       96.84887075990915      119.69770831316289
N          103.03408285972129       96.88774521622396      117.27022302225738
O          101.20399060227724      101.73839122222195      120.39602891931776
O          103.34266405874286      101.57178657160648      120.98740328804439
H          101.48288176822305      102.55457803791029      119.84670148719339
H          101.60497367923827      100.12387834071596      122.72800203202182
H          102.74180123300100       99.23172959470138      121.73040732322877
C          103.90427087160131       95.97673245996943      117.98167585217438
H          103.11363851900546       96.86291376106979      116.25623833627095
C          105.36511893142311       96.14057552344035      117.55554868453702
H          103.81604559514714       96.15571194445114      119.05243729364769
H          103.58361122615946       94.94931364032719      117.77419500266647
C          105.91151615261934       97.52051507682008      117.91406460557700
H          105.95433408246039       95.37074890403203      118.05497234764179
H          105.44251213720804       95.98110283012669      116.47941498388961
C          107.40726998935078       97.66019698349747      117.63371510147854
H          105.36648720211329       98.27513730896912      117.34438436807521
H          105.73404687086254       97.71173749401576      118.97517662919049
C          107.89848524500493       99.05905248522456      117.99874097904173
H          107.95622347264722       96.91917241137313      118.21723022191776
H          107.60826486171528       97.46582783682719      116.57953234497009
C          109.38410039533460       99.25858511983274      117.72698285833722
H          107.33777310033460       99.80279762299300      117.43203845956107
H          107.70665926016864       99.24143990417527      119.05832796553084
N          109.78891921611545      100.56083224380288      118.22075833588778
H          109.95798619544321       98.48331195003978      118.24267033621530
H          109.58981321337343       99.17070684220472      116.65392721654200
C          111.03322420012020      101.03279917759191      118.31662115021236
H          109.04179224583940      101.20568657091215      118.46570186389940
O          101.38947277647149       98.37089637012870      116.99904223133044
C          112.15818912045870      100.17245794103249      117.78750035405072
C          112.77504726277719       99.32837840336828      118.90722693928998
H          111.80173362118269       99.53069536488006      116.98315152117121
H          112.91765327879486      100.84946367960380      117.39263733937240
C          113.79916021285963       98.32301447677582      118.37840762611832
H          113.24668815320138       99.99282308342272      119.63531510377913
H          111.98946570216917       98.78141271510648      119.43170144184739
C          114.88192521582728       98.98118495693521      117.51109241480923
H          114.26328518726545       97.82258738008886      119.23161287321928
H          113.28805704755922       97.56212097378432      117.78638370155011
C          116.08646135501873       98.06971060141001      117.39189839943566
H          114.48498807384757       99.16296914954314      116.51240112047725
H          115.18639929252171       99.92807741395008      117.95640800214147
N          116.98398115231116       98.22421423468080      118.37560310916476
C          118.21749873076958       97.47508009095306      118.48490653407119
H          116.77795345751936       98.86432463818105      119.12841060008310
O          111.25335010505249      102.13161892879312      118.83176820573053
C          119.38400008144637       98.40691794942690      118.80789874896701
H          118.12319966965480       96.71386834773465      119.26784548222348
H          118.36435445951605       96.96932983039510      117.52930709128825
C          120.70172980308477       97.65614299292766      118.99563384811995
H          119.48320095663600       99.15208397851663      118.01903005875073
H          119.15929526423814       98.93316471059013      119.73819586658190
C          121.24687238718978       97.00409951831421      117.72359455467898
H          121.44608527686314       98.34997699282525      119.38751197000828
H          120.55604855391842       96.87657234696398      119.74640412973994
C          121.60074140994182       97.98979338673841      116.61082320320861
H          122.14308964686791       96.43862494785643      117.98810101423985
H          120.51800523218952       96.29035019188741      117.33830550269229
C          122.72173352867394       98.94653601881556      117.00379465998172
N          123.28482078409590       99.56718630314366      115.82130112722501
H          122.36945309801298       99.73857912764834      117.66995598412811
H          123.51269860066691       98.39550960729015      117.52942513594583
C          124.00400544847501      100.68328755710964      115.85083671030692
H          123.14051698074046       99.06521648193311      114.94515725797990
O          116.22966183831119       97.26291373191523      116.47914855814815
C          124.56019976750417      101.12683179935276      114.51172332215694
C          123.52280603168869      101.92629535561137      113.72807963174098
H          125.43958008325156      101.74926927215954      114.68912237338779
H          124.84620243685431      100.26076299081070      113.91715328720824
C          124.05285775316052      102.34657719788569      112.35701048496324
H          122.62423230012932      101.31938048950626      113.60019395966791
H          123.24476232250960      102.81756086276536      114.29413410527886
C          123.09481319270205      103.38157078730079      111.77582116271202
H          125.05117066019925      102.77546711710066      112.44969724033614
H          124.13175617056355      101.47954432500507      111.70017763479491
C          123.21727770018795      103.63624772354819      110.28408642737404
H          122.07344665123391      103.06362675973064      111.98083042524685
H          123.27025531163910      104.32951733773842      112.29212761854534
N          122.03598850676440      103.73855737502170      109.67352689305756
C          121.88931039431895      104.03958973930935      108.26390296720854
H          121.17811671447058      103.60970009400570      110.20860582864634
H          121.93036720962654       97.42121098883146      115.73894744173352
H          120.72061302092499       98.55758501140984      116.31243803236238
O          124.21151004548595      101.32337364298371      116.88768140954463
O          124.29161185250305      103.78360911811781      109.70101973860885
C          120.43197312324153      104.34457188186700      107.94603052713252
H          122.52243050599120      104.89895669944924      108.01930557734067
H          122.24544534063682      103.18671298142797      107.67730353683376
C          120.23958994680213      104.90130217979170      106.53575683646420
H          119.84626108552787      103.43077822458194      108.05992911118571
H          120.07254943473568      105.07607345199405      108.67223763822066
C          120.49732267882338      103.84503136144853      105.46361057612842
H          119.21127421805583      105.25179226355709      106.44294302041034
H          120.89850227921964      105.75625642558506      106.37718246900063
C          120.38451126969608      104.38888407365808      104.04097555870763
H          121.50021770563043      103.43506366812963      105.58486060740336
H          119.78905114769913      103.02773631851285      105.59948089968027
C          118.99310964269053      104.92541608800531      103.73283215706554
H          121.12002561059276      105.18111586727642      103.89705295892234
H          120.61427864638770      103.58572299636440      103.33623321822991
N          118.78104921135021      105.04349851213117      102.30464869017766
H          118.23301441057424      104.25872155573025      104.15883628979203
H          118.85704315032312      105.91486580213125      104.17687684553518
C          117.72285615147284      105.65993398814389      101.77810249749650
H          119.40483719541660      104.53334181095659      101.69249971665468
C          117.67347623792131      105.65660761465850      100.26566939643153
C          118.92532393685079      106.22883361053394       99.60079132262786
H          117.54589476536390      104.62269719625472       99.94478143573811
H          116.79103297736155      106.20877374167047       99.94436463537890
C          119.18408548336339      107.67815150975099      100.00417094406150
H          119.79314082167879      105.61559594147639       99.84740663437715
H          118.78882526806508      106.16961777477435       98.51834009027117
C          120.23128877900966      108.33353542438320       99.10168868479718
H          118.25719009774730      108.25262071389066       99.94134075379770
H          119.51989306307860      107.71567405659924      101.04278790400480
C          120.43995316954224      109.78757713317289       99.47863099581184
H          121.17744415567964      107.79594804157492       99.15596843091527
H          119.87783850474314      108.30217985757156       98.06806812446609
N          121.71408052821759      110.15156491179080       99.63692443373598
C          122.10876819920661      111.46674831332386      100.10189013551768
H          122.44948261507587      109.45729824081994       99.54013592486299
O          116.83592285463243      106.16744514310385      102.46622373125936
C          123.41112597147711      111.37156111342469      100.89104526718788
H          122.21676876536088      112.15028738174003       99.25182585143973
H          121.29780800980740      111.84478111055823      100.73308033424048
C          123.61166118213120      112.53288793007863      101.86019630950997
H          123.39315620038748      110.44430897355947      101.46286836767328
H          124.25155511322801      111.31493495582845      100.19744997726121
C          124.88655528559961      112.34777565301513      102.68063933530807
H          123.65524804735026      113.47503397170721      101.31118431918112
H          122.76235136300710      112.58313070588936      102.54461456817482
C          124.98550225202958      113.36306646663172      103.81549446087232
H          124.89275445985731      111.34301936991467      103.10692866373752
H          125.75907019070836      112.43724103742591      102.03031569948587
C          126.19299726922401      113.08136699019130      104.69695338942253
H          125.07247845745592      114.36545895550297      103.39484043329598
H          124.07671116084120      113.31726445944672      104.41830640113838
N          126.36909756499797      114.09265524553689      105.71910725273933
H          126.08836209057689      112.10278353525482      105.18339460656667
H          127.10735652530040      113.05400597904257      104.09323414590257
O          119.50262857432551      110.56940731802977       99.62864938273972
C          127.53493846670926      114.22407069647407      106.35408661331120
H          125.56469655640988      114.68423759740224      105.95981375170054
C          127.55243289554616      115.27233499090295      107.45472158786453
C          128.28387209402374      114.71711053213411      108.67735154036183
H          128.07750171774308      116.15386145204731      107.08100724007704
H          126.53168952264340      115.55632890832322      107.70763816810697
C          128.22868761990213      115.66533433099558      109.86755112677223
H          127.83173563415292      113.76067444301850      108.94899590797496
H          129.32179431299735      114.52182559990702      108.40333146188077
C          128.89489304495442      115.06366192658047      111.11077543195229
H          128.71688252775189      116.60815208843995      109.61305468297985
H          127.18583439463914      115.88108961123045      110.10834779183861
C          128.55159725232619      115.94635356602639      112.29116506047868
H          128.48320334823191      114.06835380277691      111.28698113882672
H          129.97303197221848      114.98764224832250      110.98172395749944
N          129.53632311453387      116.72458822533990      112.74427282493119
O          128.52780038977627      113.55084932001674      106.07835695836174
C          129.35254299467175      117.72073995762476      113.78371258307075
H          130.48782674096432      116.50339652829328      112.48325932565673
C          130.69891343098112      118.16250132422128      114.34348820084762
H          128.82741489054624      118.57649302624503      113.34633981076794
H          128.71995702320658      117.31076584843706      114.57837680401779
C          130.59209817229737      119.33605962286458      115.31977135255379
H          131.17121672520389      117.31321998123461      114.83971905010789
H          131.34166946839903      118.45709443703296      113.51120946923542
C          130.04130376966535      120.59689806633639      114.65304384856242
H          129.96127473413580      119.07005306790964      116.16958575322607
H          131.59044830806948      119.55063607334594      115.70484940977653
C          130.22340778804110      121.84953702691438      115.50777639270065
H          130.54110547482904      120.74963513521837      113.69418892936012
H          128.97502305391239      120.47366175320099      114.45801400730005
C          129.50268915127296      123.02849902022110      114.86506813199794
H          129.81068923669872      121.68234357016793      116.50303844002974
H          131.28322420476437      122.08255662930556      115.61647852121702
N          129.53484784575446      124.20899926767788      115.70179665917352
H          129.95441212798764      123.29486422328274      113.90451121122790
H          128.45832491764165      122.74991363365203      114.66929309938692
C          129.42313901250591      125.44690874388257      115.21052355510822
H          129.55438679631612      124.07017953400565      116.70758276964192
O          127.40821428474443      115.97857132441113      112.73991327986849
C          129.36215839909428      126.53645854681396      116.26640383673342
C          127.95852825620376      126.60611470911202      116.87649702952186
H          130.08974192309182      126.32541986034565      117.05081417916611
H          129.60629275480025      127.48757598008596      115.79168799851635
C          127.85866112161830      127.72490161959064      117.91190441817000
H          127.22335192764520      126.76867386468825      116.08309924095981
H          127.73235974722357      125.65007877556052      117.35400011572644
C          126.46356285289720      127.81432268040656      118.53198508339797
H          128.58764519753925      127.53762312824952      118.70320568141399
H          128.10313158830857      128.67853202202437      117.44071173259682
C          126.11672769008868      126.54837185002737      119.29183331658820
H          126.43875454098927      128.64557681505428      119.24128809157671
H          125.71159917365411      127.99887302629507      117.76580355158309
N          124.87545688398592      126.09461529663375      119.10397350016848
C          124.41866996954039      124.85441140173710      119.69927508839970
H          124.24219212767440      126.61516360247172      118.50421784199827
O          129.36439737386971      125.69059607673992      114.00657884220455
C          122.90444317023166      124.81483762965041      119.82981849013845
H          124.75268109063978      124.01363916585197      119.07657035779734
H          124.90309004638563      124.75491772705803      120.67484730405620
C          122.40580439603295      123.53758649823969      120.50941787963696
H          122.57286624078633      125.69019482427373      120.38623018613305
H          122.47847966856165      124.87845997386474      118.82526687073269
C          122.55530894033568      123.51755737454484      122.03285757831196
H          121.35658722866695      123.39024411131733      120.25333322779336
H          122.95971843257708      122.68666423998232      120.10906510310683
C          121.88781921900093      124.68082269746098      122.77164580539542
H          122.12848806311128      122.57798043536638      122.39002653532154
H          123.61537155703166      123.51583503410971      122.28889397452087
C          120.42018076399074      124.86329040434656      122.38879975126299
H          121.95411922499152      124.48902544037294      123.84484807114085
H          122.42353403732992      125.60988858275253      122.57573817987236
N          119.79633947861991      125.95021328768377      123.11226264264268
H          120.33734900235432      125.07923573726981      121.32016364966670
H          119.86216121613364      123.95226456913608      122.60887075993980
C          118.71894210989328      125.80954236491009      123.88709177892541
H          120.16621544737121      126.88133945213747      122.94002125470369
O          126.91199881475220      125.98616863697693      120.04349251016123
C          118.12725522810737      127.10837801819919      124.40068684563283
C          118.22850105961606      127.21489863001038      125.92440819767619
H          118.62916831552573      127.95248224762271      123.92867503947969
H          117.07675192945561      127.12012926252990      124.10167311039582
C          117.46098547040884      128.42327672263960      126.45766707505285
H          117.83014064388362      126.30157876767609      126.36916273718806
H          119.28090108171554      127.30064178185260      126.20478113078336
C          117.70065712023896      128.66282829223303      127.95571280715502
H          117.76566027930086      129.31639051001196      125.90805575938785
H          116.39313311281590      128.27619257846595      126.28668700494610
C          119.09700360460155      129.21328272735525      128.18126935751511
H          116.98111101538703      129.40203070811444      128.31275620852537
H          117.56433186742608      127.73959718592789      128.51621901590292
N          119.97129230999920      128.36813151237118      128.72612974821752
O          118.22828993215190      124.71327958338382      124.16257455795389
C          121.36923421584055      128.69127716667859      128.91294140317783
H          119.64311816642621      127.51789633447683      129.17973886735322
C          122.24992275289837      127.53328763150618      128.44391513553222
H          121.56771620658724      129.59800953793740      128.33778276535415
H          121.56488609447440      128.89884983294883      129.97053420115409
C          123.73994130995693      127.87521542324511      128.49496591972388
H          122.04740535888578      126.67331293849509      129.08483973427076
H          121.97489520312307      127.26259316951750      127.42253955462962
C          124.19500651130913      128.73494819646479      127.31588528336810
H          123.95723095949077      128.39232954502555      129.43142364516825
H          124.31646758843284      126.94847932343957      128.48421903645749
C          125.65668470124842      129.15295093130189      127.46229905711130
H          124.07965633450527      128.16172412946926      126.39440983146076
H          123.57157658299759      129.62684517260817      127.23706363156167
C          126.18897122563557      129.86378768216659      126.22334617677302
H          125.76423582921102      129.81533860556829      128.32193233868784
H          126.26476489789567      128.26391069037194      127.64081429531375
N          126.31020926213790      128.93907220021981      125.11491395583751
H          125.52437578555597      130.67906835048896      125.91938176715959
H          127.16892053492695      130.30969414955985      126.44158159445760
C          126.29986191118951      129.31576295399614      123.83458864949213
H          126.34140302584750      127.94876283418463      125.33920273328263
O          119.40455599034244      130.35630367298739      127.83505848667119
C          126.38154555514356      128.17117243760862      122.84708746554301
C          125.08357848646170      127.36994500562948      122.72508956048196
H          126.65454602944278      128.57344270918199      121.87050111301353
H          127.16589404024897      127.48768523773890      123.17336043609902
C          123.89919527477251      128.17739474144585      122.19161191059142
H          125.29088318270594      126.55328711476048      122.03326368503249
H          124.83846349043239      126.93275130222125      123.69418902074884
C          123.09959561337173      128.89107046168576      123.28813532863252
H          124.25014884536486      128.90845797402662      121.46047402561150
H          123.22014688617944      127.50224874924091      121.66597515968503
C          121.79388537020093      129.37654144758261      122.69164156250507
H          122.86808579809232      128.17994551449053      124.08323805875966
H          123.66698690259391      129.72158770521332      123.70147313396140
N          121.81057418557867      130.60395999175935      122.17668972861486
C          120.62312441399297      131.15196528311012      121.55435188005848
H          122.62103622531154      131.23281549586301      122.31648976613309
O          126.25324348363421      130.49414637870584      123.48220436079110
C          120.92648911026012      132.31602989707272      120.62161289026608
H          120.12801898173110      130.34518355804153      121.00469909009671
H          119.92860766576871      131.48772673104540      122.33459286922223
C          119.60935225877621      132.85734163215321      120.06901388071712
H          121.44647035382249      133.09557842598991      121.17946358482537
H          121.57582965383838      131.98108812774248      119.81234912555313
C          119.70741201419402      134.20387722711277      119.35484810625340
H          119.16406651126182      132.11534061186603      119.40622527189055
H          118.91203146413017      132.98691030256552      120.90086668168550
C          120.53969937016477      134.22467912334000      118.06896688023943
H          118.68652949034220      134.52365490298075      119.13419546950568
H          120.13179658096067      134.93888415279704      120.04195240816766
C          120.18812112213836      133.13019625281206      117.05762324192436
H          120.40665896873895      135.20243778558697      117.60193507217197
H          121.59692795631361      134.11806252717943      118.31239312010918
N          118.76051973924810      132.92539137117180      116.93066756321782
H          120.61629895466818      133.38706245152031      116.08223722673361
H          120.61097321098615      132.17217969564575      117.36835470338542
C          118.20603949339757      131.70560362848096      116.95850300643582
H          118.16734158111854      133.73684926202793      116.99901581000074
O          120.79899822852566      128.64764697147206      122.63996055981112
C          116.69841206388799      131.67812392127934      117.07907856069794
C          115.97870849889539      131.93810834477026      115.75074348971974
H          116.42437838919130      130.68610227471638      117.44201631226197
H          116.38752613700257      132.41079336502312      117.82748513220983
C          114.47512884646709      132.02833935097834      115.99489762184393
H          116.33447168875443      132.86828496256882      115.30380368280078
H          116.19867374052289      131.12610835502633      115.05515653155629
C          113.63672378144643      132.14700910823737      114.72605329534431
H          114.14331564807522      131.14372103190047      116.54017370510871
H          114.27493047711712      132.89873093908818      116.62457277585560
C          112.16988785727087      132.35872013256829      115.07524592104890
H          113.97235448511387      132.97913335782434      114.10616562583684
H          113.72173638057258      131.23583228550922      114.12916655590877
N          111.43350005273822      132.86528614084182      114.08373833069021
O          118.87738610785387      130.67961675390535      116.90117514216803
C          110.03902336805334      133.22431558808441      114.24236831922383
H          111.87580724761806      133.06804053314409      113.18944256981344
C          109.25957567011102      133.07922566360782      112.94283195918838
H          109.60736590151411      132.57532721764517      115.00902832584788
H          109.97049777665842      134.26079242625025      114.59743084873998
C          107.81062779515459      133.52541263123229      113.13367506344298
H          109.73990071309460      133.68467926026770      112.17049254428248
H          109.28558634748804      132.03631155126959      112.62790353980877
C          107.03073038593428      133.61832854167812      111.82236228473614
H          107.31104915865384      132.82775247053257      113.80942761396157
H          107.80629732080763      134.50938954706047      113.60816155766369
C          106.83253614093478      132.26367963172234      111.14490812245027
H          106.04861967002265      134.04944914719943      112.03244366176831
H          107.55674122065794      134.29981502294953      111.14858709602069
C          105.85901689738195      132.33088682584008      109.95798306576319
H          107.79298644601025      131.87988279324017      110.79307156367341
H          106.43263562899193      131.56020285538031      111.87643018408306
N          106.28336474756372      133.15662988912615      108.83868936787455
H          105.70012240330536      131.32086068152384      109.56881324109108
H          104.89387543145111      132.71409176762722      110.29987129285223
H          107.19381281623347      132.84971302708806      108.51337964750752
H          106.37568284728887      134.12094824841523      109.13670331351396
O          111.70496334712961      132.08073823232974      116.17945129304255
C           98.62412331670389      124.75966233796483      119.16612256676773
C          100.03117611732755      124.27529824764338      119.40371022480062
C           97.99234509213095      123.96277040151213      118.01437355765398
C           98.77074676592731      124.13189414204282      116.70923186721564
H           97.94445082919947      122.90749483789358      118.28895392735443
H           96.97236726632755      124.32418905625845      117.87518019973788
C           97.96195680011381      123.62849355547354      115.51240521183355
H           99.00447018363543      125.18794863567707      116.57268189621618
H           99.71233358045440      123.58145871469844      116.76840013999588
C           98.71393881266394      123.70200599348475      114.19579038165763
H           97.66881960034850      122.58849553207365      115.66840136365774
H           97.05490199168655      124.22818447720097      115.41234609735203
N           99.13970247388048      124.91519344594241      113.83870432165656
O          100.94405371305918      125.04856687388887      118.84291921460472
O          100.30751561608976      123.27009081799358      120.02028648433952
H          101.84677957652998      124.62326282644153      118.79304756028402
H           98.65184663336686      125.81514841828802      118.90370274866204
H           98.03972718273494      124.61079592263793      120.07397831744072
C           99.79694395819058      125.16928596383478      112.57554858116634
H           99.05239810107658      125.71169359767204      114.46908270543740
C           99.25112144341584      126.43174361164925      111.91129277132872
H          100.87722497707286      125.27851977827194      112.73108611447731
H           99.61757589956817      124.29400385343280      111.94822872396328
C          100.05079968076974      126.82564688908646      110.66843959522407
H           98.20587993091013      126.27426589767542      111.64103384640299
H           99.28931702378152      127.24791566122407      112.63611408832740
C           99.99160469780479      125.76772849877614      109.56886679563294
H           99.66057274246022      127.76826870112609      110.28143714174765
H          101.09306184994837      126.98776206273639      110.94844136265255
C          100.78824935663067      126.16219146258025      108.32764176172469
H          100.40275737575109      124.83332639280647      109.94994260039861
H           98.95176024292854      125.59001992949672      109.28828470696170
C          100.80967320899207      125.01874106818637      107.31414246992802
H          100.36002295636349      127.05163105962330      107.86349066761660
H          101.81800360967431      126.39176594262052      108.60752334581015
N          101.68365808078244      125.29435841154412      106.19793809268121
H          101.15940498718881      124.10461338806587      107.80965371659774
H           99.81166087181872      124.83829212122168      106.90637671380367