3795
 energy: -5103.672092555645 gnorm: 0.000886313365 xtb: 6.6.1 (8d0f1dd)
C          127.52095127887429      103.16310482786375      104.98243255858431
C          127.33812074758252      104.06632759852458      106.17875848320732
C          126.22829211834627      103.08603748663270      104.15659925639255
C          125.71317060052533      104.46344226145220      103.74013818000560
H          126.43005729778605      102.49227547199320      103.26271498883263
H          125.45908744321250      102.56971260963313      104.73537496576655
C          124.73104765886808      104.37011662378092      102.56868713044794
H          125.20735361744083      104.93968288346048      104.58229900175240
H          126.55021424392594      105.10099546950440      103.45205104300433
C          125.45348181135643      104.08211703134322      101.26455637396667
H          124.01646708826615      103.56598890378866      102.74939205164533
H          124.20213917127518      105.31722334985022      102.47199514610583
N          126.04988837197860      105.15682016841362      100.74102562588683
O          127.71629959653893      105.29557022217716      105.93908925190136
O          126.89553659214097      103.69026375757242      107.24768285190780
H          127.56111969534881      105.94278617289872      106.69391831188968
H          127.78939556095793      102.16431120610616      105.32688572636636
H          128.32040688714966      103.57135278934955      104.36500668467509
C          126.70359911368766      105.17055139699718       99.45336888891930
H          125.92337221765980      106.06007227227781      101.19776789314773
C          126.14397152554159      106.28214325102455       98.56476640967570
H          127.78175287551619      105.31645506655902       99.59007418456837
H          126.54241803377842      104.18925914231851       98.99803834610417
C          124.64539311877651      106.12000099812452       98.32216308765028
H          126.33064518176957      107.24348348813486       99.04729391810307
H          126.67787952873763      106.26779562388005       97.61363714744594
C          124.09518102844622      107.16553160902878       97.35380164481160
H          124.45363415267782      105.12055632809991       97.92473215312231
H          124.12413117228296      106.20226136511225       99.27737793578819
C          122.59199230172922      106.99388604480809       97.15019820194793
H          124.29836982722486      108.16501013241943       97.74245039887894
H          124.60362934035138      107.07178177027173       96.39221868659320
C          122.02714447241362      107.97639259696764       96.12249030905865
H          122.38966232780207      105.97813152237342       96.80317904378126
H          122.08105095888409      107.13731835560020       98.10299525603961
N          120.62541524704476      107.72211697851141       95.86958286966956
H          122.15535496732136      109.00450546843390       96.47289446223053
H          122.54672570469479      107.86342986781590       95.16804311270674
C          120.16937939226865      107.20781240504854       94.71901228273205
H          119.97201962760451      107.86128875120764       96.63466088089764
O          125.49717061193829      102.96041951013621      100.76080896035469
C          118.69819038120707      106.83621730940305       94.74361797400840
C          118.58920974503610      105.33722124529741       95.05014613007656
H          118.18268791019136      107.42688100396109       95.49770703518108
H          118.26730551257667      107.03719484003531       93.76227578295416
C          117.14716724596283      104.83150551036078       95.09037081485569
H          119.13015037607011      104.79386814210982       94.27173063682984
H          119.08189601715122      105.12518333149514       96.00090725594197
C          116.34880044438553      105.32233219346342       96.30566657433675
H          116.63216554485314      105.14601397995786       94.18090640450156
H          117.15861714330990      103.73920264161698       95.10673026647031
C          116.90737967867692      104.72682244837819       97.58296379919877
H          116.37071708646106      106.40947636983847       96.35679524056093
H          115.31586953337231      104.98941917381792       96.19562155082997
N          117.80880434130549      105.48850683802335       98.20622932228524
C          118.50517960552008      105.08061468622432       99.40941983566906
H          117.99159925803104      106.43293561202672       97.87839588662034
O          120.87824028323686      107.01919202075472       93.73394703108556
C          119.79178490360893      105.87907217283384       99.58671443165579
H          117.86090652071323      105.24974888037066      100.28027970616239
H          118.69995559466561      104.00648704072421       99.34506274294009
C          120.23831994759608      105.88510295577487      101.04548903490480
H          120.57794695590634      105.47525734428723       98.94903766517697
H          119.59255941533868      106.90487234779057       99.27152675445409
C          121.37580281330330      106.86863621013360      101.31477914222000
H          119.38372263452050      106.16657171086663      101.66588413735226
H          120.54591748424818      104.88109027525081      101.34240078569263
C          121.58102226306900      107.02790288188235      102.81597757956037
H          122.29826959894915      106.51669470179905      100.85058505710882
H          121.13300433510469      107.83845419557325      100.87790151474674
C          122.65382349853239      108.04500069746949      103.18866906395502
N          122.76464714794750      108.09325345374859      104.62895865181279
H          123.61453661190727      107.76615959484562      102.74520025852534
H          122.38658561734327      109.04617917686322      102.84326936972182
C          122.72304671936220      109.20958606255176      105.34855295657101
H          122.88868761833481      107.19925673821687      105.09450783467302
O          116.56021979478187      103.62321561214995       98.00649843148599
C          122.70076118129685      108.98512453197687      106.84739252207902
C          121.26529464765608      108.90393881729419      107.38597424917229
H          123.20813661177935      108.04531323787506      107.06132307732527
H          123.22811704883277      109.80490208312325      107.33605855196393
C          120.57388383205632      110.26379332977052      107.43040229321753
H          120.69278771458926      108.20379156210180      106.77407238553629
H          121.29813714263625      108.50368857750078      108.40072752291174
C          119.12990570786091      110.13982542682902      107.92683813428873
H          121.12505713910396      110.91686269534904      108.10955121159073
H          120.57900871925536      110.71458922131561      106.43984182708606
C          118.51026536040020      111.50751972442940      108.10526960038020
H          118.53988280818965      109.57717881929619      107.20360183731823
H          119.12820000619104      109.62117311370291      108.88652040194077
N          118.88933384696801      112.15131895513115      109.20458418195399
C          118.41034612357313      113.48674198940341      109.49465333414703
H          119.52253323893532      111.70554573182778      109.85695224253628
H          120.63885722170400      107.33610160131451      103.27697055134533
H          121.86434363140920      106.06541673174731      103.24129525554595
O          122.67908712256050      110.33270939591745      104.84251560537450
O          117.73157187215560      112.00206759981731      107.28328489973563
C          118.77535891584645      113.94288840757574      110.89772273800830
H          118.83065032275593      114.17529066436069      108.74947856233405
H          117.32020314070289      113.48816634758761      109.37878725055891
C          120.27984442790982      114.12397224483341      111.09452664359723
H          118.27829347584806      114.89695441954980      111.07806276575843
H          118.37771583260634      113.22658790239238      111.61792598404143
C          120.56938315715706      114.78359254931614      112.44026766736373
H          120.77929483028440      113.15423097172105      111.04974703716465
H          120.67177205366758      114.74762574308059      110.28945718154354
C          122.05695213261674      114.93845489261530      112.75196927224007
H          120.09487179966455      115.76641181618425      112.47123483156265
H          120.11512761624745      114.18243597778213      113.23066693951711
C          122.79518333612798      115.94894068935767      111.87329610810595
H          122.14822417135230      115.27957881596143      113.78405417944786
H          122.54939125721133      113.96681482558924      112.67658990529299
N          123.14814225608785      115.41160308175738      110.57765914690260
H          122.18144906111968      116.83599231354513      111.70443685120973
H          123.71158078639290      116.25900191539208      112.38662992386877
C          123.09803932873334      116.08604784927029      109.42226205539365
H          123.55281347766487      114.48855220078600      110.57942180139530
C          123.54623508797611      115.29974443971628      108.20585896729509
C          122.88794811275172      113.92859865962990      108.03823972278569
H          123.33549142790039      115.91058856832616      107.32733866603309
H          124.63023244452209      115.18799699103722      108.28841393325486
C          123.59865776802935      113.08071113817114      106.98159325907687
H          122.89693928108747      113.37539962081098      108.97883878410076
H          121.84316658425156      114.06423821946167      107.75057179561811
C          123.52792168213671      113.67297846358520      105.57095783365374
H          124.65094004704426      112.96891106477337      107.25188086789539
H          123.14680241800021      112.08865341762682      106.96301732729287
C          122.09292550724943      113.91211257579491      105.13642517032090
H          124.06901263425986      114.61813331317298      105.52961454724034
H          123.98674313321902      112.96826022842538      104.87633970516725
N          121.38478247828549      112.79760994275193      104.98285637945632
C          119.99706300638485      112.76993141108358      104.58198668106661
H          121.86461184499092      111.90060453148656      105.04826602468363
O          122.73840190580793      117.25768713064888      109.34773072297868
C          119.69963875963117      111.60649341863369      103.64172396678700
H          119.36001003198230      112.68233854962899      105.47004325928501
H          119.76899654628583      113.72549344659355      104.10045323963428
C          120.59179946813879      111.60484212110238      102.40064176902338
H          119.82514604440183      110.66594312037836      104.17919399581999
H          118.65231308557362      111.68711232493762      103.34695710704814
C          119.98452764234780      110.77507292505338      101.26946605380731
H          120.73206667732970      112.63377642129392      102.06464955939809
H          121.57503360682300      111.21520149661438      102.66732026524174
C          120.73913186293088      110.95817112679998       99.95235006171698
H          119.98169993093462      109.72154037846069      101.55161651960957
H          118.94645671398081      111.08349443835185      101.12988158958967
C          120.17534093558328      110.11017497019206       98.81484510726899
H          120.70490113163592      112.00925960878938       99.65965150677692
H          121.78844397089269      110.69014203112583      100.08517145356394
N          118.74875792783105      110.30392588554639       98.64987555464663
H          120.69276034078912      110.36131477678376       97.88174113082911
H          120.34009628132394      109.04707107498055       99.01144469561513
O          121.63217289486803      115.04310232448958      104.95813143373040
C          117.94820327937984      109.37373135537506       98.13631718908694
H          118.36179374682521      111.20175078773327       98.91494495777367
C          116.47127674114824      109.70150845115208       98.16842025345974
C          115.95346724051356      109.56268279935408       99.60480048087520
H          116.31545913034618      110.71945446456618       97.81233537976884
H          115.93958474426771      109.01187960376700       97.51177570308948
C          114.45525643128063      109.83522075472465       99.73365488448808
H          116.16528612291526      108.55226518284033       99.96136244958825
H          116.49485188594049      110.26679329247436      100.23956141674871
C          114.01886958585648      109.64747881461854      101.18479706014929
H          114.23645842345739      110.85418200846404       99.41051678270844
H          113.89080535040543      109.16304784090090       99.08628646029730
C          112.58124468696164      110.04304936878378      101.48032375208648
H          114.12910738903851      108.59643275648274      101.46192395539887
H          114.66341192127125      110.23357852568259      101.84210047706168
N          112.32397660778625      110.14151000619158      102.78730200644746
O          118.37662912223250      108.29324828157425       97.71622471236121
C          111.02990531436245      110.46674139194482      103.35106676237129
H          113.06458595471270      109.92555934088679      103.45016296906284
C          110.71947951506496      109.54206870941719      104.52447404391079
H          111.03021189089834      111.50898014577312      103.69109094323312
H          110.28114649624591      110.36966140033130      102.56118265222732
C          109.31271578672315      109.75136094648052      105.08032123143748
H          110.82699521010021      108.50678623861718      104.19568567157586
H          111.45395162912816      109.72314108939496      105.31167769548509
C          109.08277299637767      108.85779057386216      106.29718552985932
H          109.17999169375241      110.79632878733835      105.35834479506620
H          108.58124686620150      109.52629427997242      104.30449004242988
C          107.64945290279135      108.89691147752865      106.82845389435475
H          109.32595954977033      107.82814313946200      106.02634376838321
H          109.76510725976998      109.16472166381469      107.09183507270588
C          107.52099276570388      107.95953035633705      108.02439705874578
H          107.37858150504486      109.91638840127879      107.10485134532522
H          106.96211682328209      108.57555198992971      106.04626527016291
N          106.15453229101655      107.56442892694415      108.31890576778116
H          108.09970062453485      107.04790404517898      107.83049709578628
H          107.94213846766550      108.42563286601401      108.92177994450682
C          105.89598501996716      106.74902976231240      109.34720947996979
H          105.40192279170216      107.82525444989817      107.69375472876682
O          111.73860821988390      110.24366032453869      100.60937356882215
C          104.44124968427549      106.36348771191483      109.50577303878426
C          104.19845772195156      105.47975659620890      110.72624066190977
H          103.85078509839391      107.27846442458412      109.56997563914040
H          104.13526075224152      105.83897033856334      108.60006726927769
C          102.74109355094841      105.50237888690370      111.18202838721243
H          104.50385770446752      104.45964379410705      110.48996307895622
H          104.83085191364607      105.81828016957989      111.54872353513305
C          102.56322735010431      104.64646289595319      112.43794081405892
H          102.45801674575154      106.53404899409398      111.39463469823205
H          102.09747095610524      105.12743233788225      110.38431744280345
C          101.18967279711639      104.75201902875098      113.08090852258705
H          102.73848758170342      103.59614633415737      112.20255482069636
H          103.30337796866463      104.95834458436326      113.17792039034158
N          100.85747745591553      105.99091421536214      113.46954503406448
C           99.57567931718400      106.32494757816329      114.04313883950350
H          101.43940180464246      106.77661615207113      113.20135105313311
O          106.78073139970721      106.36139984482031      110.10931487618009
C           98.62023311606656      106.92152723119300      113.01022490529881
H           99.15054645628939      105.41444402556860      114.46895102523239
H           99.72902493597802      107.04379622520858      114.85344878527434
C           97.32338081582236      107.37868809996203      113.66822469435127
H           99.10648584819182      107.77362687007025      112.52829242895619
H           98.41101127993672      106.17425626839018      112.24234441952093
C           96.35431852505945      107.97742168346915      112.65537503551190
H           96.84998291207128      106.53280575128748      114.16839850842112
H           97.56300361739066      108.11945010209524      114.43192986939188
C           95.03662758580923      108.43667694312235      113.28037404522014
H           96.82726503883497      108.82716969551325      112.16223491838608
H           96.13189553205405      107.23020646022498      111.89041854803069
C           95.22097186313871      109.45550663978973      114.40599704405973
H           94.42396007634741      108.88412870425246      112.49511571006629
H           94.49770628843251      107.57917643182542      113.68595854302720
N           96.14131464777684      110.50534821731885      114.02720391866184
H           94.24804587325235      109.89491439544540      114.65632417099052
H           95.60995892347968      108.97774068799177      115.30869410742186
C           97.10403443429108      110.96326738642702      114.82568567696723
H           96.13612172264895      110.78701512332019      113.05347229530716
O          100.47776026130478      103.77259722565185      113.28136491939955
C           98.02114337999552      111.98664095715824      114.18857497938981
C           99.23032164376289      111.33145873254834      113.50825482763724
H           97.45919562322284      112.54108671726580      113.43866696839378
H           98.36833834145976      112.67444324407718      114.96170039859479
C          100.14908827070325      110.59382256888077      114.48396103787988
H           98.87051882736728      110.65526941489593      112.73084158004018
H           99.79945509954237      112.12661139811937      113.02716503173646
C          101.61607711951588      110.59133700310626      114.02755379366148
H          100.10807647569615      111.09109699325312      115.45366233067841
H           99.80661001235634      109.56807549857027      114.63148449800596
C          101.81439639978359      109.72990286068476      112.80474243729934
H          101.92593061959022      111.61312697268539      113.80931948846840
H          102.23710557363034      110.18810589143020      114.82910349920110
N          101.61500581997828      110.31837548328457      111.63068213472862
O           97.23796268575205      110.60879540271306      115.99750101738226
C          101.72267795824081      109.57383995234576      110.39215418781605
H          101.40291296324318      111.30730415069445      111.57581479102505
C          101.46964992647337      110.45091235384163      109.17553802055154
H          102.71506417699116      109.11681244636625      110.34350067928301
H          100.99202199376143      108.75442970846474      110.41967829544086
C          102.49709045764860      111.56323063687468      108.95200156130016
H          101.45443871947840      109.79673416358285      108.30181174905714
H          100.47995454200279      110.90310396647124      109.27702789211277
C          103.83399955389119      111.09765984676338      108.36345393211224
H          102.05877123331834      112.27399346568063      108.24867100365931
H          102.65105830756943      112.11351320919015      109.87921873691593
C          104.91405410707208      110.62733219736816      109.34444763378609
H          103.64682536462270      110.27361630015410      107.67102047051981
H          104.24751099634885      111.92439840998409      107.78453080986928
C          105.27788085153685      111.62443708107376      110.43370689733837
H          104.61657180059113      109.70014591736420      109.83301647696555
H          105.81136934233216      110.41329939048680      108.76285114797336
N          105.81159175701234      112.85824503681005      109.89092149246318
H          104.40479475073127      111.86020957613310      111.05344272519979
H          106.03161081850841      111.18809388246886      111.09691055683642
C          106.30494605440806      113.80644072533602      110.69087278620384
H          105.73665782098639      113.00548202552305      108.89338961963692
O          102.13946837326532      108.53849296386262      112.88960694371872
C          106.59888105534861      115.12891627800639      110.00088941954050
C          107.40711551627362      116.07659903773261      110.88436754277828
H          107.08702364794608      114.94817445796731      109.04285794779697
H          105.62254398408808      115.57699752325638      109.78931350851133
C          107.25069682378016      117.52993425608815      110.45529582689265
H          107.05247603215125      115.96073268836373      111.90952804201147
H          108.46344139305090      115.80217972437157      110.87022223801998
C          107.99870191798159      118.48597986273894      111.37733985866082
H          107.62370841730198      117.65023781004487      109.43813774552373
H          106.19123224677335      117.79771664527652      110.45788654521287
C          107.78183219605080      119.94057716112754      110.99928219494576
H          107.68435277094767      118.34489492830662      112.41223375726666
H          109.07151036360929      118.28342122837633      111.32872348770161
N          108.03278561865181      120.80472725261798      111.97980201337700
C          107.96020923254750      122.23919789338240      111.77527437881523
H          108.46749932094852      120.46807145263104      112.83553056367292
O          106.46146424989350      113.63160001039799      111.89722297127922
C          108.31064470113671      122.96617811214955      113.06506275291089
H          108.65134722035776      122.52339208007470      110.97557419167060
H          106.95103298451703      122.49197658497609      111.43649252581773
C          108.49363011203970      124.47219284109096      112.87836548048573
H          107.53024202420957      122.78135661805121      113.80500917290411
H          109.23929712193085      122.53593376982867      113.44217164932309
C          107.22320989351563      125.18675458866151      112.40306409360340
H          108.80744082620971      124.91167713971936      113.82456318228978
H          109.29644305136402      124.65887171601385      112.16349740042580
C          107.22391791618367      125.43513000531868      110.89653230014669
H          106.34641847720371      124.59660948098070      112.67258542987284
H          107.13715747167380      126.14943558937900      112.90983547906552
C          105.85193316686828      125.81574546189542      110.35135689033282
H          107.92606004357337      126.23747893958445      110.65915957124756
H          107.54592747747689      124.54681037652014      110.35538834062959
N          105.32826429181945      126.99831811290163      110.99246001288705
H          105.95583128660833      125.98114821921502      109.27494659297638
H          105.12946039513872      125.01281742451603      110.51834896915403
C          104.11346894219632      127.06983390752718      111.53264347409230
H          105.94798772340172      127.80297634131313      111.02407787306180
O          107.39051832258944      120.29979376428939      109.88701832049155
C          103.82514057481613      128.36694270711359      112.26743552477392
C          103.48123382275145      129.51477662698963      111.31418784634943
H          102.98837079188800      128.20199318972234      112.94831772244237
H          104.70825765994289      128.64601310890623      112.84411452414757
C          102.14443633483810      129.29387946213262      110.61283796888988
H          103.43980976238998      130.44039308012739      111.89289921155100
H          104.27515511297086      129.61807455645641      110.57127613743043
C          101.82979826276319      130.41356087989794      109.61578427967736
H          102.16927289037885      128.34145106397719      110.07879165465009
H          101.34704394196432      129.24472649652236      111.35905457122783
C          100.47872194870317      130.15092375415782      108.98011115052633
H          101.79810833935279      131.37132661223316      110.13731755343623
H          102.60046511066544      130.44894467123342      108.84557047087797
N          100.51333986155670      129.34263606644851      107.92484088266249
O          103.28957941009088      126.15815921668323      111.46090290571412
C           99.33483575269523      128.89443770823152      107.21062224885020
H          101.41312666540276      129.01742554249384      107.57553756860035
C           99.67681762459495      128.56586681514801      105.76246777389163
H           98.94172995021398      128.00426764985636      107.71146481352524
H           98.57710883360542      129.68129053939631      107.27051009894105
C           98.48597803787838      128.01654079151908      104.97253390124331
H          100.03779806536126      129.47015272684590      105.26899403966861
H          100.49794757088834      127.84756548865951      105.75050090947404
C           97.80812126747868      126.78515469117590      105.58221045111293
H           97.73609487837166      128.80398757637349      104.87298536162311
H           98.83669259649928      127.76846814455614      103.96851190444404
C           98.76783269855849      125.63043581001764      105.85704112964123
H           97.30382458086598      127.06391507429687      106.50868526612389
H           97.03806804619181      126.44643657116139      104.88561594913995
C           98.03260165441229      124.37994058978383      106.35383391978027
H           99.31822540168208      125.39078186475632      104.94343316737869
H           99.49166137460874      125.92745047181486      106.61950840481045
N           98.93187127407290      123.30578892788276      106.76337135671544
H           97.41150380822825      124.63925611116514      107.21496890021895
H           97.37849134125734      123.99309515837908      105.56912551192404
H           99.51381721020988      123.02799942430185      105.97914372256049
H           99.55225026149047      123.64198166697980      107.49659730308954
O           99.43201206197298      130.60856352861165      109.44823765206968
C          128.28197338614575      103.94044864169359      116.97047019199132
C          128.76083249798612      104.53499920132447      118.26963230381443
C          128.80901590786979      104.62585988268343      115.71401500623257
C          130.33317930275419      104.57352802418760      115.60695675155858
H          128.37134856681175      104.12840750830627      114.84689641077964
H          128.48374826563699      105.66653641972755      115.71530059823407
C          130.81446364905011      105.01242451423153      114.21713226168029
H          130.77202742715011      105.23005260468035      116.35992786734903
H          130.68253974178208      103.55682973507044      115.79621910121041
C          130.23226992360111      106.37193382471197      113.90388516888108
H          131.90390408767510      105.07024006646876      114.21364507260631
H          130.48467130950795      104.28983436839765      113.47164641922264
N          129.16687955390805      106.35493892113868      113.10686882254043
O          129.18932770046044      105.77221125115238      118.18076143094298
O          128.72658490563626      103.92852216334421      119.32649824152614
H          129.51073421864061      106.13602366735240      119.05724897055167
H          127.18794541881449      104.00810679204965      116.98761797082479
H          128.54270930216362      102.88139722240784      116.97369784793700
C          128.41496203519642      107.55553783896329      112.79985049142888
H          128.76911085307432      105.46257098883298      112.82011011433802
C          127.31450601676531      107.26858765274781      111.79058624973945
H          127.97670504006524      107.95526280472514      113.72360407737625
H          129.11140132126150      108.30622931283318      112.41432028617305
C          126.44753262898263      108.49925640749520      111.53666220573780
H          127.74829114147634      106.93157540479302      110.84755537462132
H          126.68546027262737      106.46152915261442      112.17399824809796
C          125.25647574791826      108.13415583196235      110.65504893279508
H          126.09907238571650      108.89016107104271      112.49373961235699
H          127.04213964835232      109.27242553358320      111.04559360312429
C          124.46024432650948      109.34207071162065      110.16800060306095
H          125.63037038937291      107.59765390669723      109.78097325313828
H          124.59972268711077      107.46042655843721      111.20726707750249
C          123.73139331324411      110.09669187973684      111.28118344301365
H          125.13525267043742      110.03699074256080      109.66600420688090
H          123.71886995675077      109.00391245631147      109.44437116096375
N          122.64632017178351      109.34256218326129      111.86447640170130
H          124.43572419024760      110.36213986706250      112.07208965021496
H          123.28612087963734      111.00611165156479      110.86846241150363