      -----------------------------------------------------------      
     |                   =====================                   |     
     |                           x T B                           |     
     |                   =====================                   |     
     |                         S. Grimme                         |     
     |          Mulliken Center for Theoretical Chemistry        |     
     |                    University of Bonn                     |     
      -----------------------------------------------------------      

   * xtb version 6.6.1 (8d0f1dd) compiled by 'stahn@M-Bot' on 2023-08-01

   xtb is free software: you can redistribute it and/or modify it under
   the terms of the GNU Lesser General Public License as published by
   the Free Software Foundation, either version 3 of the License, or
   (at your option) any later version.
   
   xtb is distributed in the hope that it will be useful,
   but WITHOUT ANY WARRANTY; without even the implied warranty of
   MERCHANTABILITY or FITNESS FOR A PARTICULAR PURPOSE.  See the
   GNU Lesser General Public License for more details.
   
   Cite this work as:
   * C. Bannwarth, E. Caldeweyher, S. Ehlert, A. Hansen, P. Pracht,
     J. Seibert, S. Spicher, S. Grimme, WIREs Comput. Mol. Sci., 2020, 11,
     e01493. DOI: 10.1002/wcms.1493
   
   for GFN2-xTB:
   * C. Bannwarth, S. Ehlert and S. Grimme., J. Chem. Theory Comput., 2019,
     15, 1652-1671. DOI: 10.1021/acs.jctc.8b01176
   for GFN1-xTB:
   * S. Grimme, C. Bannwarth, P. Shushkov, J. Chem. Theory Comput., 2017,
     13, 1989-2009. DOI: 10.1021/acs.jctc.7b00118
   for GFN0-xTB:
   * P. Pracht, E. Caldeweyher, S. Ehlert, S. Grimme, ChemRxiv, 2019, preprint.
     DOI: 10.26434/chemrxiv.8326202.v1
   for GFN-FF:
   * S. Spicher and S. Grimme, Angew. Chem. Int. Ed., 2020, 59, 15665-15673.
     DOI: 10.1002/anie.202004239
   
   for ALPB and GBSA implicit solvation:
   * S. Ehlert, M. Stahn, S. Spicher, S. Grimme, J. Chem. Theory Comput.,
     2021, 17, 4250-4261. DOI: 10.1021/acs.jctc.1c00471
   
   for DFT-D4:
   * E. Caldeweyher, C. Bannwarth and S. Grimme, J. Chem. Phys., 2017,
     147, 034112. DOI: 10.1063/1.4993215
   * E. Caldeweyher, S. Ehlert, A. Hansen, H. Neugebauer, S. Spicher,
     C. Bannwarth and S. Grimme, J. Chem. Phys., 2019, 150, 154122.
     DOI: 10.1063/1.5090222
   * E. Caldeweyher, J.-M. Mewes, S. Ehlert and S. Grimme, Phys. Chem. Chem. Phys.
     2020, 22, 8499-8512. DOI: 10.1039/D0CP00502A
   
   for sTDA-xTB:
   * S. Grimme and C. Bannwarth, J. Chem. Phys., 2016, 145, 054103.
     DOI: 10.1063/1.4959605
   
   in the mass-spec context:
   * V. Asgeirsson, C. Bauer and S. Grimme, Chem. Sci., 2017, 8, 4879.
     DOI: 10.1039/c7sc00601b
   * J. Koopman and S. Grimme, ACS Omega 2019, 4, 12, 15120-15133.
     DOI: 10.1021/acsomega.9b02011
   
   for metadynamics refer to:
   * S. Grimme, J. Chem. Theory Comput., 2019, 155, 2847-2862
     DOI: 10.1021/acs.jctc.9b00143
   
   for SPH calculations refer to:
   * S. Spicher and S. Grimme, J. Chem. Theory Comput., 2021, 17, 1701-1714
     DOI: 10.1021/acs.jctc.0c01306
   
   with help from (in alphabetical order)
   P. Atkinson, C. Bannwarth, F. Bohle, G. Brandenburg, E. Caldeweyher
   M. Checinski, S. Dohm, S. Ehlert, S. Ehrlich, I. Gerasimov, C. Hölzer
   A. Katbashev, J. Koopman, C. Lavigne, S. Lehtola, F. März, M. Müller,
   F. Musil, H. Neugebauer, J. Pisarek, C. Plett, P. Pracht, F. Pultar,
   J. Seibert, P. Shushkov, S. Spicher, M. Stahn, M. Steiner, T. Strunk,
   J. Stückrath, T. Rose, and J. Unsleber
   
 * started run on 2024/06/20 at 22:34:07.384     

           -------------------------------------------------
          |                Calculation Setup                |
           -------------------------------------------------

          program call               : /home/abt-grimme/AK-bin/xtb input.xyz --input input.inp --opt --gbsa water
          hostname                   : boar086.thch.uni-bonn.de
          coordinate file            : input.xyz
          omp threads                :                     8

   ID    Z sym.   atoms
    1    6 C      1-90, 273-362, 545-634, 817-906, 1089-1178, 1361-1450,
                  1633-1722, 1905-1994, 2177-2266, 2449-2538, 2721-2810,
                  2993-3082, 3265-3354
    2    1 H      91-272, 363-544, 635-816, 907-1088, 1179-1360, 1451-1632,
                  1723-1904, 1995-2176, 2267-2448, 2539-2720, 2811-2992,
                  3083-3264, 3355-3536

molecular fragmentation (1/2 indicates fragments):
111111111111111111111111111111111111111111111111111111111111111111111111
111111111111111111111111111111111111111111111111111111111111111111111111
111111111111111111111111111111111111111111111111111111111111111111111111
111111111111111111111111111111111111111111111111111111112222222222222222
222222222222222222222222222222222222222222222222222222222222222222222222
222222222222222222222222222222222222222222222222222222222222222222222222
222222222222222222222222222222222222222222222222222222222222222222222222
222222222222222222222222222222222222222222222222222222222222222222222222
222222222222222222222222222222222222222222222222222222222222222222222222
222222222222222222222222222222222222222222222222222222222222222222222222
222222222222222222222222222222222222222222222222222222222222222222222222
222222222222222222222222222222222222222222222222222222222222222222222222
222222222222222222222222222222222222222222222222222222222222222222222222
222222222222222222222222222222222222222222222222222222222222222222222222
222222222222222222222222222222222222222222222222222222222222222222222222
222222222222222222222222222222222222222222222222222222222222222222222222
222222222222222222222222222222222222222222222222222222222222222222222222
222222222222222222222222222222222222222222222222222222222222222222222222
222222222222222222222222222222222222222222222222222222222222222222222222
222222222222222222222222222222222222222222222222222222222222222222222222
222222222222222222222222222222222222222222222222222222222222222222222222
222222222222222222222222222222222222222222222222222222222222222222222222
222222222222222222222222222222222222222222222222222222222222222222222222
222222222222222222222222222222222222222222222222222222222222222222222222
222222222222222222222222222222222222222222222222222222222222222222222222
222222222222222222222222222222222222222222222222222222222222222222222222
222222222222222222222222222222222222222222222222222222222222222222222222
222222222222222222222222222222222222222222222222222222222222222222222222
222222222222222222222222222222222222222222222222222222222222222222222222
222222222222222222222222222222222222222222222222222222222222222222222222
222222222222222222222222222222222222222222222222222222222222222222222222
222222222222222222222222222222222222222222222222222222222222222222222222
222222222222222222222222222222222222222222222222222222222222222222222222
222222222222222222222222222222222222222222222222222222222222222222222222
222222222222222222222222222222222222222222222222222222222222222222222222
222222222222222222222222222222222222222222222222222222222222222222222222
222222222222222222222222222222222222222222222222222222222222222222222222
222222222222222222222222222222222222222222222222222222222222222222222222
222222222222222222222222222222222222222222222222222222222222222222222222
222222222222222222222222222222222222222222222222222222222222222222222222
222222222222222222222222222222222222222222222222222222222222222222222222
222222222222222222222222222222222222222222222222222222222222222222222222
222222222222222222222222222222222222222222222222222222222222222222222222
222222222222222222222222222222222222222222222222222222222222222222222222
222222222222222222222222222222222222222222222222222222222222222222222222
222222222222222222222222222222222222222222222222222222222222222222222222
222222222222222222222222222222222222222222222222222222222222222222222222
222222222222222222222222222222222222222222222222222222222222222222222222
222222222222222222222222222222222222222222222222222222222222222222222222
22222222
# atoms in fragment 1/2:   272  3264
 fragment masses (1/2) :     1264.41    15172.94
CMA distance (Bohr)    :  19.425
constraining FC (au)   :  0.0500

           -------------------------------------------------
          |                 G F N 2 - x T B                 |
           -------------------------------------------------

        Reference                      10.1021/acs.jctc.8b01176
      * Hamiltonian:
        H0-scaling (s, p, d)           1.850000    2.230000    2.230000
        zeta-weighting                 0.500000
      * Dispersion:
        s8                             2.700000
        a1                             0.520000
        a2                             5.000000
        s9                             5.000000
      * Repulsion:
        kExp                           1.500000    1.000000
        rExp                           1.000000
      * Coulomb:
        alpha                          2.000000
        third order                    shell-resolved
        anisotropic                    true
        a3                             3.000000
        a5                             4.000000
        cn-shift                       1.200000
        cn-exp                         4.000000
        max-rad                        5.000000

      * Solvation model:               GBSA
        Solvent                        water
        Parameter file                 internal GFN2-xTB/GBSA
        Dielectric constant                8.0200E+01
        Reference state                gsolv [1 M gas/solution]
        Free energy shift                  1.8574E-03 Eh       1.1656E+00 kcal/mol
        Temperature                        2.9815E+02 K
        Density                            1.0000E+00 kg/L
        Solvent mass                       1.8000E+01 g/mol
        Interaction kernel             Still
        Born radius scaling (c1)           1.5524E+00
        Born radii integrator          GBOBC
        Born offset                        2.4628E-02 a0       4.6540E-02 AA
        H-bond correction              true
        Ion screening                  false
        Surface tension                    1.0000E-05 Eh       1.5569E+01 dyn/cm
        Grid points                               230 per atom
q/qsh data taken from xtbrestart
CAMM data taken from xtbrestart

          ...................................................
          :                      SETUP                      :
          :.................................................:
          :  # basis functions                7046          :
          :  # atomic orbitals                7046          :
          :  # shells                         4706          :
          :  # electrons                      7046          :
          :  max. iterations                   250          :
          :  Hamiltonian                  GFN2-xTB          :
          :  restarted?                       true          :
          :  GBSA solvation                   true          :
          :  PC potential                    false          :
          :  electronic temp.          300.0000000     K    :
          :  accuracy                    1.0000000          :
          :  -> integral cutoff          0.2500000E+02      :
          :  -> integral neglect         0.1000000E-07      :
          :  -> SCF convergence          0.1000000E-05 Eh   :
          :  -> wf. convergence          0.1000000E-03 e    :
          :  Broyden damping             0.4000000          :
          ...................................................

 iter      E             dE          RMSdq      gap      omega  full diag
   1  -3764.1844963 -0.376418E+04  0.372E-05   10.49       0.0  T
   2  -3764.1844963 -0.938144E-09  0.282E-05   10.49      59.6  T
   3  -3764.1844963 -0.117052E-08  0.139E-05   10.49     120.9  T

   *** convergence criteria satisfied after 3 iterations ***

         #    Occupation            Energy/Eh            Energy/eV
      -------------------------------------------------------------
         1        2.0000           -0.6187125             -16.8360
       ...           ...                  ...                  ...
      3517        2.0000           -0.3766196             -10.2483
      3518        2.0000           -0.3759727             -10.2307
      3519        2.0000           -0.3754759             -10.2172
      3520        2.0000           -0.3748571             -10.2004
      3521        2.0000           -0.3741315             -10.1806
      3522        2.0000           -0.3733645             -10.1598
      3523        2.0000           -0.3710359             -10.0964 (HOMO)
      3524                          0.0145760               0.3966 (LUMO)
      3525                          0.0150813               0.4104
      3526                          0.0160736               0.4374
      3527                          0.0174213               0.4741
      3528                          0.0176005               0.4789
       ...                                ...                  ...
      7046                          0.3746445              10.1946
      -------------------------------------------------------------
                  HL-Gap            0.3856119 Eh           10.4930 eV
             Fermi-level           -0.1782300 Eh           -4.8499 eV

 SCC (total)                   0 d,  0 h,  9 min,  1.185 sec
 SCC setup                      ...        0 min,  1.931 sec (  0.357%)
 Dispersion                     ...        0 min,  4.218 sec (  0.779%)
 classical contributions        ...        0 min,  0.156 sec (  0.029%)
 integral evaluation            ...        0 min,  9.643 sec (  1.782%)
 iterations                     ...        3 min, 54.642 sec ( 43.357%)
 molecular gradient             ...        4 min, 39.539 sec ( 51.653%)
 printout                       ...        0 min, 11.054 sec (  2.043%)

         :::::::::::::::::::::::::::::::::::::::::::::::::::::
         ::                     SUMMARY                     ::
         :::::::::::::::::::::::::::::::::::::::::::::::::::::
         :: total energy           -3715.360725567860 Eh    ::
         :: total w/o Gsasa/hb     -3715.248543979932 Eh    ::
         :: gradient norm              0.669162935994 Eh/a0 ::
         :: HOMO-LUMO gap             10.493033939496 eV    ::
         ::.................................................::
         :: SCC energy             -3764.184496338836 Eh    ::
         :: -> isotropic ES            0.440305530832 Eh    ::
         :: -> anisotropic ES          1.496185369539 Eh    ::
         :: -> anisotropic XC          2.304121340926 Eh    ::
         :: -> dispersion             -4.662210155837 Eh    ::
         :: -> Gsolv                  -0.049156774763 Eh    ::
         ::    -> Gelec                0.063024813165 Eh    ::
         ::    -> Gsasa               -0.107411350738 Eh    ::
         ::    -> Ghb                 -0.006627680316 Eh    ::
         ::    -> Gshift               0.001857443127 Eh    ::
         :: repulsion energy          48.108574900509 Eh    ::
         :: add. restraining           0.000000000000 Eh    ::
         :: total charge              -0.000000000010 e     ::
         :::::::::::::::::::::::::::::::::::::::::::::::::::::

      ----------------------------------------------------------- 
     |              Fast Inertial Relaxation Engine              |
      ----------------------------------------------------------- 

          ...................................................
          :                      SETUP                      :
          :.................................................:
          :   energy convergence        0.5000000E-05 Eh    :
          :   grad. convergence         0.1000000E-02 Eh/a0 :
          :   optimization log               true           :
          :   writing optlog all                1     steps :
          :   Hessian reset                    20     steps :
          :   time step scaling                 5     steps :
          :   maximium step len.        1.0000000     a0    :
          :   initial time step         0.2500000     fs    :
          :   maximum time step         1.2500000     fs    :
          :   power reset thr           0.0000000     au    :
          :   alpha parameter           0.1000000           :
          :   BFGS update                   false           :
          :   preconditioning               false           :
          ...................................................

........................................................................
.............................. CYCLE    1 ..............................
........................................................................

 iter      E             dE          RMSdq      gap      omega  full diag
   1  -3764.4478610 -0.376445E+04  0.767E-03   10.51       0.0  T
   2  -3764.4479051 -0.440716E-04  0.416E-03   10.51       1.0  T
   3  -3764.4479057 -0.678154E-06  0.180E-03   10.51       1.0  T
   4  -3764.4479062 -0.507874E-06  0.440E-04   10.51       3.8  T
   5  -3764.4479065 -0.271069E-06  0.176E-04   10.51       9.6  T
     SCC iter.                  ...        6 min, 25.859 sec
     gradient                   ...        4 min, 34.190 sec
 * total energy  : -3715.4116259 Eh     change    :  -0.5090031E-01 Eh
   gradient norm :     0.6361130 Eh/a0  converged?    E=F G=F D=F
   time step     :     0.2500000 fs     power     :   0.2633997E-05
   step length   :     0.0784245 a0     speed     :   0.7587989E-02

........................................................................
.............................. CYCLE    2 ..............................
........................................................................

 iter      E             dE          RMSdq      gap      omega  full diag
   1  -3764.8363887 -0.376484E+04  0.113E-02   10.53       0.0  T
   2  -3764.8364836 -0.948896E-04  0.610E-03   10.53       1.0  T
   3  -3764.8364851 -0.151595E-05  0.264E-03   10.53       1.0  T
   4  -3764.8364862 -0.110051E-05  0.653E-04   10.53       2.6  T
   5  -3764.8364868 -0.591417E-06  0.271E-04   10.53       6.2  T
   6  -3764.8364868 -0.435339E-07  0.122E-04   10.53      13.8  T
     SCC iter.                  ...        7 min, 50.908 sec
     gradient                   ...        4 min, 35.270 sec
 * total energy  : -3715.4822584 Eh     change    :  -0.7063253E-01 Eh
   gradient norm :     0.5895814 Eh/a0  converged?    E=F G=F D=F
   time step     :     0.2500000 fs     power     :   0.3602451E-05
   step length   :     0.1155555 a0     speed     :   0.1118061E-01

........................................................................
.............................. CYCLE    3 ..............................
........................................................................

 iter      E             dE          RMSdq      gap      omega  full diag
   1  -3765.3401418 -0.376534E+04  0.145E-02   10.55       0.0  T
   2  -3765.3402972 -0.155425E-03  0.786E-03   10.55       1.0  T
   3  -3765.3402998 -0.252196E-05  0.337E-03   10.55       1.0  T
   4  -3765.3403015 -0.178695E-05  0.839E-04   10.55       2.0  T
   5  -3765.3403025 -0.974072E-06  0.352E-04   10.55       4.8  T
   6  -3765.3403026 -0.705836E-07  0.154E-04   10.55      10.9  T
     SCC iter.                  ...        7 min, 38.878 sec
     gradient                   ...        4 min, 34.911 sec
 * total energy  : -3715.5659579 Eh     change    :  -0.8369945E-01 Eh
   gradient norm :     0.5309506 Eh/a0  converged?    E=F G=F D=F
   time step     :     0.2500000 fs     power     :   0.4197500E-05
   step length   :     0.1499830 a0     speed     :   0.1451166E-01

........................................................................
.............................. CYCLE    4 ..............................
........................................................................

 iter      E             dE          RMSdq      gap      omega  full diag
   1  -3765.9463564 -0.376595E+04  0.173E-02   10.57       0.0  T
   2  -3765.9465729 -0.216516E-03  0.938E-03   10.57       1.0  T
   3  -3765.9465766 -0.363800E-05  0.396E-03   10.57       1.0  T
   4  -3765.9465790 -0.244358E-05  0.990E-04   10.56       1.7  T
   5  -3765.9465804 -0.134087E-05  0.426E-04   10.56       3.9  T
   6  -3765.9465805 -0.101102E-06  0.182E-04   10.56       9.2  T
   7  -3765.9465805 -0.464197E-07  0.118E-04   10.56      14.2  T
     SCC iter.                  ...        8 min, 55.020 sec
     gradient                   ...        4 min, 34.464 sec
 * total energy  : -3715.6550821 Eh     change    :  -0.8912429E-01 Eh
   gradient norm :     0.4639229 Eh/a0  converged?    E=F G=F D=F
   time step     :     0.2500000 fs     power     :   0.4379220E-05
   step length   :     0.1808578 a0     speed     :   0.1749896E-01

........................................................................
.............................. CYCLE    5 ..............................
........................................................................

 iter      E             dE          RMSdq      gap      omega  full diag
   1  -3766.6395175 -0.376664E+04  0.197E-02   10.58       0.0  T
   2  -3766.6397852 -0.267732E-03  0.106E-02   10.58       1.0  T
   3  -3766.6397899 -0.469179E-05  0.440E-03   10.58       1.0  T
   4  -3766.6397928 -0.286875E-05  0.109E-03   10.58       1.5  T
   5  -3766.6397944 -0.158261E-05  0.477E-04   10.58       3.5  T
   6  -3766.6397945 -0.106514E-06  0.189E-04   10.58       8.9  T
   7  -3766.6397945 -0.468335E-07  0.122E-04   10.58      13.8  T
     SCC iter.                  ...        9 min,  0.866 sec
     gradient                   ...        4 min, 34.684 sec
 * total energy  : -3715.7419861 Eh     change    :  -0.8690400E-01 Eh
   gradient norm :     0.3939948 Eh/a0  converged?    E=F G=F D=F
   time step     :     0.2500000 fs     power     :   0.4162866E-05
   step length   :     0.2074518 a0     speed     :   0.2007208E-01

........................................................................
.............................. CYCLE    6 ..............................
........................................................................

 iter      E             dE          RMSdq      gap      omega  full diag
   1  -3767.4849355 -0.376748E+04  0.237E-02   10.60       0.0  T
   2  -3767.4853030 -0.367486E-03  0.127E-02   10.59       1.0  T
   3  -3767.4853101 -0.715450E-05  0.514E-03   10.59       1.0  T
   4  -3767.4853139 -0.373256E-05  0.125E-03   10.59       1.3  T
   5  -3767.4853159 -0.200770E-05  0.585E-04   10.59       2.9  T
   6  -3767.4853160 -0.147148E-06  0.215E-04   10.59       7.8  T
   7  -3767.4853161 -0.591813E-07  0.141E-04   10.59      12.0  T
     SCC iter.                  ...        8 min, 57.007 sec
     gradient                   ...        4 min, 35.160 sec
 * total energy  : -3715.8276036 Eh     change    :  -0.8561748E-01 Eh
   gradient norm :     0.3223678 Eh/a0  converged?    E=F G=F D=F
   time step     :     0.2750000 fs     power     :   0.3542433E-05
   step length   :     0.2544817 a0     speed     :   0.2238407E-01

........................................................................
.............................. CYCLE    7 ..............................
........................................................................

 iter      E             dE          RMSdq      gap      omega  full diag
   1  -3768.4786857 -0.376848E+04  0.276E-02   10.61       0.0  T
   2  -3768.4791365 -0.450840E-03  0.148E-02   10.60       1.0  T
   3  -3768.4791471 -0.105923E-04  0.569E-03   10.60       1.0  T
   4  -3768.4791513 -0.421950E-05  0.135E-03   10.60       1.2  T
   5  -3768.4791534 -0.203165E-05  0.693E-04   10.60       2.4  T
   6  -3768.4791535 -0.189579E-06  0.228E-04   10.60       7.4  T
   7  -3768.4791536 -0.651048E-07  0.154E-04   10.60      10.9  T
     SCC iter.                  ...        9 min,  2.044 sec
     gradient                   ...        4 min, 35.106 sec
 * total energy  : -3715.9023973 Eh     change    :  -0.7479364E-01 Eh
   gradient norm :     0.2656166 Eh/a0  converged?    E=F G=F D=F
   time step     :     0.3025000 fs     power     :   0.2576090E-05
   step length   :     0.3027776 a0     speed     :   0.2421104E-01

........................................................................
.............................. CYCLE    8 ..............................
........................................................................

 iter      E             dE          RMSdq      gap      omega  full diag
   1  -3769.5857475 -0.376959E+04  0.307E-02   10.62       0.0  T
   2  -3769.5862162 -0.468695E-03  0.164E-02   10.61       1.0  T
   3  -3769.5862312 -0.150388E-04  0.583E-03   10.61       1.0  T
   4  -3769.5862352 -0.392902E-05  0.132E-03   10.61       1.3  T
   5  -3769.5862364 -0.123903E-05  0.763E-04   10.61       2.2  T
   6  -3769.5862366 -0.223381E-06  0.216E-04   10.61       7.8  T
   7  -3769.5862367 -0.568034E-07  0.154E-04   10.61      10.9  T
     SCC iter.                  ...        8 min, 56.914 sec
     gradient                   ...        4 min, 37.754 sec
 * total energy  : -3715.9581742 Eh     change    :  -0.5577698E-01 Eh
   gradient norm :     0.2439742 Eh/a0  converged?    E=F G=F D=F
   time step     :     0.3327500 fs     power     :   0.1475275E-05
   step length   :     0.3468327 a0     speed     :   0.2521257E-01

........................................................................
.............................. CYCLE    9 ..............................
........................................................................

 iter      E             dE          RMSdq      gap      omega  full diag
   1  -3770.7228627 -0.377072E+04  0.326E-02   10.62       0.0  T
   2  -3770.7232488 -0.386038E-03  0.176E-02   10.62       1.0  T
   3  -3770.7232676 -0.188377E-04  0.544E-03   10.62       1.0  T
   4  -3770.7232710 -0.338335E-05  0.130E-03   10.62       1.3  T
   5  -3770.7232715 -0.494704E-06  0.751E-04   10.62       2.2  T
   6  -3770.7232717 -0.207211E-06  0.170E-04   10.62       9.9  T
     SCC iter.                  ...        7 min, 52.431 sec
     gradient                   ...        4 min, 37.929 sec
 * total energy  : -3715.9924965 Eh     change    :  -0.3432229E-01 Eh
   gradient norm :     0.2531178 Eh/a0  converged?    E=F G=F D=F
   time step     :     0.3660250 fs     power     :   0.5492980E-06
   step length   :     0.3789976 a0     speed     :   0.2504614E-01

........................................................................
.............................. CYCLE   10 ..............................
........................................................................

 iter      E             dE          RMSdq      gap      omega  full diag
   1  -3771.7766115 -0.377178E+04  0.334E-02   10.64       0.0  T
   2  -3771.7768612 -0.249716E-03  0.185E-02   10.64       1.0  T
   3  -3771.7768771 -0.159420E-04  0.480E-03   10.64       1.0  T
   4  -3771.7768856 -0.849097E-05  0.146E-03   10.64       1.2  T
   5  -3771.7768867 -0.110516E-05  0.821E-04   10.64       2.0  T
   6  -3771.7768869 -0.133188E-06  0.141E-04   10.63      12.0  T
   7  -3771.7768869 -0.222781E-07  0.104E-04   10.63      16.1  T
     SCC iter.                  ...        8 min, 57.102 sec
     gradient                   ...        4 min, 36.425 sec
 * total energy  : -3716.0093248 Eh     change    :  -0.1682823E-01 Eh
   gradient norm :     0.2633092 Eh/a0  converged?    E=F G=F D=F
   time step     :     0.4026275 fs     power     :  -0.4743938E-07
   step length   :     0.3968985 a0     speed     :   0.2384466E-01

........................................................................
.............................. CYCLE   11 ..............................
........................................................................
 * reset velocities

 iter      E             dE          RMSdq      gap      omega  full diag
   1  -3771.7578695 -0.377176E+04  0.106E-03   10.63       0.0  T
   2  -3771.7578703 -0.856211E-06  0.650E-04   10.63       2.6  T
   3  -3771.7578703 -0.109408E-07  0.273E-04   10.63       6.2  T
     SCC iter.                  ...        3 min, 53.014 sec
     gradient                   ...        4 min, 37.212 sec
 * total energy  : -3716.0119272 Eh     change    :  -0.2602468E-02 Eh
   gradient norm :     0.2569970 Eh/a0  converged?    E=F G=F D=F
   time step     :     0.2013138 fs     power     :   0.1694785E-06
   step length   :     0.0100051 a0     speed     :   0.1202166E-02

........................................................................
.............................. CYCLE   12 ..............................
........................................................................

 iter      E             dE          RMSdq      gap      omega  full diag
   1  -3771.7203164 -0.377172E+04  0.213E-03   10.64       0.0  T
   2  -3771.7203196 -0.321321E-05  0.130E-03   10.64       1.3  T
   3  -3771.7203196 -0.277696E-07  0.527E-04   10.64       3.2  T
   4  -3771.7203197 -0.829705E-07  0.137E-04   10.64      12.3  T
     SCC iter.                  ...        5 min,  6.946 sec
     gradient                   ...        4 min, 37.921 sec
 * total energy  : -3716.0168858 Eh     change    :  -0.4958605E-02 Eh
   gradient norm :     0.2446890 Eh/a0  converged?    E=F G=F D=F
   time step     :     0.2013138 fs     power     :   0.3187818E-06
   step length   :     0.0197702 a0     speed     :   0.2375488E-02

........................................................................
.............................. CYCLE   13 ..............................
........................................................................

 iter      E             dE          RMSdq      gap      omega  full diag
   1  -3771.6651821 -0.377167E+04  0.306E-03   10.64       0.0  T
   2  -3771.6651893 -0.723098E-05  0.188E-03   10.64       1.0  T
   3  -3771.6651894 -0.101825E-06  0.793E-04   10.64       2.1  T
   4  -3771.6651896 -0.188260E-06  0.209E-04   10.64       8.0  T
     SCC iter.                  ...        5 min, 21.002 sec
     gradient                   ...        4 min, 36.245 sec
 * total energy  : -3716.0237360 Eh     change    :  -0.6850129E-02 Eh
   gradient norm :     0.2268658 Eh/a0  converged?    E=F G=F D=F
   time step     :     0.2013138 fs     power     :   0.4342090E-06
   step length   :     0.0290660 a0     speed     :   0.3492424E-02

........................................................................
.............................. CYCLE   14 ..............................
........................................................................

 iter      E             dE          RMSdq      gap      omega  full diag
   1  -3771.5939112 -0.377159E+04  0.396E-03   10.64       0.0  T
   2  -3771.5939233 -0.120927E-04  0.243E-03   10.64       1.0  T
   3  -3771.5939235 -0.176248E-06  0.103E-03   10.64       1.6  T
   4  -3771.5939238 -0.313955E-06  0.271E-04   10.64       6.2  T
   5  -3771.5939239 -0.927262E-07  0.702E-05   10.64      23.9  T
     SCC iter.                  ...        6 min, 42.100 sec
     gradient                   ...        4 min, 36.847 sec
 * total energy  : -3716.0318461 Eh     change    :  -0.8110090E-02 Eh
   gradient norm :     0.2043050 Eh/a0  converged?    E=F G=F D=F
   time step     :     0.2013138 fs     power     :   0.5058536E-06
   step length   :     0.0376783 a0     speed     :   0.4527237E-02

........................................................................
.............................. CYCLE   15 ..............................
........................................................................

 iter      E             dE          RMSdq      gap      omega  full diag
   1  -3771.5084574 -0.377151E+04  0.473E-03   10.64       0.0  T
   2  -3771.5084748 -0.174550E-04  0.291E-03   10.64       1.0  T
   3  -3771.5084751 -0.259182E-06  0.123E-03   10.64       1.4  T
   4  -3771.5084755 -0.437367E-06  0.325E-04   10.64       5.2  T
   5  -3771.5084757 -0.132338E-06  0.832E-05   10.64      20.2  T
     SCC iter.                  ...        6 min, 51.403 sec
     gradient                   ...        4 min, 39.745 sec
 * total energy  : -3716.0404883 Eh     change    :  -0.8642234E-02 Eh
   gradient norm :     0.1780683 Eh/a0  converged?    E=F G=F D=F
   time step     :     0.2013138 fs     power     :   0.5286318E-06
   step length   :     0.0454152 a0     speed     :   0.5456856E-02

........................................................................
.............................. CYCLE   16 ..............................
........................................................................

 iter      E             dE          RMSdq      gap      omega  full diag
   1  -3771.4113424 -0.377141E+04  0.538E-03   10.65       0.0  T
   2  -3771.4113650 -0.226401E-04  0.331E-03   10.65       1.0  T
   3  -3771.4113653 -0.341227E-06  0.140E-03   10.65       1.2  T
   4  -3771.4113659 -0.556129E-06  0.370E-04   10.65       4.5  T
   5  -3771.4113661 -0.170500E-06  0.950E-05   10.65      17.7  T
     SCC iter.                  ...        6 min, 35.464 sec
     gradient                   ...        4 min, 33.354 sec
 * total energy  : -3716.0489225 Eh     change    :  -0.8434247E-02 Eh
   gradient norm :     0.1497519 Eh/a0  converged?    E=F G=F D=F
   time step     :     0.2013138 fs     power     :   0.5032461E-06
   step length   :     0.0521078 a0     speed     :   0.6261016E-02

........................................................................
.............................. CYCLE   17 ..............................
........................................................................

 iter      E             dE          RMSdq      gap      omega  full diag
   1  -3771.2941695 -0.377129E+04  0.650E-03   10.65       0.0  T
   2  -3771.2942028 -0.332478E-04  0.401E-03   10.65       1.0  T
   3  -3771.2942033 -0.505608E-06  0.169E-03   10.65       1.0  T
   4  -3771.2942041 -0.796432E-06  0.448E-04   10.65       3.8  T
   5  -3771.2942043 -0.248166E-06  0.114E-04   10.65      14.8  T
     SCC iter.                  ...        6 min, 26.671 sec
     gradient                   ...        4 min, 34.976 sec
 * total energy  : -3716.0572125 Eh     change    :  -0.8289922E-02 Eh
   gradient norm :     0.1189266 Eh/a0  converged?    E=F G=F D=F
   time step     :     0.2214451 fs     power     :   0.4271843E-06
   step length   :     0.0639846 a0     speed     :   0.6989152E-02

........................................................................
.............................. CYCLE   18 ..............................
........................................................................

 iter      E             dE          RMSdq      gap      omega  full diag
   1  -3771.1591514 -0.377116E+04  0.755E-03   10.66       0.0  T
   2  -3771.1591963 -0.449512E-04  0.468E-03   10.66       1.0  T
   3  -3771.1591970 -0.686176E-06  0.196E-03   10.66       1.0  T
   4  -3771.1591981 -0.105371E-05  0.521E-04   10.66       3.2  T
   5  -3771.1591984 -0.333081E-06  0.132E-04   10.66      12.8  T
   6  -3771.1591984 -0.138521E-07  0.903E-05   10.66      18.6  T
     SCC iter.                  ...        7 min, 59.918 sec
     gradient                   ...        4 min, 38.014 sec
 * total energy  : -3716.0643468 Eh     change    :  -0.7134366E-02 Eh
   gradient norm :     0.0918436 Eh/a0  converged?    E=F G=F D=F
   time step     :     0.2435896 fs     power     :   0.3041046E-06
   step length   :     0.0762895 a0     speed     :   0.7575671E-02

........................................................................
.............................. CYCLE   19 ..............................
........................................................................

 iter      E             dE          RMSdq      gap      omega  full diag
   1  -3771.0148341 -0.377101E+04  0.827E-03   10.66       0.0  T
   2  -3771.0148874 -0.533626E-04  0.516E-03   10.66       1.0  T
   3  -3771.0148882 -0.774327E-06  0.214E-03   10.66       1.0  T
   4  -3771.0148894 -0.124239E-05  0.567E-04   10.67       3.0  T
   5  -3771.0148898 -0.390688E-06  0.135E-04   10.67      12.4  T
   6  -3771.0148899 -0.124360E-07  0.884E-05   10.67      19.0  T
     SCC iter.                  ...        7 min, 49.960 sec
     gradient                   ...        4 min, 43.287 sec
 * total energy  : -3716.0693895 Eh     change    :  -0.5042679E-02 Eh
   gradient norm :     0.0820328 Eh/a0  converged?    E=F G=F D=F
   time step     :     0.2679486 fs     power     :   0.1592929E-06
   step length   :     0.0876061 a0     speed     :   0.7908574E-02

........................................................................
.............................. CYCLE   20 ..............................
........................................................................

 iter      E             dE          RMSdq      gap      omega  full diag
   1  -3770.8797658 -0.377088E+04  0.829E-03   10.67       0.0  T
   2  -3770.8798166 -0.508146E-04  0.522E-03   10.67       1.0  T
   3  -3770.8798172 -0.632779E-06  0.208E-03   10.67       1.0  T
   4  -3770.8798185 -0.127893E-05  0.557E-04   10.67       3.0  T
   5  -3770.8798189 -0.374333E-06  0.136E-04   10.67      12.4  T
   6  -3770.8798189 -0.109594E-07  0.834E-05   10.67      20.2  T
     SCC iter.                  ...        7 min, 40.581 sec
     gradient                   ...        4 min, 32.408 sec
 * total energy  : -3716.0721527 Eh     change    :  -0.2763242E-02 Eh
   gradient norm :     0.0957842 Eh/a0  converged?    E=F G=F D=F
   time step     :     0.2947435 fs     power     :   0.4552139E-07
   step length   :     0.0952768 a0     speed     :   0.7819122E-02
 * RMSD in coord.:     0.0375064 a0     energy gain  -0.7114272E+00 Eh

........................................................................
.............................. CYCLE   21 ..............................
........................................................................

 iter      E             dE          RMSdq      gap      omega  full diag
   1  -3770.7977438 -0.377080E+04  0.588E-03   10.68       0.0  T
   2  -3770.7977658 -0.220172E-04  0.374E-03   10.68       1.0  T
   3  -3770.7977659 -0.144257E-06  0.136E-03   10.68       1.2  T
   4  -3770.7977666 -0.713221E-06  0.369E-04   10.68       4.6  T
   5  -3770.7977668 -0.165599E-06  0.988E-05   10.68      17.0  T
     SCC iter.                  ...        6 min, 27.219 sec
     gradient                   ...        4 min, 33.970 sec
 * total energy  : -3716.0734369 Eh     change    :  -0.1284120E-02 Eh
   gradient norm :     0.1124865 Eh/a0  converged?    E=F G=F D=F
   time step     :     0.2500000 fs     power     :   0.2558209E-07
   step length   :     0.0754863 a0     speed     :   0.7303703E-02

........................................................................
.............................. CYCLE   22 ..............................
........................................................................

 iter      E             dE          RMSdq      gap      omega  full diag
   1  -3770.7510952 -0.377075E+04  0.485E-03   10.69       0.0  T
   2  -3770.7511055 -0.102998E-04  0.308E-03   10.69       1.0  T
   3  -3770.7511054  0.966556E-07  0.885E-04   10.69       1.9  T
   4  -3770.7511060 -0.549751E-06  0.253E-04   10.69       6.6  T
     SCC iter.                  ...        5 min,  7.369 sec
     gradient                   ...        4 min, 32.575 sec
 * total energy  : -3716.0750134 Eh     change    :  -0.1576559E-02 Eh
   gradient norm :     0.1245426 Eh/a0  converged?    E=F G=F D=F
   time step     :     0.2500000 fs     power     :   0.5983496E-07
   step length   :     0.0701750 a0     speed     :   0.6789805E-02

........................................................................
.............................. CYCLE   23 ..............................
........................................................................

 iter      E             dE          RMSdq      gap      omega  full diag
   1  -3770.7391256 -0.377074E+04  0.422E-03   10.70       0.0  T
   2  -3770.7391288 -0.315713E-05  0.264E-03   10.70       1.0  T
   3  -3770.7391287  0.116437E-06  0.408E-04   10.70       4.1  T
   4  -3770.7391290 -0.337441E-06  0.151E-04   10.70      11.1  T
     SCC iter.                  ...        5 min,  9.268 sec
     gradient                   ...        4 min, 37.105 sec
 * total energy  : -3716.0775641 Eh     change    :  -0.2550651E-02 Eh
   gradient norm :     0.1294734 Eh/a0  converged?    E=F G=F D=F
   time step     :     0.2500000 fs     power     :   0.1222332E-06
   step length   :     0.0665360 a0     speed     :   0.6437717E-02

........................................................................
.............................. CYCLE   24 ..............................
........................................................................

 iter      E             dE          RMSdq      gap      omega  full diag
   1  -3770.7593986 -0.377076E+04  0.413E-03   10.71       0.0  T
   2  -3770.7593991 -0.500772E-06  0.248E-03   10.71       1.0  T
   3  -3770.7593992 -0.900559E-07  0.184E-04   10.71       9.1  T
   4  -3770.7593992 -0.480400E-07  0.101E-04   10.71      16.6  T
     SCC iter.                  ...        5 min,  9.552 sec
     gradient                   ...        4 min, 34.278 sec
 * total energy  : -3716.0812966 Eh     change    :  -0.3732537E-02 Eh
   gradient norm :     0.1272237 Eh/a0  converged?    E=F G=F D=F
   time step     :     0.2500000 fs     power     :   0.1883146E-06
   step length   :     0.0651508 a0     speed     :   0.6303688E-02

........................................................................
.............................. CYCLE   25 ..............................
........................................................................

 iter      E             dE          RMSdq      gap      omega  full diag
   1  -3770.8085452 -0.377081E+04  0.446E-03   10.72       0.0  T
   2  -3770.8085465 -0.130789E-05  0.259E-03   10.72       1.0  T
   3  -3770.8085465 -0.262448E-07  0.355E-04   10.72       4.7  T
   4  -3770.8085467 -0.142421E-06  0.113E-04   10.72      14.8  T
     SCC iter.                  ...        5 min, 19.069 sec
     gradient                   ...        4 min, 32.290 sec
 * total energy  : -3716.0860446 Eh     change    :  -0.4747982E-02 Eh
   gradient norm :     0.1187833 Eh/a0  converged?    E=F G=F D=F
   time step     :     0.2500000 fs     power     :   0.2401266E-06
   step length   :     0.0658375 a0     speed     :   0.6370128E-02

........................................................................
.............................. CYCLE   26 ..............................
........................................................................

 iter      E             dE          RMSdq      gap      omega  full diag
   1  -3770.8916537 -0.377089E+04  0.555E-03   10.73       0.0  T
   2  -3770.8916592 -0.556672E-05  0.317E-03   10.72       1.0  T
   3  -3770.8916591  0.112058E-06  0.754E-04   10.72       2.2  T
   4  -3770.8916596 -0.449535E-06  0.170E-04   10.72       9.9  T
     SCC iter.                  ...        5 min, 10.289 sec
     gradient                   ...        4 min, 32.854 sec
 * total energy  : -3716.0919834 Eh     change    :  -0.5938761E-02 Eh
   gradient norm :     0.1042653 Eh/a0  converged?    E=F G=F D=F
   time step     :     0.2750000 fs     power     :   0.2670882E-06
   step length   :     0.0753323 a0     speed     :   0.6626188E-02

........................................................................
.............................. CYCLE   27 ..............................
........................................................................

 iter      E             dE          RMSdq      gap      omega  full diag
   1  -3771.0102767 -0.377101E+04  0.685E-03   10.74       0.0  T
   2  -3771.0102899 -0.132448E-04  0.388E-03   10.73       1.0  T
   3  -3771.0102898  0.163829E-06  0.113E-03   10.73       1.5  T
   4  -3771.0102905 -0.765342E-06  0.247E-04   10.73       6.8  T
   5  -3771.0102906 -0.967179E-07  0.116E-04   10.73      14.5  T
     SCC iter.                  ...        6 min, 29.597 sec
     gradient                   ...        4 min, 32.259 sec
 * total energy  : -3716.0985741 Eh     change    :  -0.6590731E-02 Eh
   gradient norm :     0.0860639 Eh/a0  converged?    E=F G=F D=F
   time step     :     0.3025000 fs     power     :   0.2588628E-06
   step length   :     0.0875962 a0     speed     :   0.7004462E-02

........................................................................
.............................. CYCLE   28 ..............................
........................................................................

 iter      E             dE          RMSdq      gap      omega  full diag
   1  -3771.1620197 -0.377116E+04  0.812E-03   10.74       0.0  T
   2  -3771.1620423 -0.225996E-04  0.458E-03   10.74       1.0  T
   3  -3771.1620422  0.151140E-06  0.142E-03   10.74       1.2  T
   4  -3771.1620432 -0.100317E-05  0.316E-04   10.74       5.3  T
   5  -3771.1620434 -0.161263E-06  0.131E-04   10.74      12.8  T
   6  -3771.1620434 -0.167265E-07  0.779E-05   10.74      21.6  T
     SCC iter.                  ...        7 min, 48.040 sec
     gradient                   ...        4 min, 33.430 sec
 * total energy  : -3716.1050056 Eh     change    :  -0.6431520E-02 Eh
   gradient norm :     0.0707875 Eh/a0  converged?    E=F G=F D=F
   time step     :     0.3327500 fs     power     :   0.2160357E-06
   step length   :     0.1019415 a0     speed     :   0.7410508E-02

........................................................................
.............................. CYCLE   29 ..............................
........................................................................

 iter      E             dE          RMSdq      gap      omega  full diag
   1  -3771.3356252 -0.377134E+04  0.898E-03   10.75       0.0  T
   2  -3771.3356532 -0.279235E-04  0.505E-03   10.75       1.0  T
   3  -3771.3356530  0.112979E-06  0.153E-03   10.75       1.1  T
   4  -3771.3356541 -0.104147E-05  0.350E-04   10.75       4.8  T
   5  -3771.3356543 -0.195193E-06  0.135E-04   10.75      12.5  T
   6  -3771.3356543 -0.150790E-07  0.769E-05   10.75      21.9  T
     SCC iter.                  ...        7 min, 36.221 sec
     gradient                   ...        4 min, 33.704 sec
 * total energy  : -3716.1105892 Eh     change    :  -0.5583616E-02 Eh
   gradient norm :     0.0681126 Eh/a0  converged?    E=F G=F D=F
   time step     :     0.3660250 fs     power     :   0.1586983E-06
   step length   :     0.1168311 a0     speed     :   0.7720811E-02

........................................................................
.............................. CYCLE   30 ..............................
........................................................................

 iter      E             dE          RMSdq      gap      omega  full diag
   1  -3771.5071841 -0.377151E+04  0.903E-03   10.76       0.0  T
   2  -3771.5072067 -0.226988E-04  0.505E-03   10.76       1.0  T
   3  -3771.5072068 -0.325836E-07  0.134E-03   10.76       1.3  T
   4  -3771.5072075 -0.710304E-06  0.308E-04   10.76       5.5  T
   5  -3771.5072076 -0.143519E-06  0.132E-04   10.76      12.7  T
     SCC iter.                  ...        6 min, 33.838 sec
     gradient                   ...        4 min, 33.139 sec
 * total energy  : -3716.1153967 Eh     change    :  -0.4807513E-02 Eh
   gradient norm :     0.0764352 Eh/a0  converged?    E=F G=F D=F
   time step     :     0.4026275 fs     power     :   0.1221760E-06
   step length   :     0.1300439 a0     speed     :   0.7812710E-02

........................................................................
.............................. CYCLE   31 ..............................
........................................................................

 iter      E             dE          RMSdq      gap      omega  full diag
   1  -3771.6491760 -0.377165E+04  0.841E-03   10.77       0.0  T
   2  -3771.6491865 -0.104475E-04  0.473E-03   10.77       1.0  T
   3  -3771.6491868 -0.301343E-06  0.868E-04   10.77       1.9  T
   4  -3771.6491870 -0.222620E-06  0.204E-04   10.77       8.2  T
     SCC iter.                  ...        5 min,  6.971 sec
     gradient                   ...        4 min, 32.220 sec
 * total energy  : -3716.1203573 Eh     change    :  -0.4960557E-02 Eh
   gradient norm :     0.0826468 Eh/a0  converged?    E=F G=F D=F
   time step     :     0.4428903 fs     power     :   0.1231558E-06
   step length   :     0.1420977 a0     speed     :   0.7760789E-02

........................................................................
.............................. CYCLE   32 ..............................
........................................................................

 iter      E             dE          RMSdq      gap      omega  full diag
   1  -3771.7386640 -0.377174E+04  0.775E-03   10.78       0.0  T
   2  -3771.7386668 -0.281758E-05  0.454E-03   10.78       1.0  T
   3  -3771.7386667  0.133904E-06  0.634E-04   10.78       2.7  T
   4  -3771.7386674 -0.702033E-06  0.191E-04   10.78       8.8  T
     SCC iter.                  ...        5 min,  8.288 sec
     gradient                   ...        4 min, 32.337 sec
 * total energy  : -3716.1263874 Eh     change    :  -0.6030124E-02 Eh
   gradient norm :     0.0784367 Eh/a0  converged?    E=F G=F D=F
   time step     :     0.4871793 fs     power     :   0.1423311E-06
   step length   :     0.1562873 a0     speed     :   0.7759793E-02

........................................................................
.............................. CYCLE   33 ..............................
........................................................................

 iter      E             dE          RMSdq      gap      omega  full diag
   1  -3771.7609074 -0.377176E+04  0.775E-03   10.78       0.0  T
   2  -3771.7609180 -0.105626E-04  0.485E-03   10.78       1.0  T
   3  -3771.7609166  0.138996E-05  0.114E-03   10.78       1.5  T
   4  -3771.7609192 -0.257586E-05  0.222E-04   10.78       7.6  T
   5  -3771.7609192 -0.324881E-07  0.122E-04   10.78      13.8  T
   6  -3771.7609192 -0.551472E-08  0.481E-05   10.78      35.0  T
     SCC iter.                  ...        7 min, 49.134 sec
     gradient                   ...        4 min, 32.676 sec
 * total energy  : -3716.1333473 Eh     change    :  -0.6959890E-02 Eh
   gradient norm :     0.0654713 Eh/a0  converged?    E=F G=F D=F
   time step     :     0.5358972 fs     power     :   0.1434486E-06
   step length   :     0.1749820 a0     speed     :   0.7898179E-02

........................................................................
.............................. CYCLE   34 ..............................
........................................................................

 iter      E             dE          RMSdq      gap      omega  full diag
   1  -3771.7187218 -0.377172E+04  0.836E-03   10.79       0.0  T
   2  -3771.7187520 -0.302776E-04  0.544E-03   10.79       1.0  T
   3  -3771.7187514  0.612665E-06  0.168E-03   10.79       1.0  T
   4  -3771.7187538 -0.233291E-05  0.395E-04   10.79       4.3  T
   5  -3771.7187540 -0.213795E-06  0.151E-04   10.79      11.1  T
   6  -3771.7187540 -0.133723E-07  0.761E-05   10.79      22.1  T
     SCC iter.                  ...        7 min, 51.374 sec
     gradient                   ...        4 min, 32.517 sec
 * total energy  : -3716.1400119 Eh     change    :  -0.6664592E-02 Eh
   gradient norm :     0.0582361 Eh/a0  converged?    E=F G=F D=F
   time step     :     0.5894869 fs     power     :   0.1121781E-06
   step length   :     0.1973897 a0     speed     :   0.8099636E-02

........................................................................
.............................. CYCLE   35 ..............................
........................................................................

 iter      E             dE          RMSdq      gap      omega  full diag
   1  -3771.6507069 -0.377165E+04  0.889E-03   10.80       0.0  T
   2  -3771.6507420 -0.350143E-04  0.570E-03   10.80       1.0  T
   3  -3771.6507419  0.975147E-07  0.161E-03   10.80       1.0  T
   4  -3771.6507434 -0.156981E-05  0.493E-04   10.80       3.4  T
   5  -3771.6507437 -0.299457E-06  0.172E-04   10.80       9.8  T
   6  -3771.6507437 -0.146351E-07  0.742E-05   10.80      22.7  T
     SCC iter.                  ...        7 min, 37.380 sec
     gradient                   ...        4 min, 33.210 sec
 * total energy  : -3716.1458221 Eh     change    :  -0.5810202E-02 Eh
   gradient norm :     0.0642905 Eh/a0  converged?    E=F G=F D=F
   time step     :     0.6484356 fs     power     :   0.8480779E-07
   step length   :     0.2192631 a0     speed     :   0.8179257E-02

........................................................................
.............................. CYCLE   36 ..............................
........................................................................

 iter      E             dE          RMSdq      gap      omega  full diag
   1  -3771.6188662 -0.377162E+04  0.991E-03   10.82       0.0  T
   2  -3771.6188819 -0.156336E-04  0.596E-03   10.82       1.0  T
   3  -3771.6188826 -0.787267E-06  0.909E-04   10.82       1.9  T
   4  -3771.6188831 -0.450886E-06  0.321E-04   10.83       5.2  T
     SCC iter.                  ...        5 min, 15.554 sec
     gradient                   ...        4 min, 33.530 sec
 * total energy  : -3716.1519410 Eh     change    :  -0.6118879E-02 Eh
   gradient norm :     0.0641330 Eh/a0  converged?    E=F G=F D=F
   time step     :     0.7132792 fs     power     :   0.8771533E-07
   step length   :     0.2401035 a0     speed     :   0.8142430E-02

........................................................................
.............................. CYCLE   37 ..............................
........................................................................

 iter      E             dE          RMSdq      gap      omega  full diag
   1  -3771.6694059 -0.377167E+04  0.120E-02   10.85       0.0  T
   2  -3771.6694143 -0.836073E-05  0.695E-03   10.85       1.0  T
   3  -3771.6694141  0.177049E-06  0.124E-03   10.85       1.4  T
   4  -3771.6694162 -0.207470E-05  0.348E-04   10.85       4.8  T
   5  -3771.6694162 -0.145460E-07  0.124E-04   10.85      13.6  T
   6  -3771.6694162 -0.524824E-08  0.286E-05   10.85      58.9  T
     SCC iter.                  ...        7 min, 50.885 sec
     gradient                   ...        4 min, 37.627 sec
 * total energy  : -3716.1586465 Eh     change    :  -0.6705526E-02 Eh
   gradient norm :     0.0523276 Eh/a0  converged?    E=F G=F D=F
   time step     :     0.7846071 fs     power     :   0.8110392E-07
   step length   :     0.2654009 a0     speed     :   0.8182110E-02

........................................................................
.............................. CYCLE   38 ..............................
........................................................................

 iter      E             dE          RMSdq      gap      omega  full diag
   1  -3771.8009556 -0.377180E+04  0.133E-02   10.88       0.0  T
   2  -3771.8009793 -0.237311E-04  0.768E-03   10.88       1.0  T
   3  -3771.8009782  0.111773E-05  0.171E-03   10.88       1.0  T
   4  -3771.8009816 -0.338982E-05  0.362E-04   10.88       4.6  T
   5  -3771.8009817 -0.107366E-06  0.178E-04   10.88       9.5  T
   6  -3771.8009817 -0.831415E-08  0.564E-05   10.88      29.8  T
     SCC iter.                  ...        7 min, 53.658 sec
     gradient                   ...        4 min, 36.614 sec
 * total energy  : -3716.1641951 Eh     change    :  -0.5548633E-02 Eh
   gradient norm :     0.0539339 Eh/a0  converged?    E=F G=F D=F
   time step     :     0.8630678 fs     power     :   0.4643996E-07
   step length   :     0.2935242 a0     speed     :   0.8226482E-02

........................................................................
.............................. CYCLE   39 ..............................
........................................................................

 iter      E             dE          RMSdq      gap      omega  full diag
   1  -3771.9364743 -0.377194E+04  0.120E-02   10.91       0.0  T
   2  -3771.9364887 -0.144874E-04  0.695E-03   10.90       1.0  T
   3  -3771.9364891 -0.382403E-06  0.103E-03   10.91       1.6  T
   4  -3771.9364899 -0.817039E-06  0.278E-04   10.91       6.0  T
   5  -3771.9364900 -0.475434E-07  0.146E-04   10.91      11.5  T
     SCC iter.                  ...        6 min, 26.423 sec
     gradient                   ...        4 min, 43.008 sec
 * total energy  : -3716.1692323 Eh     change    :  -0.5037207E-02 Eh
   gradient norm :     0.0586250 Eh/a0  converged?    E=F G=F D=F
   time step     :     0.9493746 fs     power     :   0.4268940E-07
   step length   :     0.3170582 a0     speed     :   0.8078236E-02

........................................................................
.............................. CYCLE   40 ..............................
........................................................................

 iter      E             dE          RMSdq      gap      omega  full diag
   1  -3772.0061543 -0.377201E+04  0.117E-02   10.92       0.0  T
   2  -3772.0061703 -0.159523E-04  0.696E-03   10.92       1.0  T
   3  -3772.0061683  0.190802E-05  0.159E-03   10.92       1.1  T
   4  -3772.0061729 -0.451753E-05  0.335E-04   10.92       5.0  T
   5  -3772.0061729 -0.357918E-07  0.179E-04   10.92       9.4  T
   6  -3772.0061729 -0.147761E-07  0.655E-05   10.92      25.7  T
     SCC iter.                  ...        7 min, 46.494 sec
     gradient                   ...        4 min, 39.924 sec
 * total energy  : -3716.1751595 Eh     change    :  -0.5927120E-02 Eh
   gradient norm :     0.0498212 Eh/a0  converged?    E=F G=F D=F
   time step     :     1.0443120 fs     power     :   0.4444988E-07
   step length   :     0.3449766 a0     speed     :   0.7990509E-02

........................................................................
.............................. CYCLE   41 ..............................
........................................................................

 iter      E             dE          RMSdq      gap      omega  full diag
   1  -3772.0278524 -0.377203E+04  0.126E-02   10.94       0.0  T
   2  -3772.0278834 -0.309482E-04  0.778E-03   10.94       1.0  T
   3  -3772.0278814  0.196531E-05  0.176E-03   10.94       1.0  T
   4  -3772.0278864 -0.498286E-05  0.427E-04   10.94       3.9  T
   5  -3772.0278865 -0.165953E-06  0.226E-04   10.94       7.5  T
   6  -3772.0278866 -0.309628E-07  0.997E-05   10.94      16.9  T
     SCC iter.                  ...        7 min, 50.411 sec
     gradient                   ...        4 min, 39.003 sec
 * total energy  : -3716.1802189 Eh     change    :  -0.5059454E-02 Eh
   gradient norm :     0.0504887 Eh/a0  converged?    E=F G=F D=F
   time step     :     1.1487432 fs     power     :   0.2194559E-07
   step length   :     0.3774855 a0     speed     :   0.7948633E-02

........................................................................
.............................. CYCLE   42 ..............................
........................................................................

 iter      E             dE          RMSdq      gap      omega  full diag
   1  -3772.0964090 -0.377210E+04  0.141E-02   10.97       0.0  T
   2  -3772.0964174 -0.839432E-05  0.823E-03   10.97       1.0  T
   3  -3772.0964177 -0.351621E-06  0.100E-03   10.97       1.7  T
   4  -3772.0964189 -0.113856E-05  0.326E-04   10.97       5.2  T
   5  -3772.0964189 -0.273048E-07  0.160E-04   10.97      10.5  T
     SCC iter.                  ...        6 min, 25.032 sec
     gradient                   ...        4 min, 40.876 sec
 * total energy  : -3716.1843517 Eh     change    :  -0.4132801E-02 Eh
   gradient norm :     0.0472775 Eh/a0  converged?    E=F G=F D=F
   time step     :     1.2500000 fs     power     :   0.9232334E-08
   step length   :     0.4015514 a0     speed     :   0.7770451E-02
 * RMSD in coord.:     0.0600731 a0     energy gain  -0.1121990E+00 Eh

........................................................................
.............................. CYCLE   43 ..............................
........................................................................

 iter      E             dE          RMSdq      gap      omega  full diag
   1  -3772.1104598 -0.377211E+04  0.240E-03   10.98       0.0  T
   2  -3772.1104601 -0.274389E-06  0.138E-03   10.98       1.2  T
   3  -3772.1104601  0.101363E-07  0.203E-04   10.98       8.3  T
   4  -3772.1104601 -0.566852E-07  0.546E-05   10.98      30.8  T
     SCC iter.                  ...        5 min,  9.275 sec
     gradient                   ...        4 min, 40.083 sec
 * total energy  : -3716.1849374 Eh     change    :  -0.5857063E-03 Eh
   gradient norm :     0.0475839 Eh/a0  converged?    E=F G=F D=F
   time step     :     0.2500000 fs     power     :   0.2675873E-07
   step length   :     0.0735696 a0     speed     :   0.7118258E-02

........................................................................
.............................. CYCLE   44 ..............................
........................................................................

 iter      E             dE          RMSdq      gap      omega  full diag
   1  -3772.1237476 -0.377212E+04  0.230E-03   10.98       0.0  T
   2  -3772.1237481 -0.537096E-06  0.135E-03   10.98       1.2  T
   3  -3772.1237481  0.241753E-07  0.239E-04   10.98       7.0  T
   4  -3772.1237482 -0.720875E-07  0.506E-05   10.98      33.2  T
     SCC iter.                  ...        5 min, 15.095 sec
     gradient                   ...        4 min, 38.212 sec
 * total energy  : -3716.1857919 Eh     change    :  -0.8545055E-03 Eh
   gradient norm :     0.0441654 Eh/a0  converged?    E=F G=F D=F
   time step     :     0.2500000 fs     power     :   0.4099234E-07
   step length   :     0.0684144 a0     speed     :   0.6619456E-02

........................................................................
.............................. CYCLE   45 ..............................
........................................................................

 iter      E             dE          RMSdq      gap      omega  full diag
   1  -3772.1346374 -0.377213E+04  0.245E-03   10.99       0.0  T
   2  -3772.1346382 -0.847598E-06  0.147E-03   10.99       1.1  T
   3  -3772.1346382  0.118043E-07  0.265E-04   10.99       6.4  T
   4  -3772.1346383 -0.744876E-07  0.622E-05   10.99      27.0  T
     SCC iter.                  ...        5 min, 11.246 sec
     gradient                   ...        4 min, 37.129 sec
 * total energy  : -3716.1867929 Eh     change    :  -0.1000961E-02 Eh
   gradient norm :     0.0380920 Eh/a0  converged?    E=F G=F D=F
   time step     :     0.2500000 fs     power     :   0.4725707E-07
   step length   :     0.0646293 a0     speed     :   0.6253228E-02

........................................................................
.............................. CYCLE   46 ..............................
........................................................................

 iter      E             dE          RMSdq      gap      omega  full diag
   1  -3772.1414280 -0.377214E+04  0.269E-03   11.00       0.0  T
   2  -3772.1414290 -0.103404E-05  0.163E-03   11.00       1.0  T
   3  -3772.1414290 -0.846148E-08  0.273E-04   11.00       6.2  T
   4  -3772.1414291 -0.749128E-07  0.733E-05   11.00      22.9  T
     SCC iter.                  ...        5 min,  6.664 sec
     gradient                   ...        4 min, 37.320 sec
 * total energy  : -3716.1877794 Eh     change    :  -0.9864913E-03 Eh
   gradient norm :     0.0310424 Eh/a0  converged?    E=F G=F D=F
   time step     :     0.2500000 fs     power     :   0.4460727E-07
   step length   :     0.0618445 a0     speed     :   0.5983788E-02

........................................................................
.............................. CYCLE   47 ..............................
........................................................................

 iter      E             dE          RMSdq      gap      omega  full diag
   1  -3772.1424296 -0.377214E+04  0.288E-03   11.00       0.0  T
   2  -3772.1424306 -0.101038E-05  0.175E-03   11.00       1.0  T
   3  -3772.1424306 -0.267637E-07  0.266E-04   11.00       6.3  T
   4  -3772.1424307 -0.770610E-07  0.815E-05   11.00      20.6  T
     SCC iter.                  ...        5 min, 20.674 sec
     gradient                   ...        4 min, 40.011 sec
 * total energy  : -3716.1886150 Eh     change    :  -0.8356566E-03 Eh
   gradient norm :     0.0254851 Eh/a0  converged?    E=F G=F D=F
   time step     :     0.2500000 fs     power     :   0.3536033E-07
   step length   :     0.0595997 a0     speed     :   0.5766587E-02

........................................................................
.............................. CYCLE   48 ..............................
........................................................................

 iter      E             dE          RMSdq      gap      omega  full diag
   1  -3772.1357339 -0.377214E+04  0.321E-03   11.01       0.0  T
   2  -3772.1357349 -0.978805E-06  0.193E-03   11.01       1.0  T
   3  -3772.1357349 -0.324285E-07  0.287E-04   11.01       5.9  T
   4  -3772.1357350 -0.110616E-06  0.961E-05   11.01      17.5  T
     SCC iter.                  ...        5 min, 37.132 sec
     gradient                   ...        4 min, 35.160 sec
 * total energy  : -3716.1892882 Eh     change    :  -0.6731902E-03 Eh
   gradient norm :     0.0239985 Eh/a0  converged?    E=F G=F D=F
   time step     :     0.2750000 fs     power     :   0.2284492E-07
   step length   :     0.0631207 a0     speed     :   0.5552062E-02

........................................................................
.............................. CYCLE   49 ..............................
........................................................................

 iter      E             dE          RMSdq      gap      omega  full diag
   1  -3772.1205861 -0.377212E+04  0.331E-03   11.01       0.0  T
   2  -3772.1205870 -0.848873E-06  0.195E-03   11.01       1.0  T
   3  -3772.1205870 -0.608361E-08  0.319E-04   11.01       5.3  T
   4  -3772.1205872 -0.163468E-06  0.103E-04   11.01      16.3  T
     SCC iter.                  ...        5 min, 23.337 sec
     gradient                   ...        4 min, 35.702 sec
 * total energy  : -3716.1897857 Eh     change    :  -0.4975022E-03 Eh
   gradient norm :     0.0270020 Eh/a0  converged?    E=F G=F D=F
   time step     :     0.3025000 fs     power     :   0.1364860E-07
   step length   :     0.0658994 a0     speed     :   0.5269522E-02

........................................................................
.............................. CYCLE   50 ..............................
........................................................................

 iter      E             dE          RMSdq      gap      omega  full diag
   1  -3772.0991706 -0.377210E+04  0.319E-03   11.01       0.0  T
   2  -3772.0991714 -0.827385E-06  0.185E-03   11.01       1.0  T
   3  -3772.0991714  0.174173E-07  0.338E-04   11.01       5.0  T
   4  -3772.0991716 -0.181026E-06  0.969E-05   11.01      17.4  T
     SCC iter.                  ...        5 min, 20.986 sec
     gradient                   ...        4 min, 34.768 sec
 * total energy  : -3716.1902180 Eh     change    :  -0.4322618E-03 Eh
   gradient norm :     0.0308411 Eh/a0  converged?    E=F G=F D=F
   time step     :     0.3327500 fs     power     :   0.1147919E-07
   step length   :     0.0678223 a0     speed     :   0.4930259E-02

........................................................................
.............................. CYCLE   51 ..............................
........................................................................

 iter      E             dE          RMSdq      gap      omega  full diag
   1  -3772.0749495 -0.377207E+04  0.306E-03   11.02       0.0  T
   2  -3772.0749505 -0.954934E-06  0.175E-03   11.02       1.0  T
   3  -3772.0749504  0.181099E-07  0.337E-04   11.02       5.0  T
   4  -3772.0749506 -0.148201E-06  0.833E-05   11.02      20.2  T
     SCC iter.                  ...        5 min, 15.948 sec
     gradient                   ...        4 min, 36.474 sec
 * total energy  : -3716.1907381 Eh     change    :  -0.5200755E-03 Eh
   gradient norm :     0.0326336 Eh/a0  converged?    E=F G=F D=F
   time step     :     0.3660250 fs     power     :   0.1490197E-07
   step length   :     0.0697688 a0     speed     :   0.4610684E-02

........................................................................
.............................. CYCLE   52 ..............................
........................................................................

 iter      E             dE          RMSdq      gap      omega  full diag
   1  -3772.0518961 -0.377205E+04  0.311E-03   11.02       0.0  T
   2  -3772.0518972 -0.111949E-05  0.178E-03   11.02       1.0  T
   3  -3772.0518972  0.100381E-07  0.321E-04   11.02       5.2  T
   4  -3772.0518973 -0.102934E-06  0.700E-05   11.02      24.0  T
     SCC iter.                  ...        5 min, 12.126 sec
     gradient                   ...        4 min, 42.007 sec
 * total energy  : -3716.1914447 Eh     change    :  -0.7066165E-03 Eh
   gradient norm :     0.0313830 Eh/a0  converged?    E=F G=F D=F
   time step     :     0.4026275 fs     power     :   0.1983063E-07
   step length   :     0.0726201 a0     speed     :   0.4362831E-02

........................................................................
.............................. CYCLE   53 ..............................
........................................................................

 iter      E             dE          RMSdq      gap      omega  full diag
   1  -3772.0345003 -0.377203E+04  0.340E-03   11.02       0.0  T
   2  -3772.0345015 -0.114393E-05  0.198E-03   11.02       1.0  T
   3  -3772.0345015 -0.376394E-08  0.293E-04   11.02       5.7  T
   4  -3772.0345015 -0.747073E-07  0.622E-05   11.02      27.0  T
     SCC iter.                  ...        5 min, 17.306 sec
     gradient                   ...        4 min, 36.786 sec
 * total energy  : -3716.1923227 Eh     change    :  -0.8779862E-03 Eh
   gradient norm :     0.0276099 Eh/a0  converged?    E=F G=F D=F
   time step     :     0.4428903 fs     power     :   0.2208531E-07
   step length   :     0.0769035 a0     speed     :   0.4200152E-02

........................................................................
.............................. CYCLE   54 ..............................
........................................................................

 iter      E             dE          RMSdq      gap      omega  full diag
   1  -3772.0275416 -0.377203E+04  0.379E-03   11.03       0.0  T
   2  -3772.0275426 -0.937923E-06  0.223E-03   11.03       1.0  T
   3  -3772.0275426 -0.115861E-07  0.273E-04   11.03       6.2  T
   4  -3772.0275427 -0.911632E-07  0.761E-05   11.03      22.1  T
     SCC iter.                  ...        5 min, 18.655 sec
     gradient                   ...        4 min, 40.425 sec
 * total energy  : -3716.1932438 Eh     change    :  -0.9211716E-03 Eh
   gradient norm :     0.0234444 Eh/a0  converged?    E=F G=F D=F
   time step     :     0.4871793 fs     power     :   0.1956041E-07
   step length   :     0.0825940 a0     speed     :   0.4100860E-02

........................................................................
.............................. CYCLE   55 ..............................
........................................................................

 iter      E             dE          RMSdq      gap      omega  full diag
   1  -3772.0345560 -0.377203E+04  0.402E-03   11.03       0.0  T
   2  -3772.0345568 -0.776754E-06  0.237E-03   11.03       1.0  T
   3  -3772.0345568  0.148775E-07  0.313E-04   11.03       5.4  T
   4  -3772.0345570 -0.174225E-06  0.103E-04   11.03      16.4  T
     SCC iter.                  ...        5 min,  8.993 sec
     gradient                   ...        4 min, 34.625 sec
 * total energy  : -3716.1940551 Eh     change    :  -0.8112308E-03 Eh
   gradient norm :     0.0219531 Eh/a0  converged?    E=F G=F D=F
   time step     :     0.5358972 fs     power     :   0.1384871E-07
   step length   :     0.0889328 a0     speed     :   0.4014168E-02

........................................................................
.............................. CYCLE   56 ..............................
........................................................................

 iter      E             dE          RMSdq      gap      omega  full diag
   1  -3772.0540635 -0.377205E+04  0.388E-03   11.03       0.0  T
   2  -3772.0540646 -0.115529E-05  0.229E-03   11.03       1.0  T
   3  -3772.0540646  0.180407E-07  0.372E-04   11.03       4.5  T
   4  -3772.0540648 -0.205314E-06  0.117E-04   11.03      14.4  T
     SCC iter.                  ...        5 min,  6.282 sec
     gradient                   ...        4 min, 35.599 sec
 * total energy  : -3716.1947220 Eh     change    :  -0.6669452E-03 Eh
   gradient norm :     0.0237491 Eh/a0  converged?    E=F G=F D=F
   time step     :     0.5894869 fs     power     :   0.9446753E-08
   step length   :     0.0947112 a0     speed     :   0.3886355E-02

........................................................................
.............................. CYCLE   57 ..............................
........................................................................

 iter      E             dE          RMSdq      gap      omega  full diag
   1  -3772.0784083 -0.377208E+04  0.353E-03   11.03       0.0  T
   2  -3772.0784099 -0.166762E-05  0.207E-03   11.03       1.0  T
   3  -3772.0784100 -0.246760E-07  0.392E-04   11.03       4.3  T
   4  -3772.0784101 -0.130793E-06  0.111E-04   11.03      15.1  T
     SCC iter.                  ...        5 min, 11.789 sec
     gradient                   ...        4 min, 36.042 sec
 * total energy  : -3716.1953894 Eh     change    :  -0.6673743E-03 Eh
   gradient norm :     0.0261245 Eh/a0  converged?    E=F G=F D=F
   time step     :     0.6484356 fs     power     :   0.9547072E-08
   step length   :     0.0999242 a0     speed     :   0.3727510E-02

........................................................................
.............................. CYCLE   58 ..............................
........................................................................

 iter      E             dE          RMSdq      gap      omega  full diag
   1  -3772.0975513 -0.377210E+04  0.339E-03   11.04       0.0  T
   2  -3772.0975527 -0.139283E-05  0.198E-03   11.04       1.0  T
   3  -3772.0975528 -0.481155E-07  0.335E-04   11.04       5.0  T
   4  -3772.0975529 -0.732343E-07  0.922E-05   11.04      18.2  T
     SCC iter.                  ...        5 min, 12.718 sec
     gradient                   ...        4 min, 33.966 sec
 * total energy  : -3716.1962707 Eh     change    :  -0.8812588E-03 Eh
   gradient norm :     0.0260691 Eh/a0  converged?    E=F G=F D=F
   time step     :     0.7132792 fs     power     :   0.1321523E-07
   step length   :     0.1062901 a0     speed     :   0.3604529E-02

........................................................................
.............................. CYCLE   59 ..............................
........................................................................

 iter      E             dE          RMSdq      gap      omega  full diag
   1  -3772.1023551 -0.377210E+04  0.374E-03   11.04       0.0  T
   2  -3772.1023558 -0.755463E-06  0.219E-03   11.04       1.0  T
   3  -3772.1023559 -0.650548E-07  0.286E-04   11.04       5.9  T
   4  -3772.1023560 -0.815166E-07  0.983E-05   11.04      17.1  T
     SCC iter.                  ...        5 min,  9.059 sec
     gradient                   ...        4 min, 34.696 sec
 * total energy  : -3716.1974211 Eh     change    :  -0.1150441E-02 Eh
   gradient norm :     0.0224397 Eh/a0  converged?    E=F G=F D=F
   time step     :     0.7846071 fs     power     :   0.1563033E-07
   step length   :     0.1156522 a0     speed     :   0.3565470E-02

........................................................................
.............................. CYCLE   60 ..............................
........................................................................

 iter      E             dE          RMSdq      gap      omega  full diag
   1  -3772.0876791 -0.377209E+04  0.439E-03   11.04       0.0  T
   2  -3772.0876806 -0.145914E-05  0.256E-03   11.04       1.0  T
   3  -3772.0876807 -0.858804E-07  0.408E-04   11.04       4.1  T
   4  -3772.0876808 -0.142372E-06  0.122E-04   11.04      13.8  T
     SCC iter.                  ...        5 min, 11.746 sec
     gradient                   ...        4 min, 37.839 sec
 * total energy  : -3716.1986037 Eh     change    :  -0.1182610E-02 Eh
   gradient norm :     0.0200658 Eh/a0  converged?    E=F G=F D=F
   time step     :     0.8630678 fs     power     :   0.1281890E-07
   step length   :     0.1280384 a0     speed     :   0.3588479E-02

........................................................................
.............................. CYCLE   61 ..............................
........................................................................

 iter      E             dE          RMSdq      gap      omega  full diag
   1  -3772.0586833 -0.377206E+04  0.453E-03   11.04       0.0  T
   2  -3772.0586858 -0.247361E-05  0.261E-03   11.05       1.0  T
   3  -3772.0586859 -0.100255E-06  0.503E-04   11.04       3.3  T
   4  -3772.0586861 -0.144181E-06  0.125E-04   11.05      13.5  T
     SCC iter.                  ...        5 min, 30.088 sec
     gradient                   ...        4 min, 38.285 sec
 * total energy  : -3716.1996978 Eh     change    :  -0.1094073E-02 Eh
   gradient norm :     0.0229245 Eh/a0  converged?    E=F G=F D=F
   time step     :     0.9493746 fs     power     :   0.1066194E-07
   step length   :     0.1407551 a0     speed     :   0.3586259E-02

........................................................................
.............................. CYCLE   62 ..............................
........................................................................

 iter      E             dE          RMSdq      gap      omega  full diag
   1  -3772.0328656 -0.377203E+04  0.425E-03   11.05       0.0  T
   2  -3772.0328674 -0.177635E-05  0.244E-03   11.05       1.0  T
   3  -3772.0328675 -0.938098E-07  0.448E-04   11.05       3.8  T
   4  -3772.0328676 -0.130769E-06  0.119E-04   11.05      14.1  T
     SCC iter.                  ...        5 min,  5.257 sec
     gradient                   ...        4 min, 34.350 sec
 * total energy  : -3716.2010284 Eh     change    :  -0.1330662E-02 Eh
   gradient norm :     0.0215368 Eh/a0  converged?    E=F G=F D=F
   time step     :     1.0443120 fs     power     :   0.1332744E-07
   step length   :     0.1543219 a0     speed     :   0.3574476E-02

........................................................................
.............................. CYCLE   63 ..............................
........................................................................

[...]
  3284   6 C     3286   6 C                                       1.5379215
  3287   6 C     3288   6 C                                       1.5293674
  3287   6 C     3289   6 C                                       1.5352152
  3289   6 C     3290   6 C                                       1.5320659
  3290   6 C     3291   6 C                                       1.5281599
  3290   6 C     3292   6 C                                       1.5368043
  3292   6 C     3293   6 C                                       1.5317197
  3293   6 C     3294   6 C                                       1.5275663
  3293   6 C     3295   6 C                                       1.5367217
  3296   6 C     3297   6 C                                       1.5292561
  3296   6 C     3298   6 C                                       1.5346975
  3298   6 C     3299   6 C                                       1.5355353
  3299   6 C     3300   6 C                                       1.5293056
  3301   6 C     3302   6 C                                       1.5332501
  3302   6 C     3303   6 C                                       1.5288472
  3302   6 C     3304   6 C                                       1.5364533
  3304   6 C     3305   6 C                                       1.5333766
  3305   6 C     3306   6 C                                       1.5284708
  3305   6 C     3307   6 C                                       1.5374099
  3307   6 C     3308   6 C                                       1.5341543
  3308   6 C     3309   6 C                                       1.5268944
  3308   6 C     3310   6 C                                       1.5364219
  3310   6 C     3311   6 C                                       1.5313969
  3311   6 C     3312   6 C                                       1.5289434
  3311   6 C     3313   6 C                                       1.5371901
  3313   6 C     3314   6 C                                       1.5339083
  3314   6 C     3315   6 C                                       1.5281839
  3314   6 C     3316   6 C                                       1.5372951
  3316   6 C     3317   6 C                                       1.5371316
  3317   6 C     3318   6 C                                       1.5265409
  3317   6 C     3319   6 C                                       1.5364502
  3319   6 C     3320   6 C                                       1.5358507
  3320   6 C     3321   6 C                                       1.5288399
  3320   6 C     3322   6 C                                       1.5325675
  3322   6 C     3323   6 C                                       1.5367735
  3323   6 C     3324   6 C                                       1.5294255
  3323   6 C     3325   6 C                                       1.5322229
  3325   6 C     3326   6 C                                       1.5339403
  3326   6 C     3327   6 C                                       1.5289506
  3326   6 C     3328   6 C                                       1.5332158
  3328   6 C     3329   6 C                                       1.5357308
  3329   6 C     3330   6 C                                       1.5267964
  3329   6 C     3331   6 C                                       1.5366748
  3331   6 C     3332   6 C                                       1.5362291
  3332   6 C     3333   6 C                                       1.5284014
  3334   6 C     3335   6 C                                       1.5329222
  3335   6 C     3336   6 C                                       1.5269702
  3335   6 C     3337   6 C                                       1.5362624
  3337   6 C     3338   6 C                                       1.5324691
  3338   6 C     3339   6 C                                       1.5277228
  3338   6 C     3340   6 C                                       1.5344312
  3340   6 C     3341   6 C                                       1.5366434
  3341   6 C     3342   6 C                                       1.5262281
  3341   6 C     3343   6 C                                       1.5348713
  3343   6 C     3344   6 C                                       1.5328999
  3344   6 C     3345   6 C                                       1.5293116
  3344   6 C     3346   6 C                                       1.5376273
  3346   6 C     3347   6 C                                       1.5344575
  3347   6 C     3348   6 C                                       1.5267946
  3347   6 C     3349   6 C                                       1.5361878
  3349   6 C     3350   6 C                                       1.5355554
  3350   6 C     3351   6 C                                       1.5279220
  3350   6 C     3352   6 C                                       1.5340759
  3352   6 C     3353   6 C                                       1.5297405
  3353   6 C     3354   6 C                                       1.5245083
  3265   6 C     3355   1 H                                       1.0886644
  3265   6 C     3356   1 H                                       1.0874901
  3265   6 C     3357   1 H                                       1.0876820
  3354   6 C     3358   1 H                                       1.0879750
  3354   6 C     3359   1 H                                       1.0883020
  3354   6 C     3360   1 H                                       1.0869771
  3352   6 C     3361   1 H                                       1.0922400
  3352   6 C     3362   1 H                                       1.0935266
  3349   6 C     3363   1 H                                       1.0928410
  3349   6 C     3364   1 H                                       1.0932319
  3347   6 C     3365   1 H                                       1.0931212
  3348   6 C     3366   1 H                                       1.0880816
  3348   6 C     3367   1 H                                       1.0868630
  3348   6 C     3368   1 H                                       1.0857354
  3346   6 C     3369   1 H                                       1.0915695
  3346   6 C     3370   1 H                                       1.0925428
  3343   6 C     3371   1 H                                       1.0937331
  3343   6 C     3372   1 H                                       1.0936883
  3350   6 C     3373   1 H                                       1.0936005
  3351   6 C     3374   1 H                                       1.0886090
  3351   6 C     3375   1 H                                       1.0887829
  3351   6 C     3376   1 H                                       1.0874942
  3344   6 C     3377   1 H                                       1.0903298
  3345   6 C     3378   1 H                                       1.0874586
  3345   6 C     3379   1 H                                       1.0880068
  3345   6 C     3380   1 H                                       1.0881421
  3341   6 C     3381   1 H                                       1.0937669
  3342   6 C     3382   1 H                                       1.0863647
  3342   6 C     3383   1 H                                       1.0875648
  3342   6 C     3384   1 H                                       1.0858626
  3340   6 C     3385   1 H                                       1.0939136
  3340   6 C     3386   1 H                                       1.0936228
  3338   6 C     3387   1 H                                       1.0912499
  3339   6 C     3388   1 H                                       1.0871506
  3339   6 C     3389   1 H                                       1.0875088
  3339   6 C     3390   1 H                                       1.0876547
  3337   6 C     3391   1 H                                       1.0910687
  3337   6 C     3392   1 H                                       1.0929966
  3335   6 C     3393   1 H                                       1.0958296
  3336   6 C     3394   1 H                                       1.0872811
  3336   6 C     3395   1 H                                       1.0888443
  3336   6 C     3396   1 H                                       1.0886155
  3334   6 C     3397   1 H                                       1.0900092
  3334   6 C     3398   1 H                                       1.0923290
  3332   6 C     3399   1 H                                       1.0957533
  3333   6 C     3400   1 H                                       1.0889361
  3333   6 C     3401   1 H                                       1.0877482
  3333   6 C     3402   1 H                                       1.0881532
  3331   6 C     3403   1 H                                       1.0924278
  3331   6 C     3404   1 H                                       1.0932777
  3329   6 C     3405   1 H                                       1.0939923
  3330   6 C     3406   1 H                                       1.0889767
  3330   6 C     3407   1 H                                       1.0884890
  3330   6 C     3408   1 H                                       1.0872723
  3328   6 C     3409   1 H                                       1.0920169
  3328   6 C     3410   1 H                                       1.0931459
  3326   6 C     3411   1 H                                       1.0939225
  3327   6 C     3412   1 H                                       1.0872858
  3327   6 C     3413   1 H                                       1.0868511
  3327   6 C     3414   1 H                                       1.0876037
  3325   6 C     3415   1 H                                       1.0912359
  3325   6 C     3416   1 H                                       1.0920844
  3323   6 C     3417   1 H                                       1.0937344
  3324   6 C     3418   1 H                                       1.0866270
  3324   6 C     3419   1 H                                       1.0879716
  3324   6 C     3420   1 H                                       1.0879947
  3322   6 C     3421   1 H                                       1.0919017
  3322   6 C     3422   1 H                                       1.0931819
  3320   6 C     3423   1 H                                       1.0927232
  3321   6 C     3424   1 H                                       1.0865762
  3321   6 C     3425   1 H                                       1.0881586
  3321   6 C     3426   1 H                                       1.0882941
  3319   6 C     3427   1 H                                       1.0938013
  3319   6 C     3428   1 H                                       1.0935609
  3317   6 C     3429   1 H                                       1.0943953
  3318   6 C     3430   1 H                                       1.0868804
  3318   6 C     3431   1 H                                       1.0866338
  3318   6 C     3432   1 H                                       1.0879964
  3316   6 C     3433   1 H                                       1.0931971
  3316   6 C     3434   1 H                                       1.0929889
  3314   6 C     3435   1 H                                       1.0930043
  3315   6 C     3436   1 H                                       1.0879924
  3315   6 C     3437   1 H                                       1.0884880
  3315   6 C     3438   1 H                                       1.0868055
  3313   6 C     3439   1 H                                       1.0928214
  3313   6 C     3440   1 H                                       1.0938076
  3311   6 C     3441   1 H                                       1.0934112
  3312   6 C     3442   1 H                                       1.0882630
  3312   6 C     3443   1 H                                       1.0867765
  3312   6 C     3444   1 H                                       1.0886180
  3310   6 C     3445   1 H                                       1.0919236
  3310   6 C     3446   1 H                                       1.0934225
  3308   6 C     3447   1 H                                       1.0934678
  3309   6 C     3448   1 H                                       1.0870485
  3309   6 C     3449   1 H                                       1.0854923
  3309   6 C     3450   1 H                                       1.0871225
  3307   6 C     3451   1 H                                       1.0928192
  3307   6 C     3452   1 H                                       1.0944098
  3305   6 C     3453   1 H                                       1.0933750
  3306   6 C     3454   1 H                                       1.0886258
  3306   6 C     3455   1 H                                       1.0866701
  3306   6 C     3456   1 H                                       1.0869216
  3304   6 C     3457   1 H                                       1.0917241
  3304   6 C     3458   1 H                                       1.0938817
  3302   6 C     3459   1 H                                       1.0942845
  3303   6 C     3460   1 H                                       1.0883944
  3303   6 C     3461   1 H                                       1.0888770
  3303   6 C     3462   1 H                                       1.0874416
  3301   6 C     3463   1 H                                       1.0892491
  3301   6 C     3464   1 H                                       1.0924884
  3299   6 C     3465   1 H                                       1.0948410
  3300   6 C     3466   1 H                                       1.0883354
  3300   6 C     3467   1 H                                       1.0878949
  3300   6 C     3468   1 H                                       1.0880962
  3298   6 C     3469   1 H                                       1.0908354
  3298   6 C     3470   1 H                                       1.0934314
  3296   6 C     3471   1 H                                       1.0943164
  3297   6 C     3472   1 H                                       1.0885416
  3297   6 C     3473   1 H                                       1.0877013
  3297   6 C     3474   1 H                                       1.0888238
  3295   6 C     3475   1 H                                       1.0924235
  3295   6 C     3476   1 H                                       1.0926163
  3293   6 C     3477   1 H                                       1.0962193
  3294   6 C     3478   1 H                                       1.0884618
  3294   6 C     3479   1 H                                       1.0879281
  3294   6 C     3480   1 H                                       1.0868626
  3292   6 C     3481   1 H                                       1.0918885
  3292   6 C     3482   1 H                                       1.0938257
  3290   6 C     3483   1 H                                       1.0933270
  3291   6 C     3484   1 H                                       1.0853977
  3291   6 C     3485   1 H                                       1.0872374
  3291   6 C     3486   1 H                                       1.0882632
  3289   6 C     3487   1 H                                       1.0915945
  3289   6 C     3488   1 H                                       1.0927869
  3287   6 C     3489   1 H                                       1.0928786
  3288   6 C     3490   1 H                                       1.0889966
  3288   6 C     3491   1 H                                       1.0876522
  3288   6 C     3492   1 H                                       1.0878814
  3286   6 C     3493   1 H                                       1.0917242
  3286   6 C     3494   1 H                                       1.0919611
  3284   6 C     3495   1 H                                       1.0924967
  3285   6 C     3496   1 H                                       1.0882733
  3285   6 C     3497   1 H                                       1.0878101
  3285   6 C     3498   1 H                                       1.0880278
  3283   6 C     3499   1 H                                       1.0927633
  3283   6 C     3500   1 H                                       1.0939557
  3281   6 C     3501   1 H                                       1.0976753
  3282   6 C     3502   1 H                                       1.0880160
  3282   6 C     3503   1 H                                       1.0885079
  3282   6 C     3504   1 H                                       1.0863195
  3280   6 C     3505   1 H                                       1.0933070
  3280   6 C     3506   1 H                                       1.0935870
  3278   6 C     3507   1 H                                       1.0920877
  3279   6 C     3508   1 H                                       1.0848580
  3279   6 C     3509   1 H                                       1.0886810
  3279   6 C     3510   1 H                                       1.0887797
  3277   6 C     3511   1 H                                       1.0873386
  3277   6 C     3512   1 H                                       1.0931592
  3275   6 C     3513   1 H                                       1.0940932
  3276   6 C     3514   1 H                                       1.0875286
  3276   6 C     3515   1 H                                       1.0894866
  3276   6 C     3516   1 H                                       1.0852943
  3274   6 C     3517   1 H                                       1.0924631
  3274   6 C     3518   1 H                                       1.0928874
  3272   6 C     3519   1 H                                       1.0952283
  3273   6 C     3520   1 H                                       1.0887099
  3273   6 C     3521   1 H                                       1.0866773
  3273   6 C     3522   1 H                                       1.0855781
  3271   6 C     3523   1 H                                       1.0925471
  3271   6 C     3524   1 H                                       1.0943518
  3269   6 C     3525   1 H                                       1.0933576
  3270   6 C     3526   1 H                                       1.0861176
  3270   6 C     3527   1 H                                       1.0888832
  3270   6 C     3528   1 H                                       1.0883461
  3268   6 C     3529   1 H                                       1.0929015
  3268   6 C     3530   1 H                                       1.0920116
  3266   6 C     3531   1 H                                       1.0949134
  3267   6 C     3532   1 H                                       1.0881209
  3267   6 C     3533   1 H                                       1.0888792
  3267   6 C     3534   1 H                                       1.0866055
  3353   6 C     3535   1 H                                       1.0934428
  3353   6 C     3536   1 H                                       1.0916702

 * 2 distinct bonds (by element types)

   Z      Z             #   av. dist./Å        max./Å        min./Å
   1 H    6 C        2366     1.0903211     1.0977496     1.0844678
   6 C    6 C        1104     1.5323599     1.5399971     1.5220328


optimized geometry written to: xtbopt.xyz


           -------------------------------------------------
          | TOTAL ENERGY            -3716.263681790022 Eh   |
          | GRADIENT NORM               0.000847682370 Eh/α |
          | HOMO-LUMO GAP              11.157630578801 eV   |
           -------------------------------------------------

------------------------------------------------------------------------
 * finished run on 2024/06/25 at 11:48:01.141     
------------------------------------------------------------------------
 total:
 * wall-time:     4 d, 13 h, 13 min, 53.755 sec
 *  cpu-time:    24 d,  3 h, 53 min, 18.332 sec
 * ratio c/w:     5.309 speedup
 SCF:
 * wall-time:     0 d,  0 h,  9 min,  1.489 sec
 *  cpu-time:     0 d,  0 h, 46 min, 47.684 sec
 * ratio c/w:     5.185 speedup
 ANC optimizer:
 * wall-time:     4 d, 13 h,  3 min, 23.914 sec
 *  cpu-time:    24 d,  3 h,  4 min, 45.328 sec
 * ratio c/w:     5.310 speedup

