3536
 energy: -3716.263681790022 gnorm: 0.000847682370 xtb: 6.6.1 (8d0f1dd)
C           57.22595092450803       47.38940179441911       59.90165180713066
C           56.83813910829519       48.83192169916563       60.21058829929626
C           58.09645795767878       49.68765578892918       60.34851631724335
C           56.00053324124663       48.94108850566570       61.49000675522749
C           54.68758553539806       48.14349140179447       61.51631023118116
C           53.87349171842794       48.34969802863134       60.24281846945963
C           53.86982202864151       48.58848899558657       62.73685343586200
C           52.74247647695211       47.63228889770399       63.15387393470256
C           51.65967590720925       48.41107582412139       63.89884613732845
C           53.28574443435004       46.49852174721643       64.03247121891407
C           52.36485731624722       45.27332109723340       64.12410834940140
C           52.68717512514561       44.47842980173922       65.38906637432719
C           52.51834208610718       44.39080341147477       62.87959453741028
C           51.33038525077995       43.45624840547990       62.60529759771154
C           51.80573520673275       42.25282482542518       61.79281655639451
C           50.20679858507433       44.21748493831448       61.88945046757163
C           48.90932750372284       43.41127999171356       61.69897416220974
C           48.79983593628601       42.88297315610992       60.26784843875134
C           47.65746712639932       44.24866383665880       62.00006690609668
C           47.40522169967787       44.59409800209951       63.47490437678546
C           47.11073840370136       43.34027689903305       64.29429996765687
C           46.23284696503439       45.58457373261541       63.53458081173521
C           45.85300938444108       46.13702694303515       64.91613863919711
C           44.58066283690317       46.97633540348878       64.78972589349770
C           46.96827237166308       46.89517466857012       65.66209525850773
C           47.21408154442263       48.36753851922456       65.31073008324705
C           47.68373728257144       48.55297301242227       63.86947801944314
C           48.27766608071648       48.97571801684718       66.23790503156077
C           47.97223413305208       48.99959680766444       67.74017702545770
C           46.58901347837992       49.58001124149437       68.02971208761120
C           49.01684920812810       49.84449651741569       68.48567938215629
C           50.48268620857916       49.43527516706059       68.30104899921723
C           50.72934837334069       48.01602816376219       68.80419065456131
C           51.38663591628045       50.43795221354550       69.03294057528855
C           52.86085904433253       50.42295254040552       68.60100320294488
C           53.69513836580660       51.17937037433499       69.63082931356671
C           53.01095739670581       51.04044719297503       67.20693387097000
C           54.41896096330353       51.06226424723001       66.58838152090230
C           54.28741174846399       51.61877694091574       65.17081552743061
C           55.04837321809344       49.66441995229079       66.59912272404296
C           56.43086318542571       49.50489427200073       65.94440562845442
C           56.73584749086647       48.00647581575033       65.86993387930684
C           57.52059966743091       50.24546479496070       66.73761876920204
C           58.64987037839683       50.92003228083119       65.93601473719534
C           58.12029282252306       52.04859881056172       65.05485866463934
C           59.46424516714196       49.90650200855800       65.12727025285008
C           60.66971906046361       50.45504883889574       64.34605273410357
C           61.35163667339689       49.28072910609901       63.64479040347221
C           61.64830291718749       51.19834841210168       65.26076792370255
C           62.94627130199418       51.69539692391643       64.60373324650492
C           63.76954235537102       52.43142081915077       65.66182440673744
C           62.63628880288860       52.58537292148809       63.39197204177551
C           63.81686556906574       53.33799790875946       62.75731748328724
C           63.28023411461472       54.21905819399885       61.63058685376168
C           64.86937944748591       52.35793216485018       62.23080127554395
C           66.18245895650213       52.96050352468979       61.70691996449960
C           67.02711960487122       51.82503575790876       61.12719921136533
C           66.91656632088865       53.71259943965892       62.82746639883916
C           68.37602334664450       54.11125259154589       62.55712406769910
C           68.93451583815077       54.80962251837468       63.79731343587486
C           68.49323557650079       55.01211782334691       61.32445075770742
C           69.91880618623404       55.35520619847180       60.85977287419539
C           69.81495093887762       56.20799066741029       59.59553788911288
C           70.72821132966703       54.07254940696627       60.61966924925689
C           72.03458419814670       54.20163215592923       59.82336232755137
C           72.64065888841772       52.80456481945501       59.67732930452288
C           73.02152151961079       55.16620901913291       60.48956152009312
C           74.24244057144105       55.54987718367573       59.63891491463434
C           75.25522704645780       56.27260752563630       60.52829257819024
C           73.85376162610238       56.43831565379660       58.44868937945441
C           74.94749905437894       56.56936161213151       57.37096857481557
C           75.11903150451100       58.03415004104144       56.96254643846367
C           74.63952178171687       55.74005630346831       56.11529337606117
C           74.55827862993630       54.22303942507436       56.31797582672376
C           75.92806242397428       53.64388629379923       56.67428155947773
C           74.04789439534549       53.52181475165675       55.04905216446137
C           72.57638632892402       53.75587197878721       54.68924129638139
C           71.64268534755628       53.15808856817211       55.74136810241345
C           72.23435428765298       53.13317840361949       53.32724925793533
C           73.01142624025793       53.65753259546528       52.11295411863042
C           72.95959645079569       55.18242101071579       52.02985128077064
C           72.43844949663524       53.07865117825549       50.81009086055982
C           72.58852144394235       51.56404482234507       50.60405188461687
C           74.05438402128861       51.17780876384781       50.42251094083175
C           71.74712246480054       51.16471663024358       49.38322763206912
C           71.72197318199487       49.67687989804747       49.00674564192384
C           71.01489012946816       49.53149546855249       47.65918123184987
C           71.03280714714415       48.83186408365653       50.08344097038113
C           71.18803599523595       47.32678705642023       49.87078587384103
C           70.61822798657242       46.52977754392055       51.03837712387727
H           57.80064525950645       46.97608643503491       60.72666102708030
H           56.34979564875108       46.76613793759137       59.74554277096636
H           57.83731786586982       47.34427386179861       59.00239829524724
H           69.55388641620465       46.72576593162211       51.14979434444628
H           70.75238317609522       45.46201165709924       50.87846038581488
H           71.11379951973016       46.80137211676210       51.96816346444476
H           71.45890114099178       49.07817071503967       51.05771958064712
H           69.97130551061547       49.08632116479452       50.11338846389293
H           70.71697933556848       51.48729316789343       49.55261400183529
H           72.12345667090371       51.72307864382751       48.52224107976853
H           72.20119848624638       51.04738981047868       51.48636755347995
H           74.45610983506859       51.62651328171268       49.51576124271170
H           74.65105242185815       51.51591399426836       51.26590837881096
H           74.16735933804674       50.09902256466503       50.35247963133019
H           71.37662745048506       53.33437799436986       50.76499697026993
H           72.92515205586899       53.57906098924828       49.96837276879025
H           72.39096374813219       52.05469878403700       53.40433862809510
H           71.16965997406638       53.29856206258697       53.14295442113168
H           72.75026315724720       49.31932584456298       48.88867643547257
H           69.98180506782494       49.86057165830952       47.73928279843017
H           71.50691862013340       50.13745047617721       46.90171716602622
H           71.02403999165466       48.49991674773624       47.31783637749106
H           74.06012222314453       53.35781047648135       52.19723144819672
H           73.44971589986305       55.52778597833555       51.12118857320985
H           71.92579221693269       55.52036466658109       52.01195509838017
H           73.46319229335215       55.64378914329980       52.87484704075243
H           72.37809296884055       54.82859009687477       54.63766514542716
H           70.60538735964090       53.28579747089511       55.44010880271520
H           71.83379780113931       52.09384464930287       55.86447126913637
H           71.77482068944961       53.64234212253744       56.70415702472449
H           74.67697407956064       53.84740027140575       54.21818751152099
H           74.19732096825275       52.44469078625767       55.16685348538979
H           73.87114340088419       54.01102593118297       57.13873714508258
H           76.63790685341908       53.82470350505742       55.86879894030039
H           76.32542766424275       54.08977605750445       57.58249588455272
H           75.85838123352319       52.56897925907109       56.83133649206569
H           73.69206577517521       56.09661130984638       55.70610209223257
H           75.41222823518967       55.94483113486019       55.36818104067594
H           75.90167120635738       56.23132606830975       57.78496145373315
H           75.38197388031314       58.64527086397192       57.82337064418552
H           75.90682997039622       58.13842905800216       56.21891234012625
H           74.19586224582582       58.42060756855079       56.53448529475892
H           72.94941923924964       56.05058148861362       57.97933403558058
H           73.60916291640980       57.42959381397245       58.83862523699061
H           74.71351799227030       54.63824061633268       59.26284812197522
H           74.80099396065980       57.15287061811026       60.98008397607754
H           75.60075280225270       55.61914882556024       61.32685948868835
H           76.12237257862245       56.59460151707289       59.95651135694577
H           72.50289563006709       56.08654173528781       60.76290662743592
H           73.37457967389281       54.70616451791561       61.41663004065147
H           71.79032623429798       54.57117912124398       58.82405874109354
H           73.55570848636107       52.82415417478892       59.09206247281480
H           72.87313986817129       52.38689560388168       60.65539802284456
H           71.94026903296704       52.13715370333426       59.17877424516620
H           70.96938937525299       53.62590179611950       61.58692857746015
H           70.08963834277027       53.36590138022420       60.08126498052036
H           70.40980974336526       55.95109547838688       61.63594165022087
H           69.11686848104563       57.02821883522139       59.75417912225107
H           70.77444698356101       56.63472021425880       59.31735576889503
H           69.45272805126935       55.60576537953067       58.76515617689401
H           67.98769665018607       54.52586042208626       60.48848883647717
H           67.96531547687887       55.94604278274198       61.53589113748601
H           68.95370408918346       53.19793936393378       62.39598519739310
H           68.81162641694175       54.18341555418539       64.67909073504470
H           69.99412252306030       55.02397242186228       63.68269920165201
H           68.41286830438821       55.74889683196766       63.97262947765243
H           66.35648768291084       54.61944252027921       63.06369482305862
H           66.91113055722840       53.08033150696475       63.72083901064572
H           65.95148722911624       53.66041557520482       60.89871381808322
H           67.91280675502051       52.20131436670027       60.62317009543836
H           67.34235245827354       51.14302147983929       61.91469233812543
H           66.44776331017344       51.25999068456444       60.40014075444159
H           65.12887047615318       51.65882965837785       63.02782065352878
H           64.41201421940681       51.77780952397529       61.42462218154529
H           64.26868852513962       53.98559716558256       63.51289117959789
H           64.07071954691845       54.82133080341077       61.19403672006643
H           62.84519060937856       53.60312446060313       60.84650865476240
H           62.51342079165514       54.89296846218996       62.00573816178587
H           62.18114722666373       51.96717151185407       62.61545939932495
H           61.88894833446358       53.32349023120310       63.69465205772941
H           63.52082301636735       50.82371514519138       64.27626583044008
H           63.89371213204265       51.80735314500951       66.54567474392867
H           64.75983894278765       52.68383293009474       65.29169794559837
H           63.27159305869798       53.34907972716686       65.96753540369555
H           61.14163286114534       52.06676192785827       65.68750209931228
H           61.91532770900910       50.53383994641626       66.08824809303145
H           60.29912698390447       51.14541558518476       63.58337318760000
H           60.61970211683996       48.69601406605534       63.09228840190549
H           62.10906981069938       49.61611402277579       62.94234039397016
H           61.82615603277121       48.62977002975587       64.37650160571413
H           59.82528711328843       49.13243434625748       65.80941346652001
H           58.79975388402193       49.43209833670767       64.40217247873169
H           59.31316118252070       51.36583203559909       66.68858494866028
H           58.93607290253221       52.67979716905158       64.71378995501901
H           57.61327872661155       51.65438197084608       64.17755296261925
H           57.42364655849641       52.67199874300452       65.61123122740365
H           57.04608257187931       51.03009073378162       67.33049143429672
H           57.97207553569849       49.54264689423921       67.44355450273203
H           56.39040323232176       49.89671496384696       64.92588555025841
H           56.71192025249547       47.56716249487668       66.86664979198449
H           55.99570827416365       47.49369290915222       65.25785962364230
H           57.71661659786111       47.82202756678397       65.44237214828375
H           55.14219712908813       49.32941506697593       67.63469341769634
H           54.35473761268246       48.98438681032348       66.09646148487380
H           55.04471640335325       51.74824752300967       67.16848005435547
H           55.25875994494474       51.80043827961588       64.72258780366910
H           53.74016538326985       50.92333855089321       64.53918161516773
H           53.74048858085590       52.55953132890231       65.19310172067547
H           52.35825209898105       50.50083009393360       66.51701462788276
H           52.64654735575860       52.07088185799506       67.25304985427827
H           53.20219657369899       49.38509485069343       68.57662211698658
H           54.75563819034980       51.12325308806069       69.40135103690939
H           53.40347001475318       52.22612674157727       69.65791193928661
H           53.54286894123168       50.75875723428359       70.62253197557544
H           51.00086656104097       51.44894740437032       68.87834000152257
H           51.32899595541287       50.23075427503164       70.10521251693413
H           50.71887299072942       49.47129663241100       67.23504311965861
H           50.44218162662735       47.92730638760035       69.85070752200741
H           50.15737559679982       47.29184176714492       68.22944185218618
H           51.78145935793642       47.75882158619843       68.71261057423274
H           48.90530888298188       50.88278642310059       68.15839136823425
H           48.78603676906955       49.81526518348640       69.55488058113292
H           48.00525546353551       47.97986929415480       68.13561673099360
H           45.80249125227681       48.94790681831924       67.62795418825739
H           46.43146727754499       49.66552581521248       69.10335617684535
H           46.49471101122018       50.57125573033183       67.59104658720025
H           49.20888189918470       48.42850676285442       66.07851890548937
H           48.44521520482520       50.00745044505337       65.91681630371716
H           46.28508937420335       48.92627738354880       65.44199211448610
H           48.09459608633647       49.55070235902318       63.73034176650147
H           48.46027668550180       47.83390426412451       63.61925033232337
H           46.86156966149463       48.43232658569129       63.17266017100680
H           46.71104973653497       46.85750683073605       66.72306028533808
H           47.90710986090794       46.35003902094972       65.54091431833963
H           45.59881678222725       45.27420147055751       65.54443132332963
H           43.75482179789535       46.35376592512970       64.44983872841298
H           44.30505519500791       47.40605329284123       65.75003731295230
H           44.70961990540127       47.78375859023978       64.07346396398322
H           46.44800445905309       46.41196634516682       62.86038618033271
H           45.35017483183591       45.07223760823063       63.13762129769511
H           48.30312823978043       45.06839302098655       63.88282009723586
H           47.93372290855518       42.63229136827140       64.23425259917052
H           46.96792867274475       43.58774114032271       65.34220424227090
H           46.21019528371075       42.84945935768966       63.92824148354226
H           47.72710465726595       45.17751721562929       61.42715795798065
H           46.78246200081090       43.70686226723422       61.62978786497709
H           48.92578594709868       42.55095618900273       62.37499892136647
H           49.68658849477074       42.32565189193694       59.98042077905467
H           47.93783634252362       42.22494868588724       60.16627838349375
H           48.67787683220845       43.71330718689524       59.57513970298899
H           49.98881207682170       45.11639303861988       62.46814256719581
H           50.57265637005501       44.54684612190061       60.91388353191140
H           50.94045092821145       43.08796522536960       63.56163995203080
H           52.61225340130471       41.73951530693046       62.31393151709979
H           51.00216440726590       41.53702701753243       61.64015834734939
H           52.17694975528074       42.57437142660071       60.82166633561818
H           52.66461599289342       45.01986584161732       61.99903407150590
H           53.42387118195636       43.79225941809580       63.00241126560053
H           51.32701014209184       45.61364792474465       64.19423996499337
H           52.08431886401906       43.57504243642436       65.44848905644047
H           53.73623114042248       44.18808469526928       65.39673358477096
H           52.49021608318899       45.07459317915996       66.27799748765612
H           54.25484178445908       46.16929964253403       63.64861843377886
H           53.45190455784704       46.89484890020269       65.03769660475930
H           52.28900287236906       47.19647842148281       62.25798213920060
H           51.20550256286720       49.15725222518498       63.25026418359447
H           50.87369162245176       47.74848131141036       64.25279681980201
H           52.08584619334219       48.91907406090158       64.76195646287044
H           54.54058371390044       48.71993575593734       63.58811449548921
H           53.44045459572762       49.56690223387251       62.50726510387221
H           54.92242522436940       47.07771263852316       61.61384807910069
H           52.90582943124500       47.86125933011706       60.32768962129377
H           53.70913276357187       49.41167141391706       60.07006417290143
H           54.37864887552860       47.93251785042332       59.37655692372816
H           56.61510729172942       48.61993360192215       62.33594809962931
H           55.75929478629593       49.99662502424830       61.64655349281298
H           56.25540750545579       49.22690740831423       59.37164777370656
H           57.83931014464930       50.71989084410927       60.57511974387285
H           58.73159692423724       49.31177529501793       61.14829959196330
H           58.66890149464012       49.67931789504806       59.42402364633576
H           70.67934006562569       47.02214292045586       48.95424112789220
H           72.24835741342815       47.08631771569850       49.75478141373243
C           48.12370618812713       59.49641140223971       36.55104223240875
C           48.64760271583893       58.06802669212960       36.69950031147734
C           49.91740120028796       57.89215123188306       35.87059555212582
C           47.54951602016820       57.08055895423796       36.28600895279144
C           47.90274012790006       55.58797161850072       36.36859143426322
C           46.73153316475410       54.77293622422751       35.81953706605440
C           48.23276596329937       55.18765789079731       37.80947825780625
C           48.62823901268443       53.72263104058099       38.04764094861322
C           48.91818348179292       53.54491009138274       39.53669817161833
C           49.83586627957071       53.33771852116094       37.18411981610075
C           50.48486437721291       51.97633488389548       37.47282663066844
C           51.65840195309103       51.78828495736877       36.51189208536200
C           49.47913028017641       50.82714685182921       37.35130495387082
C           50.03909630342667       49.45576724404426       37.77758358270261
C           50.18082837065610       48.52621999397410       36.57219513230520
C           49.15302881697239       48.79419859480083       38.84351252412269
C           49.34633703862072       49.35332818264646       40.25996620223123
C           50.63432310282661       48.81921014192805       40.88010436990573
C           48.14291626815042       48.99248045776027       41.14422110050997
C           47.01159599110787       50.03431182023102       41.10722730708948
C           47.28652275776223       51.12778173113576       42.13668150083058
C           45.67797518324458       49.32580933256921       41.36684416517576
C           44.41921104318975       50.19541686909361       41.49522936222559
C           43.22774608698460       49.25241863309775       41.67452940292986
C           44.24588547950506       51.11891463703467       40.28250714487159
C           42.91137438385488       51.87304232801710       40.20534027640661
C           42.84412979307113       52.67886479320290       38.90738273236135
C           42.62363353754732       52.74805740104284       41.43542197274736
C           43.51486561602673       53.99524727566223       41.62131270773190
C           44.16298335183417       53.98961435284248       43.00424854185088
C           42.65971216219239       55.25308877305338       41.40953577027596
C           43.35409995449240       56.62028689437676       41.48571509892007
C           42.27063070525340       57.69796471515393       41.41377524216782
C           44.38536035313022       56.79483789766248       40.36508942168908
C           45.15342064074802       58.13067782472333       40.41948263806344
C           44.82271390999276       58.99457165855367       39.20225507165839
C           46.67055575946235       57.92379964863557       40.51099796262270
C           47.15145811540790       57.34884834112756       41.85139986238706
C           47.05061891994432       58.39407961477003       42.95646860019695
C           48.59367135910070       56.85027368281571       41.68864003388861
C           49.29689967297566       56.31684990059608       42.94628380141950
C           50.72133281838043       55.91438218464463       42.56584293396707
C           48.56026521522769       55.12355085697239       43.56465868284600
C           49.00971893366240       54.76444493315419       44.99063736910547
C           48.65144018607892       53.30752599631851       45.27782663280916
C           48.35452683499237       55.70330985812218       46.01104392376291
C           48.96943405430771       55.67497171285991       47.41682583252173
C           47.99138584228746       56.30132210080792       48.40961644957076
C           50.31655977133887       56.40722199132288       47.47782124481744
C           51.22072161682465       55.89789879834805       48.60956685615945
C           52.24143583134993       56.96437270584038       48.99996126069939
C           51.93100664204958       54.60423323581225       48.19042061182857
C           52.37920071516442       53.71927532567825       49.36292961708747
C           53.52002800091585       52.81003876443615       48.91216116672786
C           51.19669829994887       52.90519530832293       49.90324413072932
C           51.50709579751666       52.10846926543466       51.18421126327171
C           51.59562604640180       50.61226812792946       50.88257384955563
C           50.45789747532591       52.34018323985987       52.28110477709570
C           50.48857499542041       53.72770529073515       52.93282451102289
C           51.75429398792966       53.90637582605061       53.77068077763039
C           49.26753949420467       53.94802299342135       53.84045607447326
C           47.89514337184821       53.93503779538697       53.15655825640394
C           47.84610516120621       54.91862618884785       51.98722627174000
C           46.76851636890063       54.29181731743101       54.13946310487243
C           46.64435897252846       53.42919436491398       55.40159737888042
C           46.52564124243707       51.94789037656150       55.05964775320092
C           45.41905331326365       53.86714958877516       56.22034909504769
C           45.66505228473828       55.12313122577425       57.06359121369899
C           46.37885496306087       54.74934243663833       58.36102379684561
C           44.36232028289114       55.86460095253347       57.39026821160364
C           43.74107844588830       56.63126269113651       56.21637348744046
C           44.58296853795046       57.85492884635847       55.86216284228384
C           42.31109930307157       57.08203512014619       56.55446177258916
C           41.26656901009357       55.96253449986855       56.52287076036513
C           40.94822888551661       55.53129079858592       55.09301887947893
C           39.99245657879089       56.32876151419292       57.30197958644919
C           39.15835666569954       57.50426463952286       56.76260629767876
C           39.45158833966134       58.79207949963308       57.53203191640496
C           37.65830977090154       57.18432531894333       56.85554473977382
C           37.18321228128340       56.14291330791119       55.83051022675205
C           36.93305242472290       56.80701733887284       54.47908252728858
C           35.93119846165148       55.42484961142309       56.34943955773887
C           35.44887022558897       54.23314875463620       55.50845937409365
C           34.05722684496356       53.81823182319032       55.98636914876718
C           36.43520982275128       53.06353711059031       55.61095033647230
C           36.22009585056249       51.90788577692716       54.62282940504101
C           37.09843274127535       50.72836024563040       55.04085500054411
C           36.53406038341006       52.34097189864875       53.18692647890581
C           36.20472055596323       51.28272706140566       52.13525575681834
C           36.32849245033242       51.84588071028355       50.72485693154035
H           48.87252474772512       60.21429817831001       36.87859799263202
H           47.87977431572475       59.70669979026023       35.51147236069846
H           47.22703542026768       59.64079229325943       37.14924251060154
H           36.11611084631704       51.07874740330447       49.98290050412544
H           35.62645686919657       52.66536204985690       50.58044962735800
H           37.33535310409464       52.22049631875133       50.55503793444448
H           35.95522590137281       53.23681906019149       52.95273786012919
H           37.59191300725146       52.60382437439981       53.11393329381615
H           37.45114734822826       53.43361815067562       55.46452271300807
H           36.37815069440382       52.66877294364433       56.62856677394423
H           35.36472245313868       54.55295114906443       54.46699675678185
H           33.66736705800280       52.99407075549375       55.39448312419454
H           34.09098547746662       53.50690180788785       57.02875841041734
H           33.36087467529918       54.65018986124548       55.90129612990081
H           36.12557177750090       55.06260258848511       57.36316366937194
H           35.12086237120037       56.15633815724752       56.41649916090675
H           37.44844377332345       56.82671571576662       57.86738356889838
H           37.08129163270353       58.10181575133953       56.71499726252210
H           35.17420139851599       51.58530414677858       54.66706981887848
H           36.90208815227559       50.45612254662450       56.07603473270071
H           36.90424020756713       49.85523995540509       54.42377645918135