      -----------------------------------------------------------      
     |                   =====================                   |     
     |                           x T B                           |     
     |                   =====================                   |     
     |                         S. Grimme                         |     
     |          Mulliken Center for Theoretical Chemistry        |     
     |                    University of Bonn                     |     
      -----------------------------------------------------------      

   * xtb version 6.6.1 (8d0f1dd) compiled by 'stahn@M-Bot' on 2023-08-01

   xtb is free software: you can redistribute it and/or modify it under
   the terms of the GNU Lesser General Public License as published by
   the Free Software Foundation, either version 3 of the License, or
   (at your option) any later version.
   
   xtb is distributed in the hope that it will be useful,
   but WITHOUT ANY WARRANTY; without even the implied warranty of
   MERCHANTABILITY or FITNESS FOR A PARTICULAR PURPOSE.  See the
   GNU Lesser General Public License for more details.
   
   Cite this work as:
   * C. Bannwarth, E. Caldeweyher, S. Ehlert, A. Hansen, P. Pracht,
     J. Seibert, S. Spicher, S. Grimme, WIREs Comput. Mol. Sci., 2020, 11,
     e01493. DOI: 10.1002/wcms.1493
   
   for GFN2-xTB:
   * C. Bannwarth, S. Ehlert and S. Grimme., J. Chem. Theory Comput., 2019,
     15, 1652-1671. DOI: 10.1021/acs.jctc.8b01176
   for GFN1-xTB:
   * S. Grimme, C. Bannwarth, P. Shushkov, J. Chem. Theory Comput., 2017,
     13, 1989-2009. DOI: 10.1021/acs.jctc.7b00118
   for GFN0-xTB:
   * P. Pracht, E. Caldeweyher, S. Ehlert, S. Grimme, ChemRxiv, 2019, preprint.
     DOI: 10.26434/chemrxiv.8326202.v1
   for GFN-FF:
   * S. Spicher and S. Grimme, Angew. Chem. Int. Ed., 2020, 59, 15665-15673.
     DOI: 10.1002/anie.202004239
   
   for ALPB and GBSA implicit solvation:
   * S. Ehlert, M. Stahn, S. Spicher, S. Grimme, J. Chem. Theory Comput.,
     2021, 17, 4250-4261. DOI: 10.1021/acs.jctc.1c00471
   
   for DFT-D4:
   * E. Caldeweyher, C. Bannwarth and S. Grimme, J. Chem. Phys., 2017,
     147, 034112. DOI: 10.1063/1.4993215
   * E. Caldeweyher, S. Ehlert, A. Hansen, H. Neugebauer, S. Spicher,
     C. Bannwarth and S. Grimme, J. Chem. Phys., 2019, 150, 154122.
     DOI: 10.1063/1.5090222
   * E. Caldeweyher, J.-M. Mewes, S. Ehlert and S. Grimme, Phys. Chem. Chem. Phys.
     2020, 22, 8499-8512. DOI: 10.1039/D0CP00502A
   
   for sTDA-xTB:
   * S. Grimme and C. Bannwarth, J. Chem. Phys., 2016, 145, 054103.
     DOI: 10.1063/1.4959605
   
   in the mass-spec context:
   * V. Asgeirsson, C. Bauer and S. Grimme, Chem. Sci., 2017, 8, 4879.
     DOI: 10.1039/c7sc00601b
   * J. Koopman and S. Grimme, ACS Omega 2019, 4, 12, 15120-15133.
     DOI: 10.1021/acsomega.9b02011
   
   for metadynamics refer to:
   * S. Grimme, J. Chem. Theory Comput., 2019, 155, 2847-2862
     DOI: 10.1021/acs.jctc.9b00143
   
   for SPH calculations refer to:
   * S. Spicher and S. Grimme, J. Chem. Theory Comput., 2021, 17, 1701-1714
     DOI: 10.1021/acs.jctc.0c01306
   
   with help from (in alphabetical order)
   P. Atkinson, C. Bannwarth, F. Bohle, G. Brandenburg, E. Caldeweyher
   M. Checinski, S. Dohm, S. Ehlert, S. Ehrlich, I. Gerasimov, C. Hölzer
   A. Katbashev, J. Koopman, C. Lavigne, S. Lehtola, F. März, M. Müller,
   F. Musil, H. Neugebauer, J. Pisarek, C. Plett, P. Pracht, F. Pultar,
   J. Seibert, P. Shushkov, S. Spicher, M. Stahn, M. Steiner, T. Strunk,
   J. Stückrath, T. Rose, and J. Unsleber
   
 * started run on 2024/06/20 at 22:23:28.350     

           -------------------------------------------------
          |                Calculation Setup                |
           -------------------------------------------------

          program call               : /home/abt-grimme/AK-bin/xtb input.xyz --input input.inp --opt --gbsa water
          hostname                   : boar025.thch.uni-bonn.de
          coordinate file            : input.xyz
          omp threads                :                     8

   ID    Z sym.   atoms
    1    6 C      1-90, 273-362, 545-634, 817-906, 1089-1178, 1361-1450,
                  1633-1722, 1905-1994, 2177-2266, 2449-2538, 2721-2810,
                  2993-3082, 3265-3354
    2    1 H      91-272, 363-544, 635-816, 907-1088, 1179-1360, 1451-1632,
                  1723-1904, 1995-2176, 2267-2448, 2539-2720, 2811-2992,
                  3083-3264, 3355-3536

molecular fragmentation (1/2 indicates fragments):
111111111111111111111111111111111111111111111111111111111111111111111111
111111111111111111111111111111111111111111111111111111111111111111111111
111111111111111111111111111111111111111111111111111111111111111111111111
111111111111111111111111111111111111111111111111111111112222222222222222
222222222222222222222222222222222222222222222222222222222222222222222222
222222222222222222222222222222222222222222222222222222222222222222222222
222222222222222222222222222222222222222222222222222222222222222222222222
222222222222222222222222222222222222222222222222222222222222222222222222
222222222222222222222222222222222222222222222222222222222222222222222222
222222222222222222222222222222222222222222222222222222222222222222222222
222222222222222222222222222222222222222222222222222222222222222222222222
222222222222222222222222222222222222222222222222222222222222222222222222
222222222222222222222222222222222222222222222222222222222222222222222222
222222222222222222222222222222222222222222222222222222222222222222222222
222222222222222222222222222222222222222222222222222222222222222222222222
222222222222222222222222222222222222222222222222222222222222222222222222
222222222222222222222222222222222222222222222222222222222222222222222222
222222222222222222222222222222222222222222222222222222222222222222222222
222222222222222222222222222222222222222222222222222222222222222222222222
222222222222222222222222222222222222222222222222222222222222222222222222
222222222222222222222222222222222222222222222222222222222222222222222222
222222222222222222222222222222222222222222222222222222222222222222222222
222222222222222222222222222222222222222222222222222222222222222222222222
222222222222222222222222222222222222222222222222222222222222222222222222
222222222222222222222222222222222222222222222222222222222222222222222222
222222222222222222222222222222222222222222222222222222222222222222222222
222222222222222222222222222222222222222222222222222222222222222222222222
222222222222222222222222222222222222222222222222222222222222222222222222
222222222222222222222222222222222222222222222222222222222222222222222222
222222222222222222222222222222222222222222222222222222222222222222222222
222222222222222222222222222222222222222222222222222222222222222222222222
222222222222222222222222222222222222222222222222222222222222222222222222
222222222222222222222222222222222222222222222222222222222222222222222222
222222222222222222222222222222222222222222222222222222222222222222222222
222222222222222222222222222222222222222222222222222222222222222222222222
222222222222222222222222222222222222222222222222222222222222222222222222
222222222222222222222222222222222222222222222222222222222222222222222222
222222222222222222222222222222222222222222222222222222222222222222222222
222222222222222222222222222222222222222222222222222222222222222222222222
222222222222222222222222222222222222222222222222222222222222222222222222
222222222222222222222222222222222222222222222222222222222222222222222222
222222222222222222222222222222222222222222222222222222222222222222222222
222222222222222222222222222222222222222222222222222222222222222222222222
222222222222222222222222222222222222222222222222222222222222222222222222
222222222222222222222222222222222222222222222222222222222222222222222222
222222222222222222222222222222222222222222222222222222222222222222222222
222222222222222222222222222222222222222222222222222222222222222222222222
222222222222222222222222222222222222222222222222222222222222222222222222
222222222222222222222222222222222222222222222222222222222222222222222222
22222222
# atoms in fragment 1/2:   272  3264
 fragment masses (1/2) :     1264.41    15172.94
CMA distance (Bohr)    :  27.477
constraining FC (au)   :  0.0500

           -------------------------------------------------
          |                 G F N 2 - x T B                 |
           -------------------------------------------------

        Reference                      10.1021/acs.jctc.8b01176
      * Hamiltonian:
        H0-scaling (s, p, d)           1.850000    2.230000    2.230000
        zeta-weighting                 0.500000
      * Dispersion:
        s8                             2.700000
        a1                             0.520000
        a2                             5.000000
        s9                             5.000000
      * Repulsion:
        kExp                           1.500000    1.000000
        rExp                           1.000000
      * Coulomb:
        alpha                          2.000000
        third order                    shell-resolved
        anisotropic                    true
        a3                             3.000000
        a5                             4.000000
        cn-shift                       1.200000
        cn-exp                         4.000000
        max-rad                        5.000000

      * Solvation model:               GBSA
        Solvent                        water
        Parameter file                 internal GFN2-xTB/GBSA
        Dielectric constant                8.0200E+01
        Reference state                gsolv [1 M gas/solution]
        Free energy shift                  1.8574E-03 Eh       1.1656E+00 kcal/mol
        Temperature                        2.9815E+02 K
        Density                            1.0000E+00 kg/L
        Solvent mass                       1.8000E+01 g/mol
        Interaction kernel             Still
        Born radius scaling (c1)           1.5524E+00
        Born radii integrator          GBOBC
        Born offset                        2.4628E-02 a0       4.6540E-02 AA
        H-bond correction              true
        Ion screening                  false
        Surface tension                    1.0000E-05 Eh       1.5569E+01 dyn/cm
        Grid points                               230 per atom
q/qsh data taken from xtbrestart
CAMM data taken from xtbrestart

          ...................................................
          :                      SETUP                      :
          :.................................................:
          :  # basis functions                7046          :
          :  # atomic orbitals                7046          :
          :  # shells                         4706          :
          :  # electrons                      7046          :
          :  max. iterations                   250          :
          :  Hamiltonian                  GFN2-xTB          :
          :  restarted?                       true          :
          :  GBSA solvation                   true          :
          :  PC potential                    false          :
          :  electronic temp.          300.0000000     K    :
          :  accuracy                    1.0000000          :
          :  -> integral cutoff          0.2500000E+02      :
          :  -> integral neglect         0.1000000E-07      :
          :  -> SCF convergence          0.1000000E-05 Eh   :
          :  -> wf. convergence          0.1000000E-03 e    :
          :  Broyden damping             0.4000000          :
          ...................................................

 iter      E             dE          RMSdq      gap      omega  full diag
   1  -3764.1997080 -0.376420E+04  0.558E-05   10.48       0.0  T
   2  -3764.1997080 -0.251885E-08  0.436E-05   10.48      38.5  T
   3  -3764.1997080 -0.273712E-08  0.281E-05   10.48      59.8  T

   *** convergence criteria satisfied after 3 iterations ***

         #    Occupation            Energy/Eh            Energy/eV
      -------------------------------------------------------------
         1        2.0000           -0.6172536             -16.7963
       ...           ...                  ...                  ...
      3517        2.0000           -0.3763112             -10.2399
      3518        2.0000           -0.3760708             -10.2334
      3519        2.0000           -0.3756725             -10.2226
      3520        2.0000           -0.3751431             -10.2082
      3521        2.0000           -0.3742949             -10.1851
      3522        2.0000           -0.3730103             -10.1501
      3523        2.0000           -0.3726058             -10.1391 (HOMO)
      3524                          0.0125186               0.3406 (LUMO)
      3525                          0.0134219               0.3652
      3526                          0.0152098               0.4139
      3527                          0.0156917               0.4270
      3528                          0.0163318               0.4444
       ...                                ...                  ...
      7046                          0.3869403              10.5292
      -------------------------------------------------------------
                  HL-Gap            0.3851244 Eh           10.4798 eV
             Fermi-level           -0.1800436 Eh           -4.8992 eV

 SCC (total)                   0 d,  0 h,  8 min, 34.869 sec
 SCC setup                      ...        0 min,  1.967 sec (  0.382%)
 Dispersion                     ...        0 min,  4.106 sec (  0.798%)
 classical contributions        ...        0 min,  0.152 sec (  0.030%)
 integral evaluation            ...        0 min,  7.131 sec (  1.385%)
 iterations                     ...        3 min, 47.710 sec ( 44.227%)
 molecular gradient             ...        4 min, 22.810 sec ( 51.044%)
 printout                       ...        0 min, 10.993 sec (  2.135%)

         :::::::::::::::::::::::::::::::::::::::::::::::::::::
         ::                     SUMMARY                     ::
         :::::::::::::::::::::::::::::::::::::::::::::::::::::
         :: total energy           -3715.370532920368 Eh    ::
         :: total w/o Gsasa/hb     -3715.253897194401 Eh    ::
         :: gradient norm              0.663769354952 Eh/a0 ::
         :: HOMO-LUMO gap             10.479767317186 eV    ::
         ::.................................................::
         :: SCC energy             -3764.199707998489 Eh    ::
         :: -> isotropic ES            0.442011866156 Eh    ::
         :: -> anisotropic ES          1.498187692677 Eh    ::
         :: -> anisotropic XC          2.304670361028 Eh    ::
         :: -> dispersion             -4.658485084127 Eh    ::
         :: -> Gsolv                  -0.052932145172 Eh    ::
         ::    -> Gelec                0.063703580795 Eh    ::
         ::    -> Gsasa               -0.111548144655 Eh    ::
         ::    -> Ghb                 -0.006945024438 Eh    ::
         ::    -> Gshift               0.001857443127 Eh    ::
         :: repulsion energy          48.125961029984 Eh    ::
         :: add. restraining           0.000000000000 Eh    ::
         :: total charge              -0.000000000009 e     ::
         :::::::::::::::::::::::::::::::::::::::::::::::::::::

      ----------------------------------------------------------- 
     |              Fast Inertial Relaxation Engine              |
      ----------------------------------------------------------- 

          ...................................................
          :                      SETUP                      :
          :.................................................:
          :   energy convergence        0.5000000E-05 Eh    :
          :   grad. convergence         0.1000000E-02 Eh/a0 :
          :   optimization log               true           :
          :   writing optlog all                1     steps :
          :   Hessian reset                    20     steps :
          :   time step scaling                 5     steps :
          :   maximium step len.        1.0000000     a0    :
          :   initial time step         0.2500000     fs    :
          :   maximum time step         1.2500000     fs    :
          :   power reset thr           0.0000000     au    :
          :   alpha parameter           0.1000000           :
          :   BFGS update                   false           :
          :   preconditioning               false           :
          ...................................................

........................................................................
.............................. CYCLE    1 ..............................
........................................................................

 iter      E             dE          RMSdq      gap      omega  full diag
   1  -3764.4618127 -0.376446E+04  0.758E-03   10.50       0.0  T
   2  -3764.4618556 -0.429175E-04  0.411E-03   10.49       1.0  T
   3  -3764.4618562 -0.667656E-06  0.177E-03   10.49       1.0  T
   4  -3764.4618567 -0.491049E-06  0.433E-04   10.49       3.9  T
   5  -3764.4618570 -0.259638E-06  0.174E-04   10.49       9.7  T
     SCC iter.                  ...        6 min,  8.978 sec
     gradient                   ...        4 min, 22.400 sec
 * total energy  : -3715.4206344 Eh     change    :  -0.5010146E-01 Eh
   gradient norm :     0.6312458 Eh/a0  converged?    E=F G=F D=F
   time step     :     0.2500000 fs     power     :   0.2593520E-05
   step length   :     0.0777924 a0     speed     :   0.7526828E-02

........................................................................
.............................. CYCLE    2 ..............................
........................................................................

 iter      E             dE          RMSdq      gap      omega  full diag
   1  -3764.8485240 -0.376485E+04  0.111E-02   10.51       0.0  T
   2  -3764.8486165 -0.924824E-04  0.603E-03   10.51       1.0  T
   3  -3764.8486180 -0.148685E-05  0.260E-03   10.51       1.0  T
   4  -3764.8486190 -0.105980E-05  0.643E-04   10.51       2.6  T
   5  -3764.8486196 -0.565536E-06  0.266E-04   10.51       6.3  T
   6  -3764.8486196 -0.386244E-07  0.117E-04   10.51      14.4  T
     SCC iter.                  ...        7 min, 27.856 sec
     gradient                   ...        4 min, 22.192 sec
 * total energy  : -3715.4902161 Eh     change    :  -0.6958169E-01 Eh
   gradient norm :     0.5856265 Eh/a0  converged?    E=F G=F D=F
   time step     :     0.2500000 fs     power     :   0.3550760E-05
   step length   :     0.1146471 a0     speed     :   0.1109272E-01

........................................................................
.............................. CYCLE    3 ..............................
........................................................................

 iter      E             dE          RMSdq      gap      omega  full diag
   1  -3765.3500172 -0.376535E+04  0.144E-02   10.54       0.0  T
   2  -3765.3501688 -0.151601E-03  0.778E-03   10.53       1.0  T
   3  -3765.3501712 -0.247542E-05  0.332E-03   10.53       1.0  T
   4  -3765.3501730 -0.172108E-05  0.826E-04   10.53       2.0  T
   5  -3765.3501739 -0.931602E-06  0.345E-04   10.53       4.9  T
   6  -3765.3501740 -0.619320E-07  0.147E-04   10.53      11.5  T
     SCC iter.                  ...        7 min, 19.730 sec
     gradient                   ...        4 min, 21.600 sec
 * total energy  : -3715.5727896 Eh     change    :  -0.8257349E-01 Eh
   gradient norm :     0.5281058 Eh/a0  converged?    E=F G=F D=F
   time step     :     0.2500000 fs     power     :   0.4144390E-05
   step length   :     0.1488491 a0     speed     :   0.1440195E-01

........................................................................
.............................. CYCLE    4 ..............................
........................................................................

 iter      E             dE          RMSdq      gap      omega  full diag
   1  -3765.9536486 -0.376595E+04  0.172E-02   10.56       0.0  T
   2  -3765.9538600 -0.211376E-03  0.929E-03   10.56       1.0  T
   3  -3765.9538636 -0.357451E-05  0.391E-03   10.56       1.0  T
   4  -3765.9538659 -0.235557E-05  0.974E-04   10.55       1.7  T
   5  -3765.9538672 -0.128218E-05  0.418E-04   10.55       4.0  T
   6  -3765.9538673 -0.880382E-07  0.172E-04   10.55       9.8  T
   7  -3765.9538673 -0.400200E-07  0.111E-04   10.55      15.1  T
     SCC iter.                  ...        8 min, 36.314 sec
     gradient                   ...        4 min, 21.910 sec
 * total energy  : -3715.6609012 Eh     change    :  -0.8811168E-01 Eh
   gradient norm :     0.4622615 Eh/a0  converged?    E=F G=F D=F
   time step     :     0.2500000 fs     power     :   0.4334691E-05
   step length   :     0.1795665 a0     speed     :   0.1737402E-01

........................................................................
.............................. CYCLE    5 ..............................
........................................................................

 iter      E             dE          RMSdq      gap      omega  full diag
   1  -3766.6440242 -0.376664E+04  0.195E-02   10.57       0.0  T
   2  -3766.6442858 -0.261668E-03  0.105E-02   10.57       1.0  T
   3  -3766.6442905 -0.462742E-05  0.434E-03   10.57       1.0  T
   4  -3766.6442932 -0.277729E-05  0.107E-03   10.57       1.6  T
   5  -3766.6442948 -0.151575E-05  0.469E-04   10.57       3.6  T
   6  -3766.6442949 -0.926366E-07  0.178E-04   10.57       9.4  T
   7  -3766.6442949 -0.404611E-07  0.114E-04   10.57      14.8  T
     SCC iter.                  ...        8 min, 40.095 sec
     gradient                   ...        4 min, 22.301 sec
 * total energy  : -3715.7470700 Eh     change    :  -0.8616877E-01 Eh
   gradient norm :     0.3933657 Eh/a0  converged?    E=F G=F D=F
   time step     :     0.2500000 fs     power     :   0.4134945E-05
   step length   :     0.2060849 a0     speed     :   0.1993982E-01

........................................................................
.............................. CYCLE    6 ..............................
........................................................................

 iter      E             dE          RMSdq      gap      omega  full diag
   1  -3767.4863062 -0.376749E+04  0.236E-02   10.59       0.0  T
   2  -3767.4866659 -0.359717E-03  0.126E-02   10.59       1.0  T
   3  -3767.4866729 -0.706834E-05  0.508E-03   10.59       1.0  T
   4  -3767.4866766 -0.362478E-05  0.124E-03   10.58       1.4  T
   5  -3767.4866785 -0.192458E-05  0.575E-04   10.58       2.9  T
   6  -3767.4866786 -0.126800E-06  0.202E-04   10.58       8.3  T
   7  -3767.4866787 -0.505725E-07  0.131E-04   10.58      12.9  T
     SCC iter.                  ...        8 min, 35.262 sec
     gradient                   ...        4 min, 22.992 sec
 * total energy  : -3715.8323167 Eh     change    :  -0.8524673E-01 Eh
   gradient norm :     0.3223144 Eh/a0  converged?    E=F G=F D=F
   time step     :     0.2750000 fs     power     :   0.3537690E-05
   step length   :     0.2529987 a0     speed     :   0.2225362E-01

........................................................................
.............................. CYCLE    7 ..............................
........................................................................

 iter      E             dE          RMSdq      gap      omega  full diag
   1  -3768.4769023 -0.376848E+04  0.274E-02   10.60       0.0  T
   2  -3768.4773447 -0.442452E-03  0.147E-02   10.60       1.0  T
   3  -3768.4773552 -0.104777E-04  0.563E-03   10.60       1.0  T
   4  -3768.4773593 -0.411579E-05  0.133E-03   10.60       1.3  T
   5  -3768.4773613 -0.195504E-05  0.681E-04   10.60       2.5  T
   6  -3768.4773615 -0.161824E-06  0.213E-04   10.59       7.9  T
   7  -3768.4773615 -0.549994E-07  0.142E-04   10.59      11.9  T
     SCC iter.                  ...        8 min, 38.080 sec
     gradient                   ...        4 min, 22.736 sec
 * total energy  : -3715.9072314 Eh     change    :  -0.7491464E-01 Eh
   gradient norm :     0.2648924 Eh/a0  converged?    E=F G=F D=F
   time step     :     0.3025000 fs     power     :   0.2594328E-05
   step length   :     0.3013510 a0     speed     :   0.2409696E-01

........................................................................
.............................. CYCLE    8 ..............................
........................................................................

 iter      E             dE          RMSdq      gap      omega  full diag
   1  -3769.5817527 -0.376958E+04  0.306E-02   10.61       0.0  T
   2  -3769.5822148 -0.462042E-03  0.163E-02   10.61       1.0  T
   3  -3769.5822297 -0.148897E-04  0.579E-03   10.61       1.0  T
   4  -3769.5822335 -0.385457E-05  0.131E-03   10.61       1.3  T
   5  -3769.5822347 -0.121326E-05  0.752E-04   10.61       2.2  T
   6  -3769.5822349 -0.191005E-06  0.199E-04   10.60       8.5  T
   7  -3769.5822350 -0.469577E-07  0.139E-04   10.60      12.1  T
     SCC iter.                  ...        8 min, 40.604 sec
     gradient                   ...        4 min, 23.026 sec
 * total energy  : -3715.9635122 Eh     change    :  -0.5628085E-01 Eh
   gradient norm :     0.2411493 Eh/a0  converged?    E=F G=F D=F
   time step     :     0.3327500 fs     power     :   0.1504211E-05
   step length   :     0.3457966 a0     speed     :   0.2513725E-01

........................................................................
.............................. CYCLE    9 ..............................
........................................................................

 iter      E             dE          RMSdq      gap      omega  full diag
   1  -3770.7186506 -0.377072E+04  0.325E-02   10.62       0.0  T
   2  -3770.7190331 -0.382514E-03  0.175E-02   10.62       1.0  T
   3  -3770.7190518 -0.186777E-04  0.541E-03   10.62       1.0  T
   4  -3770.7190551 -0.334654E-05  0.129E-03   10.62       1.3  T
   5  -3770.7190556 -0.500270E-06  0.747E-04   10.62       2.3  T
   6  -3770.7190558 -0.180550E-06  0.151E-04   10.62      11.1  T
     SCC iter.                  ...        7 min, 25.778 sec
     gradient                   ...        4 min, 21.307 sec
 * total energy  : -3715.9982996 Eh     change    :  -0.3478741E-01 Eh
   gradient norm :     0.2485607 Eh/a0  converged?    E=F G=F D=F
   time step     :     0.3660250 fs     power     :   0.5685535E-06
   step length   :     0.3786383 a0     speed     :   0.2502240E-01

........................................................................
.............................. CYCLE   10 ..............................
........................................................................

 iter      E             dE          RMSdq      gap      omega  full diag
   1  -3771.7737952 -0.377177E+04  0.334E-02   10.64       0.0  T
   2  -3771.7740430 -0.247790E-03  0.185E-02   10.63       1.0  T
   3  -3771.7740589 -0.158666E-04  0.477E-03   10.63       1.0  T
   4  -3771.7740672 -0.832498E-05  0.145E-03   10.63       1.2  T
   5  -3771.7740683 -0.107253E-05  0.811E-04   10.63       2.1  T
   6  -3771.7740684 -0.106903E-06  0.120E-04   10.63      14.0  T
   7  -3771.7740684 -0.161172E-07  0.861E-05   10.63      19.5  T
     SCC iter.                  ...        8 min, 43.353 sec
     gradient                   ...        4 min, 21.431 sec
 * total energy  : -3716.0150926 Eh     change    :  -0.1679298E-01 Eh
   gradient norm :     0.2586847 Eh/a0  converged?    E=F G=F D=F
   time step     :     0.4026275 fs     power     :  -0.4888403E-07
   step length   :     0.3969363 a0     speed     :   0.2384693E-01

........................................................................
.............................. CYCLE   11 ..............................
........................................................................
 * reset velocities

 iter      E             dE          RMSdq      gap      omega  full diag
   1  -3771.7553170 -0.377176E+04  0.104E-03   10.63       0.0  T
   2  -3771.7553179 -0.825496E-06  0.636E-04   10.63       2.6  T
   3  -3771.7553179 -0.105383E-07  0.267E-04   10.63       6.3  T
     SCC iter.                  ...        3 min, 41.195 sec
     gradient                   ...        4 min, 20.955 sec
 * total energy  : -3716.0176049 Eh     change    :  -0.2512274E-02 Eh
   gradient norm :     0.2525504 Eh/a0  converged?    E=F G=F D=F
   time step     :     0.2013138 fs     power     :   0.1636211E-06
   step length   :     0.0098294 a0     speed     :   0.1181052E-02

........................................................................
.............................. CYCLE   12 ..............................
........................................................................

 iter      E             dE          RMSdq      gap      omega  full diag
   1  -3771.7182867 -0.377172E+04  0.208E-03   10.63       0.0  T
   2  -3771.7182898 -0.309763E-05  0.128E-03   10.63       1.3  T
   3  -3771.7182898 -0.280279E-07  0.515E-04   10.63       3.3  T
   4  -3771.7182899 -0.774990E-07  0.135E-04   10.63      12.4  T
     SCC iter.                  ...        4 min, 57.931 sec
     gradient                   ...        4 min, 21.023 sec
 * total energy  : -3716.0223939 Eh     change    :  -0.4789008E-02 Eh
   gradient norm :     0.2405630 Eh/a0  converged?    E=F G=F D=F
   time step     :     0.2013138 fs     power     :   0.3079422E-06
   step length   :     0.0194255 a0     speed     :   0.2334073E-02

........................................................................
.............................. CYCLE   13 ..............................
........................................................................

 iter      E             dE          RMSdq      gap      omega  full diag
   1  -3771.6639209 -0.377166E+04  0.300E-03   10.63       0.0  T
   2  -3771.6639279 -0.697042E-05  0.184E-03   10.63       1.0  T
   3  -3771.6639280 -0.997043E-07  0.777E-04   10.63       2.2  T
   4  -3771.6639282 -0.175783E-06  0.206E-04   10.63       8.2  T
     SCC iter.                  ...        4 min, 57.100 sec
     gradient                   ...        4 min, 22.244 sec
 * total energy  : -3716.0290146 Eh     change    :  -0.6620680E-02 Eh
   gradient norm :     0.2232022 Eh/a0  converged?    E=F G=F D=F
   time step     :     0.2013138 fs     power     :   0.4198261E-06
   step length   :     0.0285646 a0     speed     :   0.3432175E-02

........................................................................
.............................. CYCLE   14 ..............................
........................................................................

 iter      E             dE          RMSdq      gap      omega  full diag
   1  -3771.5936486 -0.377159E+04  0.387E-03   10.64       0.0  T
   2  -3771.5936603 -0.116572E-04  0.238E-03   10.64       1.0  T
   3  -3771.5936605 -0.171690E-06  0.100E-03   10.64       1.7  T
   4  -3771.5936607 -0.292724E-06  0.268E-04   10.64       6.3  T
   5  -3771.5936608 -0.889913E-07  0.671E-05   10.64      25.1  T
     SCC iter.                  ...        6 min,  8.307 sec
     gradient                   ...        4 min, 20.790 sec
 * total energy  : -3716.0368621 Eh     change    :  -0.7847514E-02 Eh
   gradient norm :     0.2012252 Eh/a0  converged?    E=F G=F D=F
   time step     :     0.2013138 fs     power     :   0.4897579E-06
   step length   :     0.0370378 a0     speed     :   0.4450274E-02

........................................................................
.............................. CYCLE   15 ..............................
........................................................................

 iter      E             dE          RMSdq      gap      omega  full diag
   1  -3771.5094025 -0.377151E+04  0.463E-03   10.64       0.0  T
   2  -3771.5094193 -0.168268E-04  0.285E-03   10.64       1.0  T
   3  -3771.5094196 -0.251797E-06  0.120E-03   10.64       1.4  T
   4  -3771.5094200 -0.407703E-06  0.320E-04   10.64       5.3  T
   5  -3771.5094201 -0.127091E-06  0.794E-05   10.64      21.2  T
     SCC iter.                  ...        6 min, 21.436 sec
     gradient                   ...        4 min, 21.670 sec
 * total energy  : -3716.0452384 Eh     change    :  -0.8376336E-02 Eh
   gradient norm :     0.1756659 Eh/a0  converged?    E=F G=F D=F
   time step     :     0.2013138 fs     power     :   0.5128189E-06
   step length   :     0.0446580 a0     speed     :   0.5365882E-02

........................................................................
.............................. CYCLE   16 ..............................
........................................................................

 iter      E             dE          RMSdq      gap      omega  full diag
   1  -3771.4136768 -0.377141E+04  0.526E-03   10.64       0.0  T
   2  -3771.4136986 -0.218252E-04  0.324E-03   10.64       1.0  T
   3  -3771.4136989 -0.330489E-06  0.137E-03   10.64       1.2  T
   4  -3771.4136994 -0.518590E-06  0.365E-04   10.64       4.6  T
   5  -3771.4136996 -0.163520E-06  0.905E-05   10.64      18.6  T
     SCC iter.                  ...        6 min,  9.905 sec
     gradient                   ...        4 min, 20.487 sec
 * total energy  : -3716.0534331 Eh     change    :  -0.8194624E-02 Eh
   gradient norm :     0.1480763 Eh/a0  converged?    E=F G=F D=F
   time step     :     0.2013138 fs     power     :   0.4896141E-06
   step length   :     0.0512608 a0     speed     :   0.6159234E-02

........................................................................
.............................. CYCLE   17 ..............................
........................................................................

 iter      E             dE          RMSdq      gap      omega  full diag
   1  -3771.2982050 -0.377130E+04  0.636E-03   10.65       0.0  T
   2  -3771.2982370 -0.320516E-04  0.393E-03   10.65       1.0  T
   3  -3771.2982375 -0.487557E-06  0.166E-03   10.65       1.0  T
   4  -3771.2982383 -0.743234E-06  0.441E-04   10.65       3.8  T
   5  -3771.2982385 -0.237910E-06  0.108E-04   10.65      15.6  T
     SCC iter.                  ...        6 min,  7.431 sec
     gradient                   ...        4 min, 22.055 sec
 * total energy  : -3716.0615185 Eh     change    :  -0.8085481E-02 Eh
   gradient norm :     0.1180172 Eh/a0  converged?    E=F G=F D=F
   time step     :     0.2214451 fs     power     :   0.4177298E-06
   step length   :     0.0629806 a0     speed     :   0.6879485E-02

........................................................................
.............................. CYCLE   18 ..............................
........................................................................

 iter      E             dE          RMSdq      gap      omega  full diag
   1  -3771.1651714 -0.377117E+04  0.740E-03   10.65       0.0  T
   2  -3771.1652148 -0.433397E-04  0.459E-03   10.65       1.0  T
   3  -3771.1652154 -0.657991E-06  0.192E-03   10.65       1.0  T
   4  -3771.1652164 -0.984055E-06  0.513E-04   10.65       3.3  T
   5  -3771.1652167 -0.319406E-06  0.125E-04   10.65      13.5  T
     SCC iter.                  ...        6 min, 15.944 sec
     gradient                   ...        4 min, 20.629 sec
 * total energy  : -3716.0685252 Eh     change    :  -0.7006707E-02 Eh
   gradient norm :     0.0914716 Eh/a0  converged?    E=F G=F D=F
   time step     :     0.2435896 fs     power     :   0.3005010E-06
   step length   :     0.0751550 a0     speed     :   0.7463011E-02

........................................................................
.............................. CYCLE   19 ..............................
........................................................................

 iter      E             dE          RMSdq      gap      omega  full diag
   1  -3771.0229126 -0.377102E+04  0.812E-03   10.65       0.0  T
   2  -3771.0229641 -0.515511E-04  0.507E-03   10.66       1.0  T
   3  -3771.0229649 -0.754977E-06  0.209E-03   10.66       1.0  T
   4  -3771.0229660 -0.117053E-05  0.562E-04   10.66       3.0  T
   5  -3771.0229664 -0.378921E-06  0.137E-04   10.66      12.3  T
   6  -3771.0229664 -0.134210E-07  0.903E-05   10.66      18.6  T
     SCC iter.                  ...        7 min, 29.153 sec
     gradient                   ...        4 min, 21.835 sec
 * total energy  : -3716.0735472 Eh     change    :  -0.5021976E-02 Eh
   gradient norm :     0.0813623 Eh/a0  converged?    E=F G=F D=F
   time step     :     0.2679486 fs     power     :   0.1614899E-06
   step length   :     0.0864305 a0     speed     :   0.7802440E-02

........................................................................
.............................. CYCLE   20 ..............................
........................................................................

 iter      E             dE          RMSdq      gap      omega  full diag
   1  -3770.8895908 -0.377089E+04  0.817E-03   10.66       0.0  T
   2  -3770.8896400 -0.492283E-04  0.514E-03   10.66       1.0  T
   3  -3770.8896406 -0.600196E-06  0.204E-03   10.66       1.0  T
   4  -3770.8896419 -0.120845E-05  0.550E-04   10.66       3.1  T
   5  -3770.8896422 -0.361154E-06  0.129E-04   10.66      13.0  T
   6  -3770.8896422 -0.911723E-08  0.781E-05   10.67      21.5  T
     SCC iter.                  ...        7 min, 28.035 sec
     gradient                   ...        4 min, 22.317 sec
 * total energy  : -3716.0763807 Eh     change    :  -0.2833505E-02 Eh
   gradient norm :     0.0941639 Eh/a0  converged?    E=F G=F D=F
   time step     :     0.2947435 fs     power     :   0.5101266E-07
   step length   :     0.0942517 a0     speed     :   0.7734993E-02
 * RMSD in coord.:     0.0374433 a0     energy gain  -0.7058478E+00 Eh

........................................................................
.............................. CYCLE   21 ..............................
........................................................................

 iter      E             dE          RMSdq      gap      omega  full diag
   1  -3770.8085603 -0.377081E+04  0.582E-03   10.67       0.0  T
   2  -3770.8085817 -0.213964E-04  0.370E-03   10.67       1.0  T
   3  -3770.8085818 -0.131459E-06  0.134E-03   10.67       1.3  T
   4  -3770.8085825 -0.677584E-06  0.364E-04   10.67       4.6  T
   5  -3770.8085827 -0.160036E-06  0.935E-05   10.67      18.0  T
     SCC iter.                  ...        6 min,  7.610 sec
     gradient                   ...        4 min, 24.318 sec
 * total energy  : -3716.0777361 Eh     change    :  -0.1355369E-02 Eh
   gradient norm :     0.1102972 Eh/a0  converged?    E=F G=F D=F
   time step     :     0.2500000 fs     power     :   0.3031595E-07
   step length   :     0.0748836 a0     speed     :   0.7245386E-02

........................................................................
.............................. CYCLE   22 ..............................
........................................................................

 iter      E             dE          RMSdq      gap      omega  full diag
   1  -3770.7624926 -0.377076E+04  0.482E-03   10.68       0.0  T
   2  -3770.7625026 -0.100347E-04  0.306E-03   10.68       1.0  T
   3  -3770.7625025  0.957011E-07  0.866E-04   10.68       1.9  T
   4  -3770.7625030 -0.522014E-06  0.249E-04   10.68       6.7  T
     SCC iter.                  ...        4 min, 50.508 sec
     gradient                   ...        4 min, 24.323 sec
 * total energy  : -3716.0793474 Eh     change    :  -0.1611312E-02 Eh
   gradient norm :     0.1220980 Eh/a0  converged?    E=F G=F D=F
   time step     :     0.2500000 fs     power     :   0.6203446E-07
   step length   :     0.0697625 a0     speed     :   0.6749896E-02

........................................................................
.............................. CYCLE   23 ..............................
........................................................................

 iter      E             dE          RMSdq      gap      omega  full diag
   1  -3770.7507545 -0.377075E+04  0.421E-03   10.68       0.0  T
   2  -3770.7507576 -0.308544E-05  0.262E-03   10.68       1.0  T
   3  -3770.7507575  0.103889E-06  0.394E-04   10.68       4.3  T
   4  -3770.7507578 -0.312534E-06  0.148E-04   10.68      11.3  T
     SCC iter.                  ...        5 min,  4.553 sec
     gradient                   ...        4 min, 23.263 sec
 * total energy  : -3716.0818797 Eh     change    :  -0.2532338E-02 Eh
   gradient norm :     0.1270259 Eh/a0  converged?    E=F G=F D=F
   time step     :     0.2500000 fs     power     :   0.1213698E-06
   step length   :     0.0662214 a0     speed     :   0.6407278E-02

........................................................................
.............................. CYCLE   24 ..............................
........................................................................

 iter      E             dE          RMSdq      gap      omega  full diag
   1  -3770.7709550 -0.377077E+04  0.411E-03   10.69       0.0  T
   2  -3770.7709554 -0.491534E-06  0.247E-03   10.69       1.0  T
   3  -3770.7709555 -0.917598E-07  0.178E-04   10.69       9.4  T
   4  -3770.7709556 -0.428772E-07  0.990E-05   10.69      17.0  T
     SCC iter.                  ...        4 min, 58.165 sec
     gradient                   ...        4 min, 22.561 sec
 * total energy  : -3716.0855434 Eh     change    :  -0.3663652E-02 Eh
   gradient norm :     0.1249750 Eh/a0  converged?    E=F G=F D=F
   time step     :     0.2500000 fs     power     :   0.1848158E-06
   step length   :     0.0648512 a0     speed     :   0.6274703E-02

........................................................................
.............................. CYCLE   25 ..............................
........................................................................

 iter      E             dE          RMSdq      gap      omega  full diag
   1  -3770.8197589 -0.377082E+04  0.443E-03   10.70       0.0  T
   2  -3770.8197602 -0.126692E-05  0.257E-03   10.70       1.0  T
   3  -3770.8197602 -0.232844E-07  0.352E-04   10.70       4.8  T
   4  -3770.8197604 -0.144026E-06  0.112E-04   10.70      15.0  T
     SCC iter.                  ...        5 min, 11.725 sec
     gradient                   ...        4 min, 23.766 sec
 * total energy  : -3716.0901873 Eh     change    :  -0.4643872E-02 Eh
   gradient norm :     0.1168915 Eh/a0  converged?    E=F G=F D=F
   time step     :     0.2500000 fs     power     :   0.2349751E-06
   step length   :     0.0654964 a0     speed     :   0.6337128E-02

........................................................................
.............................. CYCLE   26 ..............................
........................................................................

 iter      E             dE          RMSdq      gap      omega  full diag
   1  -3770.9022007 -0.377090E+04  0.549E-03   10.71       0.0  T
   2  -3770.9022061 -0.539158E-05  0.313E-03   10.71       1.0  T
   3  -3770.9022060  0.111022E-06  0.743E-04   10.71       2.3  T
   4  -3770.9022064 -0.441556E-06  0.167E-04   10.71      10.1  T
     SCC iter.                  ...        4 min, 57.173 sec
     gradient                   ...        4 min, 23.335 sec
 * total energy  : -3716.0959959 Eh     change    :  -0.5808608E-02 Eh
   gradient norm :     0.1028868 Eh/a0  converged?    E=F G=F D=F
   time step     :     0.2750000 fs     power     :   0.2615653E-06
   step length   :     0.0748746 a0     speed     :   0.6585924E-02

........................................................................
.............................. CYCLE   27 ..............................
........................................................................

 iter      E             dE          RMSdq      gap      omega  full diag
   1  -3771.0197889 -0.377102E+04  0.677E-03   10.72       0.0  T
   2  -3771.0198017 -0.128285E-04  0.383E-03   10.72       1.0  T
   3  -3771.0198015  0.161857E-06  0.111E-03   10.72       1.5  T
   4  -3771.0198023 -0.742565E-06  0.242E-04   10.72       7.0  T
   5  -3771.0198024 -0.923364E-07  0.113E-04   10.72      14.9  T
     SCC iter.                  ...        6 min,  5.745 sec
     gradient                   ...        4 min, 20.309 sec
 * total energy  : -3716.1024599 Eh     change    :  -0.6463977E-02 Eh
   gradient norm :     0.0852608 Eh/a0  converged?    E=F G=F D=F
   time step     :     0.3025000 fs     power     :   0.2545382E-06
   step length   :     0.0869978 a0     speed     :   0.6956614E-02

........................................................................
.............................. CYCLE   28 ..............................
........................................................................

 iter      E             dE          RMSdq      gap      omega  full diag
   1  -3771.1701241 -0.377117E+04  0.804E-03   10.73       0.0  T
   2  -3771.1701460 -0.218833E-04  0.453E-03   10.73       1.0  T
   3  -3771.1701458  0.152318E-06  0.140E-03   10.73       1.2  T
   4  -3771.1701468 -0.964872E-06  0.309E-04   10.73       5.4  T
   5  -3771.1701469 -0.152958E-06  0.125E-04   10.73      13.4  T
     SCC iter.                  ...        6 min,  8.908 sec
     gradient                   ...        4 min, 21.652 sec
 * total energy  : -3716.1088056 Eh     change    :  -0.6345762E-02 Eh
   gradient norm :     0.0703036 Eh/a0  converged?    E=F G=F D=F
   time step     :     0.3327500 fs     power     :   0.2141969E-06
   step length   :     0.1012187 a0     speed     :   0.7357965E-02

........................................................................
.............................. CYCLE   29 ..............................
........................................................................

 iter      E             dE          RMSdq      gap      omega  full diag
   1  -3771.3421197 -0.377134E+04  0.891E-03   10.74       0.0  T
   2  -3771.3421468 -0.270930E-04  0.500E-03   10.74       1.0  T
   3  -3771.3421467  0.970813E-07  0.151E-03   10.74       1.1  T
   4  -3771.3421477 -0.991485E-06  0.343E-04   10.74       4.9  T
   5  -3771.3421479 -0.185688E-06  0.134E-04   10.74      12.6  T
     SCC iter.                  ...        6 min, 17.538 sec
     gradient                   ...        4 min, 20.941 sec
 * total energy  : -3716.1143653 Eh     change    :  -0.5559702E-02 Eh
   gradient norm :     0.0672566 Eh/a0  converged?    E=F G=F D=F
   time step     :     0.3660250 fs     power     :   0.1592953E-06
   step length   :     0.1160741 a0     speed     :   0.7670782E-02

........................................................................
.............................. CYCLE   30 ..............................
........................................................................

 iter      E             dE          RMSdq      gap      omega  full diag
   1  -3771.5122572 -0.377151E+04  0.899E-03   10.75       0.0  T
   2  -3771.5122793 -0.220987E-04  0.503E-03   10.75       1.0  T
   3  -3771.5122794 -0.440800E-07  0.132E-03   10.75       1.3  T
   4  -3771.5122800 -0.667988E-06  0.300E-04   10.75       5.6  T
   5  -3771.5122802 -0.134239E-06  0.129E-04   10.75      13.1  T
     SCC iter.                  ...        6 min, 13.873 sec
     gradient                   ...        4 min, 21.598 sec
 * total energy  : -3716.1191816 Eh     change    :  -0.4816263E-02 Eh
   gradient norm :     0.0749152 Eh/a0  converged?    E=F G=F D=F
   time step     :     0.4026275 fs     power     :   0.1233152E-06
   step length   :     0.1294151 a0     speed     :   0.7774935E-02

........................................................................
.............................. CYCLE   31 ..............................
........................................................................

 iter      E             dE          RMSdq      gap      omega  full diag
   1  -3771.6532288 -0.377165E+04  0.841E-03   10.76       0.0  T
   2  -3771.6532390 -0.101865E-04  0.473E-03   10.76       1.0  T
   3  -3771.6532393 -0.289273E-06  0.851E-04   10.76       2.0  T
   4  -3771.6532395 -0.204032E-06  0.195E-04   10.76       8.6  T
     SCC iter.                  ...        4 min, 56.690 sec
     gradient                   ...        4 min, 22.387 sec
 * total energy  : -3716.1241165 Eh     change    :  -0.4934911E-02 Eh
   gradient norm :     0.0808404 Eh/a0  converged?    E=F G=F D=F
   time step     :     0.4428903 fs     power     :   0.1226536E-06
   step length   :     0.1416206 a0     speed     :   0.7734732E-02

........................................................................
.............................. CYCLE   32 ..............................
........................................................................

 iter      E             dE          RMSdq      gap      omega  full diag
   1  -3771.7422204 -0.377174E+04  0.777E-03   10.76       0.0  T
   2  -3771.7422232 -0.274222E-05  0.455E-03   10.76       1.0  T
   3  -3771.7422230  0.138879E-06  0.623E-04   10.76       2.7  T
   4  -3771.7422237 -0.690901E-06  0.186E-04   10.76       9.0  T
     SCC iter.                  ...        5 min,  0.571 sec
     gradient                   ...        4 min, 23.867 sec
 * total energy  : -3716.1300412 Eh     change    :  -0.5924755E-02 Eh
   gradient norm :     0.0769190 Eh/a0  converged?    E=F G=F D=F
   time step     :     0.4871793 fs     power     :   0.1396916E-06
   step length   :     0.1558068 a0     speed     :   0.7735931E-02

........................................................................
.............................. CYCLE   33 ..............................
........................................................................

 iter      E             dE          RMSdq      gap      omega  full diag
   1  -3771.7647244 -0.377176E+04  0.772E-03   10.77       0.0  T
   2  -3771.7647345 -0.101731E-04  0.483E-03   10.77       1.0  T
   3  -3771.7647332  0.135590E-05  0.112E-03   10.77       1.5  T
   4  -3771.7647357 -0.252540E-05  0.225E-04   10.77       7.5  T
   5  -3771.7647357 -0.338446E-07  0.127E-04   10.77      13.3  T
   6  -3771.7647357 -0.831142E-08  0.540E-05   10.77      31.1  T
     SCC iter.                  ...        7 min, 29.595 sec
     gradient                   ...        4 min, 22.967 sec
 * total energy  : -3716.1368460 Eh     change    :  -0.6804760E-02 Eh
   gradient norm :     0.0646975 Eh/a0  converged?    E=F G=F D=F
   time step     :     0.5358972 fs     power     :   0.1404280E-06
   step length   :     0.1742951 a0     speed     :   0.7867176E-02

........................................................................
.............................. CYCLE   34 ..............................
........................................................................

 iter      E             dE          RMSdq      gap      omega  full diag
   1  -3771.7238073 -0.377172E+04  0.829E-03   10.78       0.0  T
   2  -3771.7238363 -0.290414E-04  0.540E-03   10.78       1.0  T
   3  -3771.7238357  0.610660E-06  0.163E-03   10.78       1.0  T
   4  -3771.7238380 -0.227569E-05  0.392E-04   10.78       4.3  T
   5  -3771.7238382 -0.208243E-06  0.155E-04   10.78      10.9  T
   6  -3771.7238382 -0.155651E-07  0.794E-05   10.78      21.2  T
     SCC iter.                  ...        7 min, 31.417 sec
     gradient                   ...        4 min, 21.958 sec
 * total energy  : -3716.1434030 Eh     change    :  -0.6557024E-02 Eh
   gradient norm :     0.0577342 Eh/a0  converged?    E=F G=F D=F
   time step     :     0.5894869 fs     power     :   0.1112216E-06
   step length   :     0.1964117 a0     speed     :   0.8059503E-02

........................................................................
.............................. CYCLE   35 ..............................
........................................................................

 iter      E             dE          RMSdq      gap      omega  full diag
   1  -3771.6575144 -0.377166E+04  0.887E-03   10.79       0.0  T
   2  -3771.6575479 -0.335293E-04  0.568E-03   10.79       1.0  T
   3  -3771.6575478  0.907817E-07  0.155E-03   10.79       1.1  T
   4  -3771.6575493 -0.150242E-05  0.482E-04   10.80       3.5  T
   5  -3771.6575496 -0.281691E-06  0.171E-04   10.80       9.8  T
   6  -3771.6575496 -0.136038E-07  0.719E-05   10.80      23.4  T
     SCC iter.                  ...        7 min, 25.241 sec
     gradient                   ...        4 min, 21.670 sec
 * total energy  : -3716.1491807 Eh     change    :  -0.5777678E-02 Eh
   gradient norm :     0.0630025 Eh/a0  converged?    E=F G=F D=F
   time step     :     0.6484356 fs     power     :   0.8514498E-07
   step length   :     0.2182116 a0     speed     :   0.8140030E-02

........................................................................
.............................. CYCLE   36 ..............................
........................................................................

 iter      E             dE          RMSdq      gap      omega  full diag
   1  -3771.6267860 -0.377163E+04  0.994E-03   10.82       0.0  T
   2  -3771.6268010 -0.149732E-04  0.597E-03   10.82       1.0  T
   3  -3771.6268018 -0.818033E-06  0.882E-04   10.82       1.9  T
   4  -3771.6268022 -0.394901E-06  0.313E-04   10.82       5.4  T
     SCC iter.                  ...        5 min,  3.961 sec
     gradient                   ...        4 min, 21.298 sec
 * total energy  : -3716.1552109 Eh     change    :  -0.6030216E-02 Eh
   gradient norm :     0.0625574 Eh/a0  converged?    E=F G=F D=F
   time step     :     0.7132792 fs     power     :   0.8620961E-07
   step length   :     0.2391340 a0     speed     :   0.8109553E-02

........................................................................
.............................. CYCLE   37 ..............................
........................................................................

 iter      E             dE          RMSdq      gap      omega  full diag
   1  -3771.6771529 -0.377168E+04  0.120E-02   10.85       0.0  T
   2  -3771.6771609 -0.802660E-05  0.691E-03   10.85       1.0  T
   3  -3771.6771608  0.175809E-06  0.122E-03   10.85       1.4  T
   4  -3771.6771628 -0.204127E-05  0.346E-04   10.85       4.9  T
   5  -3771.6771628 -0.154673E-07  0.123E-04   10.85      13.7  T
   6  -3771.6771628 -0.630826E-08  0.341E-05   10.85      49.4  T
     SCC iter.                  ...        7 min, 28.376 sec
     gradient                   ...        4 min, 21.957 sec
 * total energy  : -3716.1617167 Eh     change    :  -0.6505813E-02 Eh
   gradient norm :     0.0517960 Eh/a0  converged?    E=F G=F D=F
   time step     :     0.7846071 fs     power     :   0.7839263E-07
   step length   :     0.2641390 a0     speed     :   0.8143205E-02

........................................................................
.............................. CYCLE   38 ..............................
........................................................................

 iter      E             dE          RMSdq      gap      omega  full diag
   1  -3771.8066316 -0.377181E+04  0.130E-02   10.88       0.0  T
   2  -3771.8066539 -0.223100E-04  0.754E-03   10.88       1.0  T
   3  -3771.8066529  0.988629E-06  0.165E-03   10.88       1.0  T
   4  -3771.8066561 -0.314612E-05  0.358E-04   10.88       4.7  T
   5  -3771.8066562 -0.104593E-06  0.180E-04   10.88       9.4  T
   6  -3771.8066562 -0.112750E-07  0.620E-05   10.88      27.1  T
     SCC iter.                  ...        7 min, 19.268 sec
     gradient                   ...        4 min, 22.144 sec
 * total energy  : -3716.1671655 Eh     change    :  -0.5448762E-02 Eh
   gradient norm :     0.0534848 Eh/a0  converged?    E=F G=F D=F
   time step     :     0.8630678 fs     power     :   0.4673858E-07
   step length   :     0.2916592 a0     speed     :   0.8174211E-02

........................................................................
.............................. CYCLE   39 ..............................
........................................................................

 iter      E             dE          RMSdq      gap      omega  full diag
   1  -3771.9403279 -0.377194E+04  0.118E-02   10.90       0.0  T
   2  -3771.9403416 -0.136572E-04  0.684E-03   10.90       1.0  T
   3  -3771.9403420 -0.421690E-06  0.989E-04   10.90       1.7  T
   4  -3771.9403427 -0.731735E-06  0.272E-04   10.90       6.2  T
     SCC iter.                  ...        4 min, 55.482 sec
     gradient                   ...        4 min, 21.315 sec
 * total energy  : -3716.1722003 Eh     change    :  -0.5034796E-02 Eh
   gradient norm :     0.0572036 Eh/a0  converged?    E=F G=F D=F
   time step     :     0.9493746 fs     power     :   0.4323013E-07
   step length   :     0.3152845 a0     speed     :   0.8033044E-02

........................................................................
.............................. CYCLE   40 ..............................
........................................................................

 iter      E             dE          RMSdq      gap      omega  full diag
   1  -3772.0103512 -0.377201E+04  0.115E-02   10.92       0.0  T
   2  -3772.0103663 -0.150466E-04  0.689E-03   10.92       1.0  T
   3  -3772.0103645  0.182831E-05  0.155E-03   10.92       1.1  T
   4  -3772.0103688 -0.436366E-05  0.335E-04   10.92       5.0  T
   5  -3772.0103689 -0.367809E-07  0.180E-04   10.92       9.3  T
   6  -3772.0103689 -0.174191E-07  0.700E-05   10.92      24.0  T
     SCC iter.                  ...        7 min, 22.359 sec
     gradient                   ...        4 min, 24.298 sec
 * total energy  : -3716.1779899 Eh     change    :  -0.5789625E-02 Eh
   gradient norm :     0.0493612 Eh/a0  converged?    E=F G=F D=F
   time step     :     1.0443120 fs     power     :   0.4326699E-07
   step length   :     0.3431734 a0     speed     :   0.7948743E-02

........................................................................
.............................. CYCLE   41 ..............................
........................................................................

 iter      E             dE          RMSdq      gap      omega  full diag
   1  -3772.0341411 -0.377203E+04  0.125E-02   10.94       0.0  T
   2  -3772.0341693 -0.281717E-04  0.770E-03   10.94       1.0  T
   3  -3772.0341675  0.177186E-05  0.165E-03   10.94       1.0  T
   4  -3772.0341721 -0.456604E-05  0.418E-04   10.95       4.0  T
   5  -3772.0341723 -0.156033E-06  0.223E-04   10.95       7.5  T
   6  -3772.0341723 -0.323616E-07  0.100E-04   10.95      16.8  T
     SCC iter.                  ...        7 min, 29.005 sec
     gradient                   ...        4 min, 22.915 sec
 * total energy  : -3716.1830285 Eh     change    :  -0.5038537E-02 Eh
   gradient norm :     0.0496181 Eh/a0  converged?    E=F G=F D=F
   time step     :     1.1487432 fs     power     :   0.2346459E-07
   step length   :     0.3751880 a0     speed     :   0.7900255E-02

........................................................................
.............................. CYCLE   42 ..............................
........................................................................

 iter      E             dE          RMSdq      gap      omega  full diag
   1  -3772.1010710 -0.377210E+04  0.141E-02   10.98       0.0  T
   2  -3772.1010791 -0.801480E-05  0.820E-03   10.98       1.0  T
   3  -3772.1010793 -0.276732E-06  0.100E-03   10.98       1.7  T
   4  -3772.1010805 -0.116167E-05  0.316E-04   10.98       5.3  T
   5  -3772.1010805 -0.230611E-07  0.151E-04   10.98      11.1  T
   6  -3772.1010805 -0.808859E-08  0.402E-05   10.98      41.9  T
     SCC iter.                  ...        7 min, 25.801 sec
     gradient                   ...        4 min, 23.086 sec
 * total energy  : -3716.1871517 Eh     change    :  -0.4123261E-02 Eh
   gradient norm :     0.0463941 Eh/a0  converged?    E=F G=F D=F
   time step     :     1.2500000 fs     power     :   0.9429229E-08
   step length   :     0.3997555 a0     speed     :   0.7735699E-02
 * RMSD in coord.:     0.0597657 a0     energy gain  -0.1107710E+00 Eh

........................................................................
.............................. CYCLE   43 ..............................
........................................................................

 iter      E             dE          RMSdq      gap      omega  full diag
   1  -3772.1143566 -0.377211E+04  0.237E-03   10.99       0.0  T
   2  -3772.1143568 -0.270158E-06  0.137E-03   10.99       1.2  T
   3  -3772.1143568  0.160412E-07  0.204E-04   10.99       8.2  T
   4  -3772.1143569 -0.588534E-07  0.489E-05   10.99      34.4  T
     SCC iter.                  ...        4 min, 57.321 sec
     gradient                   ...        4 min, 25.720 sec
 * total energy  : -3716.1877294 Eh     change    :  -0.5776654E-03 Eh
   gradient norm :     0.0469060 Eh/a0  converged?    E=F G=F D=F
   time step     :     0.2500000 fs     power     :   0.2645298E-07
   step length   :     0.0732550 a0     speed     :   0.7087814E-02

........................................................................
.............................. CYCLE   44 ..............................
........................................................................

 iter      E             dE          RMSdq      gap      omega  full diag
   1  -3772.1265925 -0.377213E+04  0.225E-03   11.00       0.0  T
   2  -3772.1265930 -0.503066E-06  0.132E-03   11.00       1.3  T
   3  -3772.1265930  0.207401E-07  0.228E-04   11.00       7.4  T
   4  -3772.1265930 -0.661312E-07  0.486E-05   11.00      34.6  T
     SCC iter.                  ...        4 min, 57.468 sec
     gradient                   ...        4 min, 21.488 sec
 * total energy  : -3716.1885725 Eh     change    :  -0.8431039E-03 Eh
   gradient norm :     0.0437142 Eh/a0  converged?    E=F G=F D=F
   time step     :     0.2500000 fs     power     :   0.4060697E-07
   step length   :     0.0681238 a0     speed     :   0.6591346E-02

........................................................................
.............................. CYCLE   45 ..............................
........................................................................

 iter      E             dE          RMSdq      gap      omega  full diag
   1  -3772.1362952 -0.377214E+04  0.240E-03   11.00       0.0  T
   2  -3772.1362960 -0.781752E-06  0.144E-03   11.00       1.2  T
   3  -3772.1362960  0.690989E-08  0.249E-04   11.00       6.8  T
   4  -3772.1362961 -0.676350E-07  0.608E-05   11.00      27.7  T
     SCC iter.                  ...        4 min, 52.396 sec
     gradient                   ...        4 min, 23.229 sec
 * total energy  : -3716.1895657 Eh     change    :  -0.9932199E-03 Eh
   gradient norm :     0.0378155 Eh/a0  converged?    E=F G=F D=F
   time step     :     0.2500000 fs     power     :   0.4712952E-07
   step length   :     0.0643604 a0     speed     :   0.6227215E-02

........................................................................
.............................. CYCLE   46 ..............................
........................................................................

 iter      E             dE          RMSdq      gap      omega  full diag
   1  -3772.1419343 -0.377214E+04  0.265E-03   11.01       0.0  T
   2  -3772.1419353 -0.951780E-06  0.161E-03   11.01       1.0  T
   3  -3772.1419353 -0.120540E-07  0.258E-04   11.01       6.5  T
   4  -3772.1419353 -0.701061E-07  0.722E-05   11.01      23.3  T
     SCC iter.                  ...        4 min, 58.263 sec
     gradient                   ...        4 min, 21.432 sec
 * total energy  : -3716.1905517 Eh     change    :  -0.9859474E-03 Eh
   gradient norm :     0.0308113 Eh/a0  converged?    E=F G=F D=F
   time step     :     0.2500000 fs     power     :   0.4488002E-07
   step length   :     0.0616098 a0     speed     :   0.5961077E-02

........................................................................
.............................. CYCLE   47 ..............................
........................................................................

 iter      E             dE          RMSdq      gap      omega  full diag
   1  -3772.1420027 -0.377214E+04  0.285E-03   11.01       0.0  T
   2  -3772.1420037 -0.938606E-06  0.173E-03   11.01       1.0  T
   3  -3772.1420037 -0.259261E-07  0.257E-04   11.01       6.5  T
   4  -3772.1420038 -0.775690E-07  0.813E-05   11.01      20.7  T
     SCC iter.                  ...        4 min, 57.543 sec
     gradient                   ...        4 min, 21.875 sec
 * total energy  : -3716.1913934 Eh     change    :  -0.8417583E-03 Eh
   gradient norm :     0.0251319 Eh/a0  converged?    E=F G=F D=F
   time step     :     0.2500000 fs     power     :   0.3592781E-07
   step length   :     0.0594269 a0     speed     :   0.5749871E-02

........................................................................
.............................. CYCLE   48 ..............................
........................................................................

 iter      E             dE          RMSdq      gap      omega  full diag
   1  -3772.1346863 -0.377213E+04  0.320E-03   11.02       0.0  T
   2  -3772.1346872 -0.926987E-06  0.192E-03   11.02       1.0  T
   3  -3772.1346872 -0.264590E-07  0.287E-04   11.02       5.9  T
   4  -3772.1346873 -0.117136E-06  0.964E-05   11.02      17.4  T
     SCC iter.                  ...        4 min, 55.486 sec
     gradient                   ...        4 min, 23.184 sec
 * total energy  : -3716.1920763 Eh     change    :  -0.6828549E-03 Eh
   gradient norm :     0.0234891 Eh/a0  converged?    E=F G=F D=F
   time step     :     0.2750000 fs     power     :   0.2346265E-07
   step length   :     0.0630406 a0     speed     :   0.5545012E-02

........................................................................
.............................. CYCLE   49 ..............................
........................................................................

 iter      E             dE          RMSdq      gap      omega  full diag
   1  -3772.1193792 -0.377212E+04  0.329E-03   11.02       0.0  T
   2  -3772.1193801 -0.815272E-06  0.194E-03   11.02       1.0  T
   3  -3772.1193801 -0.297723E-08  0.319E-04   11.02       5.3  T
   4  -3772.1193802 -0.165356E-06  0.103E-04   11.02      16.4  T
     SCC iter.                  ...        4 min, 57.471 sec
     gradient                   ...        4 min, 22.991 sec
 * total energy  : -3716.1925832 Eh     change    :  -0.5069730E-03 Eh
   gradient norm :     0.0265418 Eh/a0  converged?    E=F G=F D=F
   time step     :     0.3025000 fs     power     :   0.1416874E-07
   step length   :     0.0659313 a0     speed     :   0.5272074E-02

........................................................................
.............................. CYCLE   50 ..............................
........................................................................

 iter      E             dE          RMSdq      gap      omega  full diag
   1  -3772.0983322 -0.377210E+04  0.316E-03   11.02       0.0  T
   2  -3772.0983330 -0.782235E-06  0.183E-03   11.02       1.0  T
   3  -3772.0983330  0.109439E-07  0.330E-04   11.02       5.1  T
   4  -3772.0983332 -0.168793E-06  0.958E-05   11.02      17.6  T
     SCC iter.                  ...        4 min, 59.707 sec
     gradient                   ...        4 min, 23.608 sec
 * total energy  : -3716.1930251 Eh     change    :  -0.4418522E-03 Eh
   gradient norm :     0.0305389 Eh/a0  converged?    E=F G=F D=F
   time step     :     0.3327500 fs     power     :   0.1200465E-07
   step length   :     0.0679321 a0     speed     :   0.4938242E-02

........................................................................
.............................. CYCLE   51 ..............................
........................................................................

 iter      E             dE          RMSdq      gap      omega  full diag
   1  -3772.0749260 -0.377207E+04  0.302E-03   11.03       0.0  T
   2  -3772.0749268 -0.869444E-06  0.173E-03   11.03       1.0  T
   3  -3772.0749268  0.648197E-08  0.317E-04   11.03       5.3  T
   4  -3772.0749270 -0.127872E-06  0.816E-05   11.03      20.6  T
     SCC iter.                  ...        5 min,  6.079 sec
     gradient                   ...        4 min, 30.807 sec
 * total energy  : -3716.1935592 Eh     change    :  -0.5341283E-03 Eh
   gradient norm :     0.0324490 Eh/a0  converged?    E=F G=F D=F
   time step     :     0.3660250 fs     power     :   0.1559696E-07
   step length   :     0.0699489 a0     speed     :   0.4622592E-02

........................................................................
.............................. CYCLE   52 ..............................
........................................................................

 iter      E             dE          RMSdq      gap      omega  full diag
   1  -3772.0529183 -0.377205E+04  0.307E-03   11.03       0.0  T
   2  -3772.0529193 -0.988544E-06  0.176E-03   11.03       1.0  T
   3  -3772.0529193 -0.232831E-08  0.293E-04   11.03       5.7  T
   4  -3772.0529194 -0.829891E-07  0.674E-05   11.03      24.9  T
     SCC iter.                  ...        4 min, 54.793 sec
     gradient                   ...        4 min, 21.184 sec
 * total energy  : -3716.1942881 Eh     change    :  -0.7288995E-03 Eh
   gradient norm :     0.0311884 Eh/a0  converged?    E=F G=F D=F
   time step     :     0.4026275 fs     power     :   0.2075804E-07
   step length   :     0.0728996 a0     speed     :   0.4379624E-02

........................................................................
.............................. CYCLE   53 ..............................
........................................................................

 iter      E             dE          RMSdq      gap      omega  full diag
   1  -3772.0364795 -0.377204E+04  0.338E-03   11.03       0.0  T
   2  -3772.0364805 -0.100151E-05  0.197E-03   11.03       1.0  T
   3  -3772.0364805 -0.119276E-07  0.265E-04   11.03       6.4  T
   4  -3772.0364806 -0.625264E-07  0.606E-05   11.03      27.8  T
     SCC iter.                  ...        5 min,  0.043 sec
     gradient                   ...        4 min, 20.619 sec
 * total energy  : -3716.1951958 Eh     change    :  -0.9076643E-03 Eh
   gradient norm :     0.0272352 Eh/a0  converged?    E=F G=F D=F
   time step     :     0.4428903 fs     power     :   0.2311340E-07
   step length   :     0.0773383 a0     speed     :   0.4223897E-02

........................................................................
.............................. CYCLE   54 ..............................
........................................................................

 iter      E             dE          RMSdq      gap      omega  full diag
   1  -3772.0300249 -0.377203E+04  0.379E-03   11.04       0.0  T
   2  -3772.0300258 -0.843424E-06  0.223E-03   11.04       1.0  T
   3  -3772.0300258 -0.820683E-08  0.263E-04   11.04       6.4  T
   4  -3772.0300259 -0.937412E-07  0.763E-05   11.04      22.0  T
     SCC iter.                  ...        4 min, 57.957 sec
     gradient                   ...        4 min, 21.629 sec
 * total energy  : -3716.1961461 Eh     change    :  -0.9503402E-03 Eh
   gradient norm :     0.0228506 Eh/a0  converged?    E=F G=F D=F
   time step     :     0.4871793 fs     power     :   0.2039227E-07
   step length   :     0.0832518 a0     speed     :   0.4133518E-02

........................................................................
.............................. CYCLE   55 ..............................
........................................................................

 iter      E             dE          RMSdq      gap      omega  full diag
   1  -3772.0368082 -0.377204E+04  0.402E-03   11.04       0.0  T
   2  -3772.0368089 -0.749305E-06  0.237E-03   11.04       1.0  T
   3  -3772.0368089  0.215696E-07  0.314E-04   11.04       5.4  T
   4  -3772.0368091 -0.178584E-06  0.101E-04   11.04      16.6  T
     SCC iter.                  ...        4 min, 49.071 sec
     gradient                   ...        4 min, 22.949 sec
 * total energy  : -3716.1969773 Eh     change    :  -0.8311772E-03 Eh
   gradient norm :     0.0215363 Eh/a0  converged?    E=F G=F D=F
   time step     :     0.5358972 fs     power     :   0.1435273E-07
   step length   :     0.0898426 a0     speed     :   0.4055235E-02

........................................................................
.............................. CYCLE   56 ..............................
........................................................................

 iter      E             dE          RMSdq      gap      omega  full diag
   1  -3772.0552076 -0.377206E+04  0.384E-03   11.04       0.0  T
   2  -3772.0552087 -0.110007E-05  0.226E-03   11.04       1.0  T
   3  -3772.0552087  0.121822E-07  0.361E-04   11.04       4.7  T
   4  -3772.0552089 -0.188232E-06  0.112E-04   11.04      15.0  T
     SCC iter.                  ...        4 min, 56.532 sec
     gradient                   ...        4 min, 21.661 sec
 * total energy  : -3716.1976642 Eh     change    :  -0.6868621E-03 Eh
   gradient norm :     0.0237921 Eh/a0  converged?    E=F G=F D=F
   time step     :     0.5894869 fs     power     :   0.1006147E-07
   step length   :     0.0957868 a0     speed     :   0.3930489E-02

........................................................................
.............................. CYCLE   57 ..............................
........................................................................

 iter      E             dE          RMSdq      gap      omega  full diag
   1  -3772.0779575 -0.377208E+04  0.347E-03   11.04       0.0  T
   2  -3772.0779589 -0.148963E-05  0.204E-03   11.04       1.0  T
   3  -3772.0779590 -0.290515E-07  0.366E-04   11.04       4.6  T
   4  -3772.0779591 -0.114272E-06  0.105E-04   11.04      16.0  T
     SCC iter.                  ...        4 min, 57.685 sec
     gradient                   ...        4 min, 21.595 sec
 * total energy  : -3716.1983761 Eh     change    :  -0.7119050E-03 Eh
   gradient norm :     0.0261862 Eh/a0  converged?    E=F G=F D=F
   time step     :     0.6484356 fs     power     :   0.1073592E-07
   step length   :     0.1011982 a0     speed     :   0.3775036E-02

........................................................................
.............................. CYCLE   58 ..............................
........................................................................

 iter      E             dE          RMSdq      gap      omega  full diag
   1  -3772.0959092 -0.377210E+04  0.335E-03   11.04       0.0  T
   2  -3772.0959104 -0.120794E-05  0.196E-03   11.04       1.0  T
   3  -3772.0959105 -0.511782E-07  0.310E-04   11.04       5.4  T
   4  -3772.0959105 -0.657737E-07  0.898E-05   11.04      18.7  T
     SCC iter.                  ...        4 min, 51.712 sec
     gradient                   ...        4 min, 21.712 sec
 * total energy  : -3716.1993281 Eh     change    :  -0.9520673E-03 Eh
   gradient norm :     0.0256419 Eh/a0  converged?    E=F G=F D=F
   time step     :     0.7132792 fs     power     :   0.1466660E-07
   step length   :     0.1080044 a0     speed     :   0.3662663E-02

........................................................................
.............................. CYCLE   59 ..............................
........................................................................

 iter      E             dE          RMSdq      gap      omega  full diag
   1  -3772.1005790 -0.377210E+04  0.375E-03   11.05       0.0  T
   2  -3772.1005798 -0.745027E-06  0.219E-03   11.05       1.0  T
   3  -3772.1005799 -0.710415E-07  0.288E-04   11.05       5.8  T
   4  -3772.1005799 -0.785826E-07  0.998E-05   11.05      16.9  T
     SCC iter.                  ...        4 min, 55.006 sec
     gradient                   ...        4 min, 21.617 sec
 * total energy  : -3716.2005384 Eh     change    :  -0.1210295E-02 Eh
   gradient norm :     0.0217774 Eh/a0  converged?    E=F G=F D=F
   time step     :     0.7846071 fs     power     :   0.1655126E-07
   step length   :     0.1179570 a0     speed     :   0.3636524E-02

........................................................................
.............................. CYCLE   60 ..............................
........................................................................

 iter      E             dE          RMSdq      gap      omega  full diag
   1  -3772.0867688 -0.377209E+04  0.438E-03   11.05       0.0  T
   2  -3772.0867703 -0.146552E-05  0.255E-03   11.05       1.0  T
   3  -3772.0867703 -0.915638E-07  0.407E-04   11.05       4.1  T
   4  -3772.0867705 -0.134969E-06  0.120E-04   11.05      14.0  T
     SCC iter.                  ...        4 min, 55.227 sec
     gradient                   ...        4 min, 21.036 sec
 * total energy  : -3716.2017560 Eh     change    :  -0.1217581E-02 Eh
   gradient norm :     0.0201667 Eh/a0  converged?    E=F G=F D=F
   time step     :     0.8630678 fs     power     :   0.1340359E-07
   step length   :     0.1307804 a0     speed     :   0.3665329E-02

........................................................................
.............................. CYCLE   61 ..............................
........................................................................

 iter      E             dE          RMSdq      gap      omega  full diag
   1  -3772.0589062 -0.377206E+04  0.446E-03   11.05       0.0  T
   2  -3772.0589084 -0.218511E-05  0.257E-03   11.05       1.0  T
   3  -3772.0589085 -0.953223E-07  0.474E-04   11.05       3.6  T
   4  -3772.0589086 -0.137890E-06  0.122E-04   11.05      13.8  T
     SCC iter.                  ...        4 min, 56.606 sec
     gradient                   ...        4 min, 23.336 sec
 * total energy  : -3716.2029208 Eh     change    :  -0.1164809E-02 Eh
   gradient norm :     0.0228608 Eh/a0  converged?    E=F G=F D=F
   time step     :     0.9493746 fs     power     :   0.1196380E-07
   step length   :     0.1437927 a0     speed     :   0.3663654E-02

........................................................................
.............................. CYCLE   62 ..............................
........................................................................

 iter      E             dE          RMSdq      gap      omega  full diag
   1  -3772.0333547 -0.377203E+04  0.428E-03   11.05       0.0  T
   2  -3772.0333564 -0.173724E-05  0.245E-03   11.05       1.0  T
   3  -3772.0333565 -0.100091E-06  0.438E-04   11.05       3.8  T
   4  -3772.0333567 -0.122633E-06  0.119E-04   11.05      14.1  T
     SCC iter.                  ...        4 min, 55.099 sec
     gradient                   ...        4 min, 21.537 sec
 * total energy  : -3716.2043428 Eh     change    :  -0.1422004E-02 Eh
   gradient norm :     0.0208613 Eh/a0  converged?    E=F G=F D=F
   time step     :     1.0443120 fs     power     :   0.1442481E-07
   step length   :     0.1582078 a0     speed     :   0.3664483E-02

........................................................................
.............................. CYCLE   63 ..............................
........................................................................

 iter      E             dE          RMSdq      gap      omega  full diag
   1  -3772.0337907 -0.377203E+04  0.490E-03   11.05       0.0  T
[...]
  3287   6 C     3288   6 C                                       1.5268044
  3287   6 C     3289   6 C                                       1.5360594
  3289   6 C     3290   6 C                                       1.5355640
  3290   6 C     3291   6 C                                       1.5276648
  3290   6 C     3292   6 C                                       1.5320059
  3292   6 C     3293   6 C                                       1.5364612
  3293   6 C     3294   6 C                                       1.5287564
  3293   6 C     3295   6 C                                       1.5337246
  3295   6 C     3296   6 C                                       1.5327449
  3296   6 C     3297   6 C                                       1.5291630
  3296   6 C     3298   6 C                                       1.5347579
  3298   6 C     3299   6 C                                       1.5362935
  3299   6 C     3300   6 C                                       1.5277443
  3299   6 C     3301   6 C                                       1.5354742
  3301   6 C     3302   6 C                                       1.5341364
  3302   6 C     3303   6 C                                       1.5288764
  3304   6 C     3305   6 C                                       1.5331187
  3305   6 C     3306   6 C                                       1.5282236
  3305   6 C     3307   6 C                                       1.5360308
  3307   6 C     3308   6 C                                       1.5351726
  3308   6 C     3309   6 C                                       1.5278847
  3308   6 C     3310   6 C                                       1.5349505
  3310   6 C     3311   6 C                                       1.5353329
  3311   6 C     3312   6 C                                       1.5265426
  3311   6 C     3313   6 C                                       1.5348159
  3313   6 C     3314   6 C                                       1.5345425
  3314   6 C     3315   6 C                                       1.5291470
  3314   6 C     3316   6 C                                       1.5354969
  3316   6 C     3317   6 C                                       1.5345363
  3317   6 C     3318   6 C                                       1.5303372
  3317   6 C     3319   6 C                                       1.5398946
  3319   6 C     3320   6 C                                       1.5389199
  3320   6 C     3321   6 C                                       1.5283211
  3320   6 C     3322   6 C                                       1.5354278
  3322   6 C     3323   6 C                                       1.5313359
  3323   6 C     3324   6 C                                       1.5292162
  3323   6 C     3325   6 C                                       1.5373285
  3325   6 C     3326   6 C                                       1.5363488
  3326   6 C     3327   6 C                                       1.5265206
  3326   6 C     3328   6 C                                       1.5356164
  3328   6 C     3329   6 C                                       1.5349555
  3329   6 C     3330   6 C                                       1.5301490
  3331   6 C     3332   6 C                                       1.5339408
  3332   6 C     3333   6 C                                       1.5289448
  3332   6 C     3334   6 C                                       1.5358468
  3334   6 C     3335   6 C                                       1.5352856
  3335   6 C     3336   6 C                                       1.5260036
  3335   6 C     3337   6 C                                       1.5358854
  3337   6 C     3338   6 C                                       1.5361936
  3338   6 C     3339   6 C                                       1.5275376
  3338   6 C     3340   6 C                                       1.5334597
  3340   6 C     3341   6 C                                       1.5368011
  3341   6 C     3342   6 C                                       1.5295501
  3341   6 C     3343   6 C                                       1.5326943
  3343   6 C     3344   6 C                                       1.5363177
  3344   6 C     3345   6 C                                       1.5298848
  3344   6 C     3346   6 C                                       1.5342881
  3346   6 C     3347   6 C                                       1.5361696
  3347   6 C     3348   6 C                                       1.5275269
  3347   6 C     3349   6 C                                       1.5326867
  3349   6 C     3350   6 C                                       1.5334814
  3350   6 C     3351   6 C                                       1.5295792
  3350   6 C     3352   6 C                                       1.5361214
  3352   6 C     3353   6 C                                       1.5275497
  3353   6 C     3354   6 C                                       1.5245814
  3265   6 C     3355   1 H                                       1.0871566
  3265   6 C     3356   1 H                                       1.0883595
  3265   6 C     3357   1 H                                       1.0865205
  3354   6 C     3358   1 H                                       1.0878094
  3354   6 C     3359   1 H                                       1.0881946
  3354   6 C     3360   1 H                                       1.0883888
  3352   6 C     3361   1 H                                       1.0938890
  3352   6 C     3362   1 H                                       1.0926330
  3349   6 C     3363   1 H                                       1.0909242
  3349   6 C     3364   1 H                                       1.0929239
  3347   6 C     3365   1 H                                       1.0924661
  3348   6 C     3366   1 H                                       1.0882079
  3348   6 C     3367   1 H                                       1.0871226
  3348   6 C     3368   1 H                                       1.0874596
  3346   6 C     3369   1 H                                       1.0915601
  3346   6 C     3370   1 H                                       1.0923478
  3343   6 C     3371   1 H                                       1.0916319
  3343   6 C     3372   1 H                                       1.0937482
  3350   6 C     3373   1 H                                       1.0963518
  3351   6 C     3374   1 H                                       1.0872478
  3351   6 C     3375   1 H                                       1.0879674
  3351   6 C     3376   1 H                                       1.0882160
  3344   6 C     3377   1 H                                       1.0933805
  3345   6 C     3378   1 H                                       1.0884251
  3345   6 C     3379   1 H                                       1.0869617
  3345   6 C     3380   1 H                                       1.0882323
  3341   6 C     3381   1 H                                       1.0938828
  3342   6 C     3382   1 H                                       1.0866574
  3342   6 C     3383   1 H                                       1.0886495
  3342   6 C     3384   1 H                                       1.0880925
  3340   6 C     3385   1 H                                       1.0927541
  3340   6 C     3386   1 H                                       1.0940534
  3338   6 C     3387   1 H                                       1.0932762
  3339   6 C     3388   1 H                                       1.0884424
  3339   6 C     3389   1 H                                       1.0877220
  3339   6 C     3390   1 H                                       1.0869307
  3337   6 C     3391   1 H                                       1.0931092
  3337   6 C     3392   1 H                                       1.0925642
  3335   6 C     3393   1 H                                       1.0941925
  3336   6 C     3394   1 H                                       1.0870765
  3336   6 C     3395   1 H                                       1.0881858
  3336   6 C     3396   1 H                                       1.0863587
  3334   6 C     3397   1 H                                       1.0925888
  3334   6 C     3398   1 H                                       1.0931870
  3332   6 C     3399   1 H                                       1.0934890
  3333   6 C     3400   1 H                                       1.0882701
  3333   6 C     3401   1 H                                       1.0872852
  3333   6 C     3402   1 H                                       1.0877633
  3331   6 C     3403   1 H                                       1.0908989
  3331   6 C     3404   1 H                                       1.0930793
  3329   6 C     3405   1 H                                       1.0929550
  3330   6 C     3406   1 H                                       1.0882948
  3330   6 C     3407   1 H                                       1.0879091
  3330   6 C     3408   1 H                                       1.0884790
  3328   6 C     3409   1 H                                       1.0938543
  3328   6 C     3410   1 H                                       1.0937900
  3326   6 C     3411   1 H                                       1.0922710
  3327   6 C     3412   1 H                                       1.0884561
  3327   6 C     3413   1 H                                       1.0862502
  3327   6 C     3414   1 H                                       1.0869861
  3325   6 C     3415   1 H                                       1.0939810
  3325   6 C     3416   1 H                                       1.0940661
  3323   6 C     3417   1 H                                       1.0927954
  3324   6 C     3418   1 H                                       1.0883978
  3324   6 C     3419   1 H                                       1.0867392
  3324   6 C     3420   1 H                                       1.0883443
  3322   6 C     3421   1 H                                       1.0895215
  3322   6 C     3422   1 H                                       1.0936237
  3320   6 C     3423   1 H                                       1.0968128
  3321   6 C     3424   1 H                                       1.0859333
  3321   6 C     3425   1 H                                       1.0880906
  3321   6 C     3426   1 H                                       1.0886078
  3319   6 C     3427   1 H                                       1.0936180
  3319   6 C     3428   1 H                                       1.0919207
  3317   6 C     3429   1 H                                       1.0919134
  3318   6 C     3430   1 H                                       1.0887097
  3318   6 C     3431   1 H                                       1.0873339
  3318   6 C     3432   1 H                                       1.0886625
  3316   6 C     3433   1 H                                       1.0894374
  3316   6 C     3434   1 H                                       1.0937608
  3314   6 C     3435   1 H                                       1.0942867
  3315   6 C     3436   1 H                                       1.0886786
  3315   6 C     3437   1 H                                       1.0887833
  3315   6 C     3438   1 H                                       1.0875505
  3313   6 C     3439   1 H                                       1.0907940
  3313   6 C     3440   1 H                                       1.0920156
  3311   6 C     3441   1 H                                       1.0948541
  3312   6 C     3442   1 H                                       1.0877543
  3312   6 C     3443   1 H                                       1.0877144
  3312   6 C     3444   1 H                                       1.0867144
  3310   6 C     3445   1 H                                       1.0921033
  3310   6 C     3446   1 H                                       1.0925688
  3308   6 C     3447   1 H                                       1.0932693
  3309   6 C     3448   1 H                                       1.0880728
  3309   6 C     3449   1 H                                       1.0887784
  3309   6 C     3450   1 H                                       1.0879851
  3307   6 C     3451   1 H                                       1.0924031
  3307   6 C     3452   1 H                                       1.0932817
  3305   6 C     3453   1 H                                       1.0958666
  3306   6 C     3454   1 H                                       1.0883189
  3306   6 C     3455   1 H                                       1.0886248
  3306   6 C     3456   1 H                                       1.0873240
  3304   6 C     3457   1 H                                       1.0905036
  3304   6 C     3458   1 H                                       1.0926177
  3302   6 C     3459   1 H                                       1.0951119
  3303   6 C     3460   1 H                                       1.0881424
  3303   6 C     3461   1 H                                       1.0886927
  3303   6 C     3462   1 H                                       1.0887332
  3301   6 C     3463   1 H                                       1.0912738
  3301   6 C     3464   1 H                                       1.0930014
  3299   6 C     3465   1 H                                       1.0944965
  3300   6 C     3466   1 H                                       1.0885474
  3300   6 C     3467   1 H                                       1.0880762
  3300   6 C     3468   1 H                                       1.0886631
  3298   6 C     3469   1 H                                       1.0906022
  3298   6 C     3470   1 H                                       1.0923830
  3296   6 C     3471   1 H                                       1.0938213
  3297   6 C     3472   1 H                                       1.0879158
  3297   6 C     3473   1 H                                       1.0876614
  3297   6 C     3474   1 H                                       1.0887808
  3295   6 C     3475   1 H                                       1.0915538
  3295   6 C     3476   1 H                                       1.0934813
  3293   6 C     3477   1 H                                       1.0946506
  3294   6 C     3478   1 H                                       1.0871673
  3294   6 C     3479   1 H                                       1.0873559
  3294   6 C     3480   1 H                                       1.0864677
  3292   6 C     3481   1 H                                       1.0907225
  3292   6 C     3482   1 H                                       1.0934544
  3290   6 C     3483   1 H                                       1.0927366
  3291   6 C     3484   1 H                                       1.0872215
  3291   6 C     3485   1 H                                       1.0872662
  3291   6 C     3486   1 H                                       1.0870704
  3289   6 C     3487   1 H                                       1.0934132
  3289   6 C     3488   1 H                                       1.0920878
  3287   6 C     3489   1 H                                       1.0923801
  3288   6 C     3490   1 H                                       1.0872452
  3288   6 C     3491   1 H                                       1.0877398
  3288   6 C     3492   1 H                                       1.0884394
  3286   6 C     3493   1 H                                       1.0924544
  3286   6 C     3494   1 H                                       1.0932979
  3284   6 C     3495   1 H                                       1.0947505
  3285   6 C     3496   1 H                                       1.0881252
  3285   6 C     3497   1 H                                       1.0879030
  3285   6 C     3498   1 H                                       1.0878255
  3283   6 C     3499   1 H                                       1.0904885
  3283   6 C     3500   1 H                                       1.0917533
  3281   6 C     3501   1 H                                       1.0934221
  3282   6 C     3502   1 H                                       1.0873879
  3282   6 C     3503   1 H                                       1.0878693
  3282   6 C     3504   1 H                                       1.0880240
  3280   6 C     3505   1 H                                       1.0923904
  3280   6 C     3506   1 H                                       1.0914495
  3278   6 C     3507   1 H                                       1.0931125
  3279   6 C     3508   1 H                                       1.0885181
  3279   6 C     3509   1 H                                       1.0870826
  3279   6 C     3510   1 H                                       1.0879558
  3277   6 C     3511   1 H                                       1.0907253
  3277   6 C     3512   1 H                                       1.0925766
  3275   6 C     3513   1 H                                       1.0938341
  3276   6 C     3514   1 H                                       1.0890411
  3276   6 C     3515   1 H                                       1.0882681
  3276   6 C     3516   1 H                                       1.0883705
  3274   6 C     3517   1 H                                       1.0941051
  3274   6 C     3518   1 H                                       1.0927140
  3272   6 C     3519   1 H                                       1.0947376
  3273   6 C     3520   1 H                                       1.0876719
  3273   6 C     3521   1 H                                       1.0857722
  3273   6 C     3522   1 H                                       1.0866903
  3271   6 C     3523   1 H                                       1.0928526
  3271   6 C     3524   1 H                                       1.0927871
  3269   6 C     3525   1 H                                       1.0943982
  3270   6 C     3526   1 H                                       1.0871502
  3270   6 C     3527   1 H                                       1.0881111
  3270   6 C     3528   1 H                                       1.0886842
  3268   6 C     3529   1 H                                       1.0923802
  3268   6 C     3530   1 H                                       1.0927604
  3266   6 C     3531   1 H                                       1.0954327
  3267   6 C     3532   1 H                                       1.0881284
  3267   6 C     3533   1 H                                       1.0880731
  3267   6 C     3534   1 H                                       1.0870021
  3353   6 C     3535   1 H                                       1.0906479
  3353   6 C     3536   1 H                                       1.0912906

 * 2 distinct bonds (by element types)

   Z      Z             #   av. dist./Å        max./Å        min./Å
   1 H    6 C        2366     1.0902914     1.0978804     1.0843534
   6 C    6 C        1122     1.5324712     1.5400039     1.5224025


optimized geometry written to: xtbopt.xyz


           -------------------------------------------------
          | TOTAL ENERGY            -3716.269204155743 Eh   |
          | GRADIENT NORM               0.000771570762 Eh/α |
          | HOMO-LUMO GAP              11.136809569892 eV   |
           -------------------------------------------------

------------------------------------------------------------------------
 * finished run on 2024/06/25 at 01:32:13.422     
------------------------------------------------------------------------
 total:
 * wall-time:     4 d,  3 h,  8 min, 45.071 sec
 *  cpu-time:    22 d,  7 h, 46 min, 10.940 sec
 * ratio c/w:     5.404 speedup
 SCF:
 * wall-time:     0 d,  0 h,  8 min, 35.028 sec
 *  cpu-time:     0 d,  0 h, 45 min, 55.368 sec
 * ratio c/w:     5.350 speedup
 ANC optimizer:
 * wall-time:     4 d,  2 h, 58 min, 41.561 sec
 *  cpu-time:    22 d,  6 h, 58 min, 30.484 sec
 * ratio c/w:     5.405 speedup

