3536
 energy: -3716.269204155743 gnorm: 0.000771570762 xtb: 6.6.1 (8d0f1dd)
C           57.68992021203753       54.18589689359428       45.56023566200670
C           58.58561013751791       54.85495352974208       46.60315608492216
C           60.03281519354407       54.43827326212383       46.36939365670263
C           58.10281023364743       54.46442002000608       48.00270973477618
C           58.83716012707902       55.07073924609634       49.20566418536661
C           58.26049540391292       54.44803948018365       50.47616916893348
C           58.70939707644269       56.59605303334223       49.22405007716691
C           59.41935711060873       57.30355174088226       50.38626990645805
C           58.99243406395549       58.77071299778131       50.40258915643673
C           60.95656136284212       57.18961587817488       50.31365354529663
C           61.58961311934453       56.35669355900453       51.43572073294455
C           61.31214024616447       56.97671101943419       52.80566989360032
C           63.11546939927234       56.25063267580305       51.29040741409731
C           63.67199917083763       55.65984777917104       49.99133420858555
C           63.04669493419409       54.30487396187603       49.66353166493678
C           65.19201022502627       55.46775779348371       50.09812406234293
C           66.04711618117848       56.70841954234265       50.39382153841233
C           65.89820384078752       57.76187791373531       49.30086780273076
C           67.50295746939560       56.24214232321075       50.53270849890248
C           68.56241285160122       57.30585855511995       50.85581685482592
C           69.91495616912287       56.60446945338965       50.96591731395633
C           68.21909144338885       58.06104473773419       52.14445189069137
C           69.29133563605981       59.01089808545703       52.70353599185143
C           68.75325123115553       59.61676357040366       53.99960462044528
C           69.65372355392493       60.10263903237930       51.68901653577296
C           70.74952948879618       61.09182219729032       52.13382829574726
C           70.31336150457770       62.52547818876781       51.82410674041787
C           72.09955772280765       60.82369048195856       51.45398073330698
C           72.84351382994893       59.56109647870358       51.91340650438291
C           73.32573511685916       59.71078227079801       53.35403096831314
C           74.01986756115640       59.30848799215411       50.95937906238104
C           74.76862070162245       57.97618760640496       51.12175428411032
C           76.06366774134320       58.04957195480949       50.31131486318500
C           73.90351584008344       56.79997395560699       50.65327702178236
C           74.45805892538804       55.39839232002263       50.96707637224049
C           74.29984433747011       54.49415240238661       49.74271243860772
C           73.75453818681761       54.73724728148886       52.16079874841436
C           73.91786755529991       55.43906498060250       53.51286544828036
C           75.37969881668504       55.44555736718244       53.96190699072059
C           73.08229982114337       54.73792024184455       54.59536593893956
C           71.55883708384509       54.91472183413968       54.51337948663947
C           71.15711468070376       56.34696507578850       54.85336020600423
C           70.91475653798446       53.91349042756743       55.48276351588865
C           69.38071056646898       53.89524729464407       55.56535159457518
C           68.98207400108377       52.94690872511190       56.69675725032541
C           68.76851227543284       53.47082362134168       54.22526554263464
C           67.23932322325487       53.33429910003234       54.19594347370332
C           66.82755470355131       52.64828518339642       52.89202150115269
C           66.52149602960168       54.68973527233965       54.35829015902220
C           65.50216130069876       54.72143932156221       55.50325402823420
C           64.37366125436193       53.71976802658980       55.26736964923430
C           64.86698441280707       56.10762989263091       55.67454703791623
C           65.80035634607950       57.26790481618790       56.03281534706824
C           66.66222388687230       56.95066092279149       57.25511160700816
C           64.99265773717462       58.54241086743732       56.32480822752473
C           64.03347381697397       59.01447821410454       55.22560047705672
C           64.77225232456783       59.26955387178716       53.91428479213234
C           63.30664517245224       60.29220983003206       55.67350170667886
C           62.11742469398288       60.05920815191837       56.61722025408699
C           60.92884210140672       59.49739383419762       55.84095027614303
C           61.75261451889514       61.38328597466583       57.29858601615310
C           60.63311932857327       61.32111190408504       58.34516411524744
C           60.28992011567295       62.74484414517200       58.78105696602756
C           61.01889179428726       60.47672275907139       59.57250492958234
C           60.38413652093472       59.08233665782850       59.62210694595094
C           58.89547040172305       59.18708738984636       59.95040724427401
C           61.07193277964479       58.20477689480796       60.67630682185769
C           62.47793350229806       57.70757068915783       60.31678722276656
C           62.43425560836366       56.70173139914726       59.16798950887876
C           63.13688212407393       57.06507224842487       61.54681080433605
C           64.67090776939310       57.09402642169486       61.52118928476236
C           65.20357436745014       56.08924690737003       62.54084926760288
C           65.20242259118498       58.50902237149671       61.81321074412384
C           66.28180373752636       59.01699382150905       60.84659681220236
C           67.54198280239537       58.15937894700868       60.91330867110803
C           66.57760421011056       60.48411159165936       61.19032399075997
C           67.61672098318549       61.21336832963891       60.32766147966289
C           67.83867921153769       62.60940236733716       60.91072291435221
C           67.14779320908950       61.28601168815111       58.87137383013714
C           68.06577857640863       62.02352122831055       57.88545441033543
C           67.34194825958353       62.11587126463677       56.54330512893145
C           69.40996326793882       61.30217098125302       57.74739644360238
C           70.46297378676357       62.00342635381647       56.87914927973140
C           71.68389027046238       61.09052108492991       56.75300636032757
C           70.87616839832526       63.37469673920911       57.44617584420848
C           70.33290345999512       64.57111703593215       56.65442689442548
C           71.07608329321431       64.70921705673176       55.32585051371218
C           70.46814530669842       65.87437840341227       57.45425868790203
C           69.43958455755802       66.04986520984892       58.57350342684597
C           68.03157275504365       66.31692241725921       58.05438063667084
H           56.65432574026070       54.49701835032693       45.67396152100875
H           58.01543679708712       54.44139873779131       44.55458873324186
H           57.73469682743708       53.10347335391452       45.65913623618012
H           67.66047660871354       65.47634554316181       57.47394791470671
H           67.34905160797048       66.48293333729636       58.88504244828646
H           68.02265200678173       67.20037944809198       57.41923561010088
H           71.47322865778079       65.91661499032061       57.88287472751298
H           70.37115683357236       66.72061972587242       56.76923854419341
H           70.54687158484596       63.44392478264567       58.48385563751921
H           71.96640471230042       63.45016390332727       57.45800738668757
H           70.04937921189885       62.14380660669947       55.87661102929508
H           72.42790381575479       61.53161770552251       56.09292449049068
H           72.14240153673590       60.93117725559733       57.72732059046236
H           71.40073576417112       60.11905549027176       56.35124295820002
H           69.84245386093541       61.16101059330662       58.74040889646191
H           69.22259701139548       60.30891130550889       57.32880335551202
H           67.00786266485996       60.26943026231371       58.49843304119131
H           66.17084178119988       61.77739558951006       58.86086837608655
H           69.27503429629705       64.40407192859088       56.43849836113537
H           70.63732947586591       65.49974634608456       54.72006429623310
H           72.12192847921281       64.95500505213545       55.50192752064011
H           71.03558557069687       63.78370479777584       54.75695981203771
H           68.23714513309345       63.03867528487118       58.25067077261593
H           67.17470196399304       61.12051842517967       56.13695248284308
H           66.37762730006081       62.60373182804488       56.67152497474458
H           67.91359070499321       62.68609719621633       55.81630585527141
H           68.56290499827610       60.66792856208262       60.38487347163171
H           68.67645657698111       63.10748127226995       60.42996381525930
H           66.94969195424814       63.22270626545160       60.77781669062205
H           68.05625408486998       62.54737463961498       61.97526356391958
H           65.64337746621376       61.04723131999867       61.12716399475185
H           66.91305136046378       60.52483087181457       62.23121572231847
H           65.87715710572807       58.96058789628458       59.83066393569774
H           68.27627653739751       58.49063918087948       60.18342004458808
H           67.99183666832363       58.21763421667423       61.90310044801015
H           67.31176132645182       57.11926316540780       60.69906855682984
H           64.36938884418971       59.21439496250372       61.77809397095502
H           65.60402507090974       58.53638495607081       62.82942270615546
H           65.00800022637851       56.78639830317214       60.52593673498818
H           66.28919432496313       56.11377643735534       62.59085687934115
H           64.81103378098608       56.31539926821704       63.53006730053031
H           64.89326446709485       55.08112649452010       62.27834082336803
H           62.80797921133673       57.57643081866390       62.45476043487955
H           62.80042880479750       56.02779137718299       61.61945542393096
H           63.08822959325617       58.56172736730095       60.00588629085154
H           63.42842560781848       56.30542770937401       58.97101990014977
H           61.77928572782256       55.86891541367694       59.41905208451093
H           62.06935737385907       57.15803401975955       58.25114641978722
H           61.12703528726393       58.77785901086563       61.60701671356883
H           60.44357351582550       57.33123163525616       60.86988397118961
H           60.48583531692406       58.60582898221269       58.64439917153732
H           58.37710431715772       59.81452325328976       59.22963870187631
H           58.43078409741176       58.20431070787244       59.93985329016159
H           58.75540752462138       59.62113018459953       60.93911921308838
H           62.10594282292679       60.38498722339806       59.60507904449038
H           60.71648810722783       61.00549768579868       60.48086089791293
H           59.74111139928551       60.89748917254438       57.87692876075204
H           59.44908580404387       62.74266404425867       59.47134449940577
H           61.14329565105074       63.19870503661704       59.28275420462339
H           60.02788604195058       63.36102434751155       57.92297679018034
H           62.64816291724789       61.78850179961551       57.78003816673707
H           61.45683417905148       62.09110156513355       56.52014203889705
H           62.41507032536436       59.34044315535292       57.38603941510017
H           60.11442701502751       59.22935523046683       56.50833800171904
H           60.55872522065017       60.23565189061187       55.13306468471208
H           61.20906205110316       58.60460648166778       55.28854913782675
H           64.03156358985528       60.94970385244171       56.16034742174809
H           62.93793745236169       60.82213317343531       54.79194432152931
H           63.28702640253231       58.23617181823903       55.04961919470078
H           65.22086548426810       58.35640162498528       53.53267071284353
H           64.08988054383623       59.65244485843611       53.15791517852750
H           65.56103045368873       60.00333479886861       54.06210714115292
H           64.41888347494661       58.37671142119670       57.23985536259616
H           65.69984844045594       59.35146418947681       56.52939250815290
H           66.46800884396959       57.46626664409266       55.18833521627825
H           67.24212097271484       57.82435869279007       57.54842529818874
H           66.03873628891428       56.65984093265278       58.09817358065973
H           67.36008387880349       56.14221981510877       57.05324001818620
H           64.35431345469806       56.35060588830483       54.74146984458993
H           64.10760334144133       56.03337212019738       56.45781053977204
H           66.01360039247588       54.44676768391319       56.43131443205599
H           63.81674368256827       53.98273188730880       54.37062464883313
H           64.75648376365687       52.71081293071299       55.14953523755264
H           63.68307814999939       53.72519706077028       56.10834698387532
H           67.26505998756143       55.46757011538357       54.53485723468022
H           66.00736281448269       54.94597623623451       53.42866860616376
H           66.94512693380766       52.67486977390905       55.01654374014473
H           67.26190213261681       51.65143169489765       52.82823501557625
H           65.74661644230957       52.54886439329078       52.83177754849675
H           67.17256090559813       53.22138495790680       52.03274222169124
H           69.06160114058602       54.18963554118748       53.45630142833163
H           69.20571737361419       52.50571486046699       53.95162558820073
H           69.02768451071690       54.89741402685603       55.82618445666880
H           69.49928816102485       53.21662529134586       57.61568367051084
H           67.91507296058550       52.99031553106400       56.89486370413797
H           69.24498990439818       51.92207896654504       56.44468882669324
H           71.24773467843860       52.90742511045170       55.21130012690446
H           71.30583848659852       54.12363240968710       56.48283146466409
H           71.23351660365181       54.68401560564033       53.49525913704367
H           71.69570773988288       57.05694707490589       54.23169586316297
H           70.09372619132817       56.50206716924894       54.69241580066053
H           71.38372074345673       56.56677817020920       55.89514989063614
H           73.31409600484228       53.66987239295806       54.55769774624082
H           73.40701318728269       55.10336928689212       55.57359454132049
H           73.58103067962784       56.47396135598352       53.41700673684021
H           75.74797256756901       54.42629623347711       54.06387638713586
H           76.01367067429800       55.96734254496739       53.25022943955023
H           75.47965908299803       55.94188451722446       54.92550314165845
H           72.69124882764484       54.66496751360432       51.92484663524793
H           74.13480291904897       53.71651400379520       52.26074200771483
H           75.52626192581066       55.46782170478313       51.18782669168974
H           73.25091433321863       54.41597674815772       49.46482647230071
H           74.85176937804280       54.89667111891701       48.89576620128201
H           74.67468883872749       53.49333328039047       49.94779644747003
H           72.91321586421142       56.88111883306724       51.09949987655494
H           73.77808074584681       56.89955753007055       49.57304076083704
H           75.03399113852224       57.83695516023180       52.17247376787847
H           76.62130444575611       57.11811807124045       50.36858170413927
H           75.84229004866964       58.24854044566374       49.26428995749512
H           76.70314150635795       58.84775201903195       50.68313779176052
H           73.65386637079716       59.36031824170195       49.92989255252569
H           74.73547620146115       60.12525181342389       51.08859266970813
H           72.15490547072466       58.71446915126756       51.86215671276885
H           73.98145747272379       60.57473733969597       53.44628606114038
H           72.48670150713154       59.84250619562084       54.03145400384402
H           73.87672969139174       58.83180730742688       53.67841902909259
H           71.93362913325012       60.76551564548061       50.37442939995989
H           72.75544521128542       61.68123764434011       51.63038191959652
H           70.89175041798070       61.02077744072469       53.21395928954863
H           69.38206602318778       62.75955461271402       52.33455740963802
H           71.06809190321425       63.24033206387548       52.14735494008433
H           70.16140324427116       62.65488877525446       50.75401341621156
H           69.97130979803933       59.63150430634435       50.75795008334062
H           68.74186111708902       60.66093593387968       51.46745976581816
H           70.18727155910501       58.43557846911244       52.94882726076673
H           69.50729008635341       60.20593501286106       54.51283570391860
H           67.90402787311453       60.26321834301951       53.78973430898105
H           68.42742032165417       58.83275371635137       54.68048024325309
H           67.31253645413621       58.64575225661235       51.97453629806987
H           67.99247587667877       57.31896991234539       52.91555398222817
H           68.61023494125764       58.01575551647273       50.02393328995446
H           69.95722986485187       55.99488129450231       51.86619876342257
H           70.07989510264245       55.95561966922548       50.10788343887560
H           70.72710772057614       57.32443965829442       50.99674185493507
H           67.54422508829632       55.48318086249893       51.31898728926358
H           67.79166157955854       55.75578971840238       49.59678986791778
H           65.72686600015892       57.13967557183313       51.34614457603935
H           66.48127952441288       58.64863915436705       49.53553875537544
H           66.23870089276011       57.36834408436177       48.34584733884953
H           64.86055698431399       58.06829183086447       49.19789809376982
H           65.37911733339075       54.72873624782053       50.88248795015696
H           65.54426871314601       55.03269331586387       49.15954944160281
H           63.45874745448926       56.34365711837313       49.16336810062904
H           63.17686162555282       53.61160207645396       50.49176580997124
H           61.98372180567383       54.40291983467868       49.46158880452069
H           63.51842180093384       53.87137707029006       48.78333301353086
H           63.52709154145446       57.25489400565392       51.41311599245676
H           63.48744014172197       55.64272887129693       52.12132885364414
H           61.15638489941821       55.35126107900141       51.41695241237006
H           61.74728972248401       56.36377255456600       53.59358874088370
H           61.75213748518236       57.97057878706239       52.86089713051809
H           60.24834714366940       57.06540388999262       53.00204779586745
H           61.23568399496480       56.76008621703190       49.35092656163336
H           61.39483559683844       58.19019956748364       50.35231897234483
H           59.06849304423661       56.85279832993975       51.31708106145764
H           57.91777738450320       58.85527099216048       50.54877783495490
H           59.48555811432788       59.30859004732074       51.20795062991230
H           59.24293063425750       59.25287642150786       49.45970645038788
H           59.09724947999267       57.00045226771163       48.28796640486626
H           57.64558857346857       56.84740442758358       49.26818005595285
H           59.89572965658822       54.80218335098573       49.14399762974318
H           58.85864265199855       54.69742337688378       51.34674560045605
H           57.24542358935015       54.79806646819534       50.64799936989998
H           58.23451728134879       53.36601655694705       50.38807951767884
H           57.04872887711276       54.73570317971404       48.08635538362881
H           58.16880267214565       53.37581921372299       48.08137882037443
H           58.50402089347475       55.93966789954365       46.47502903820202
H           60.33138740768399       54.66781692508261       45.34874250664087
H           60.70716490005773       54.95793708851990       47.04473225012749
H           60.14541671583212       53.36783917423938       46.52555118090982
H           69.42775702187140       65.16555187500133       59.21352048995432
H           69.74869408821722       66.89336693365952       59.19626424722509
C           35.88440037536304       61.71222307055835       49.56491753163014
C           35.82424246402831       62.74024235717921       48.43789690133161
C           34.56391321667613       62.51846731208401       47.60142296951385
C           37.05442945693588       62.67443558881166       47.52344078275492
C           38.41602269245477       62.88340619181063       48.20109986079668
C           38.51565186798572       64.26621934817261       48.83593257484576
C           39.51666852638004       62.66617582271282       47.15199998454523
C           40.97062729768166       62.84779609663155       47.61811866781257
C           41.88936723914289       62.61256122030201       46.41928694809563
C           41.30534246062604       61.89420274664054       48.76862097084491
C           42.67757870430388       62.05612907078027       49.44344873704935
C           42.78691654719548       60.99207254464260       50.53605841605199
C           42.84190890639845       63.47109084227331       50.01589201741801
C           44.00873485398132       63.68406472075899       50.98878137020315
C           43.87571618646412       65.05809840620189       51.64577684959757
C           45.40369175534148       63.48813800113759       50.37494269303066
C           45.83695319965739       64.48161362440923       49.28349567927510
C           45.65640047022364       63.88928436964060       47.88686321142634
C           47.31143499950745       64.87516274943080       49.45306062036589
C           47.59477328760499       65.88148946414069       50.57514408667534
C           47.16415158713087       67.28218562390897       50.13347356970786
C           49.08781917491295       65.91056190884693       50.94802408384993
C           49.58534725708270       64.94147642876986       52.03592234024735
C           49.63565144515180       63.48513568799093       51.57044356730955
C           48.79898470597354       65.01140691172510       53.35159091170754
C           48.66876955823153       66.39674567019550       53.98958426667346
C           50.02548631954003       66.88713543615356       54.49133194693634
C           47.66950802223278       66.37554347607066       55.15756163518488
C           46.19225589531240       66.27597974812011       54.75789696264927
C           45.72366815408851       67.54423326654965       54.04650010654704
C           45.30022978253059       66.05027205928053       55.98827572740652
C           45.32507216125020       64.63861732447789       56.58350126745061
C           44.67437590032886       63.63075072579079       55.63549981294878
C           44.58768113203232       64.59731873593604       57.93129099738841
C           45.19265935159256       65.44062727876131       59.05972665576471
C           46.65680023538694       65.08651707806092       59.31483495279387
C           44.41146113226524       65.26117695100115       60.36855779036775
C           42.93335640643408       65.68220753892420       60.36368328003295
C           42.74628645834633       67.06320164161323       59.74451216272058
C           42.44617132754586       65.66356791164678       61.81980288056629
C           40.95785010680341       65.93274343126687       62.08130780803108
C           40.77337831199206       66.15401795586159       63.58518253365836
C           40.04048889664446       64.79016682236153       61.61350501796464
C           39.47093221166550       64.90685698975382       60.19264481869071
C           38.55474087754786       66.12047453237564       60.04619297925336
C           38.68334515536405       63.63149260378209       59.84104984607147
C           38.76213388606317       63.22669034295339       58.35989766536204
C           37.58767278799426       62.31334375872967       58.01395040266717
C           40.11544947436145       62.55276814634607       58.09006657976298
C           40.29519715461334       61.83176278424206       56.74732502345422
C           41.67475090156388       61.17443516157579       56.74101624937034
C           40.13353863607813       62.77317081580654       55.54923063026775
C           39.98390947342991       62.06452744732557       54.19305967563486
C           40.16408209255614       63.07893622211384       53.06615051618957
C           38.61921596594391       61.37364653951092       54.09830181090673
C           38.35754378936332       60.52360940234478       52.84529827803559
C           36.94776333075681       59.94065958448823       52.95371783247772
C           39.42118027821810       59.42755190955048       52.69965470759123
C           39.16513274201045       58.34488419307502       51.64122298635128
C           40.30567407485107       57.33021441339165       51.70910880266998
C           39.04098952383057       58.95968171647711       50.24287834476264
C           38.63633854677579       57.99138794552116       49.12342277776170
C           38.70891884932053       58.71908014671398       47.78094585638888
C           37.23330952806818       57.39511415644674       49.35329865182067
C           37.23440168917514       55.86214323209856       49.39064653367551
C           37.40164702091658       55.29862957152699       47.98122742121872
C           35.95900427629412       55.30810774703440       50.03881609420914
C           36.08575522097938       53.83720121550404       50.47990482445600
C           34.87645742661312       53.03040378743216       50.00468064212660
C           36.20546995802777       53.68973284505024       52.00291065574692
C           37.41367436563139       54.36377245537424       52.66356303540592
C           38.72782433655133       53.72620651393856       52.21239974963527
C           37.33736197607136       54.25981622675166       54.19605118070793
C           36.09736713028997       54.85616261234281       54.86817445319932
C           35.99024256811196       56.35510565932139       54.58862459462431
C           36.12806290063957       54.64091797499795       56.38801081617963
C           36.21874621176440       53.19333529385131       56.89657513887641
C           35.15716977096706       52.29619463052211       56.26568289675695
C           36.05990051225937       53.22531810732988       58.42398061037656
C           36.47036569660143       51.96079302675531       59.19522677544223
C           36.04769259712872       52.14598422952656       60.65326082015098
C           37.97975560294203       51.71807525422760       59.03655630659684
C           38.66266685156649       50.79389165879795       60.05501292053602
C           40.16708698943590       50.78718359391336       59.78087660179779
C           38.09155720995077       49.37292115137529       59.99958795919376
C           38.55332814299460       48.42341836202228       61.11536235771995
C           38.09630955194621       47.00349133608255       60.78055182463552
C           38.01738091118545       48.85703663171783       62.48467309600779
C           38.69561923781298       48.15178226794269       63.65729558503563
C           38.20087293005422       48.68567429356672       64.99662425437131
H           36.03460682716149       60.71258526976177       49.16157179944911
H           36.69327295898337       61.93345753054403       50.25594682494463
H           34.95338108667083       61.71489358927542       50.12827596589435
H           38.40876934472757       49.75007898839094       65.08431990895781
H           37.12700662955617       48.53899360365043       65.09362024845350
H           38.69156364957649       48.17258595978961       65.82108620715312
H           38.17114967540861       49.93023591719761       62.61057197602614
H           36.94037094680304       48.67233697572167       62.52403844167282
H           37.00118021556023       49.41709956528707       60.02635773369956
H           38.37626136660089       48.93502856713548       59.03918955109160
H           38.50884145544563       51.21407725138481       61.05151803152584
H           40.70353054187414       50.23638040394282       60.54814830727138
H           40.38095044039949       50.32899569946577       58.81745507570919
H           40.55631115007621       51.80283058165390       59.76891832248120
H           38.15865418830452       51.31389751957188       58.03746547589749
H           38.47704744029116       52.68938962464613       59.09175015329768
H           36.65198258944088       54.05561997946354       58.81937817836061
H           35.01167604895883       53.44427205896417       58.64709800818350
H           39.64732204004445       48.42790955063739       61.15638466694458
H           38.43957961263953       46.29355322301701       61.52851536872416
H           37.00962975946383       46.95662350963416       60.73625881218993