3795
 energy: -5103.693517786103 gnorm: 0.000863166026 xtb: 6.6.1 (8d0f1dd)
C          131.66004208725829      125.04731647745417      123.26633042298215
C          132.22628666122540      123.67621718342879      122.98515742711838
C          132.41280283237489      125.71122227975407      124.43047959952175
C          132.12922501404677      125.07566764264629      125.79260437075793
H          133.48365791953549      125.65290896192016      124.22447699016561
H          132.13698904243870      126.76628559185124      124.46111495489689
C          130.73255152444557      125.42657849473309      126.31643011227922
H          132.23940968540222      123.99292215985216      125.71600076942903
H          132.86864006342682      125.43916284922888      126.50912111201282
C          130.54486185521841      124.93091297507682      127.73854995586309
H          130.61539453677341      126.51103335792544      126.32739544328518
H          129.96575291831900      124.99390738526822      125.67433846674253
N          130.22777346736973      123.63084434296321      127.84163805733814
O          132.97453238761227      123.64482115000277      121.90966246240613
O          132.02514252868107      122.70560742850552      123.69144423639982
H          133.35895544822631      122.72296459638592      121.72357883069442
H          130.59870309344453      124.95453586119338      123.49614926893514
H          131.77851258074071      125.64812711381227      122.36579305878331
C          129.96395254080153      122.98199691481723      129.11077876020022
H          130.15808223708501      123.07023535488960      127.00645566389724
C          130.49480599130482      121.55272799164304      129.17001172309980
H          130.43267173486902      123.60159900226587      129.87932655516167
H          128.88197536019433      122.97725102739743      129.29460222655803
C          129.74056444655588      120.59795941272321      128.23943937111312
H          131.55835813025990      121.54780972684303      128.92832902049165
H          130.38928586464917      121.21399204511660      130.20078631304997
C          129.88834081222228      119.13170291917667      128.65813582886364
H          128.68173844535124      120.86211992467838      128.23530023956258
H          130.11614166647880      120.70469581899640      127.22107193463604
C          128.97551446741349      118.74865192463847      129.82800459086846
H          129.65729589905905      118.49304894135983      127.80456599351317
H          130.92664976177883      118.95006658474756      128.93743649105022
C          127.54341560950498      118.48322486057012      129.36804504758470
H          129.36039277643579      117.85038038573332      130.31308524233359
H          128.96999091251260      119.55233235841116      130.56563803157616
N          126.66899296376256      118.30072772295202      130.51194007977398
H          127.18480078860875      119.32939550916265      128.77379433611435
H          127.52572391522249      117.58677277601741      128.73688717230164
C          125.33861913583290      118.11352839192318      130.52838925919374
H          127.11233765961896      118.31021599040494      131.42030664810892
O          130.66914438284576      125.66336331950241      128.71331139647756
C          124.62681762602895      118.06684626569950      129.19157859797838
C          123.68675360013889      116.86370747147534      129.10973274356576
H          124.04778771938021      118.98670083216732      129.08784530319994
H          125.34153821803342      118.01692841566000      128.37655401464443
C          124.45517754604765      115.54123093663442      129.16296938183925
H          122.97163198442676      116.90756568973097      129.93310240113044
H          123.12876682168940      116.91891825435074      128.17311685152302
C          123.58152015248189      114.38661625455255      128.67880300427450
H          125.34558405814853      115.61553033084073      128.53835631246338
H          124.78276441662528      115.35437671205408      130.18844700864526
C          124.21188854945392      113.01288699220891      128.76782825326003
H          122.65156049280976      114.35170638745893      129.25071345880750
H          123.29517498662167      114.54591587175094      127.63492433835977
N          125.47567524623105      112.88984336076987      128.37250596166547
C          126.14762986561315      111.60764664535186      128.35745228537070
H          125.99486133593363      113.68011434988416      128.01014114509118
O          124.73905660105406      118.00003798587160      131.59308687416339
C          127.16497395831577      111.50629443645754      127.22519992252110
H          126.66157856882784      111.45532285022605      129.31564163963645
H          125.37471818026282      110.83992417173539      128.26610963070590
C          126.60978580105268      111.84794500235387      125.84061559433219
H          127.98635253051171      112.19380616256882      127.43394299469874
H          127.57077892821034      110.49391446495110      127.22229262420407
C          125.31320744675369      111.13411265208509      125.45967544870253
H          126.43308456800260      112.92339463308127      125.78954424989523
H          127.38104321940239      111.60714766997343      125.10508756259706
C          125.42097291145895      109.61257988327277      125.49820956191080
H          124.50489746723373      111.45906978077721      126.11745267511128
H          125.04618933105593      111.43925232983717      124.44608807389837
C          124.16051987916281      108.95558559763396      124.95339080050807
N          124.28079783758372      107.51141907500690      124.99340133019437
H          123.28647979926606      109.26836620862193      125.53989513902275
H          123.98114065794547      109.25857446148594      123.91455171870111
C          123.33133244833608      106.69416460948615      124.52082115625457
H          125.10476199109202      107.11789595650379      125.43813772332018
O          123.55758450822728      112.04578212718700      129.17348863926790
C          123.68864187996424      105.21960397819133      124.61584449046552
C          123.32578054747930      104.63524823747214      125.98305587256409
H          123.14256813202670      104.68528538033790      123.83659376455219
H          124.75952764114840      105.10154192083067      124.45185817272511
C          121.83379529431514      104.74109908890296      126.27636084087062
H          123.61544240507546      103.58284538037425      125.99066350074308
H          123.88853483481257      105.14301316801243      126.76558017057130
C          121.39942442041863      103.93766734002746      127.50524232541802
H          121.55441151870396      105.78917922524479      126.40659268223881
H          121.28585391528885      104.36099512934713      125.41063748408223
C          121.97802287077629      104.46374552600278      128.80521318903644
H          120.31229560427380      103.94874803763750      127.57979696020595
H          121.71786717173289      102.89905695713571      127.39518819270026
N          121.05418841453167      104.91490478223345      129.65955620907465
C          121.32405410496563      105.34300464188641      131.01615139800634
H          120.07522069328395      104.82795574996659      129.40660382622880
H          126.27860984352274      109.29257098666397      124.90677482602311
H          125.57508794720671      109.27605243587151      126.52314327688548
O          122.27531188403412      107.09296249481376      124.04099176073044
O          123.18232591371483      104.47769332132482      129.05028336913520
C          120.23348886767751      106.29904148500587      131.48585607302232
H          121.36341143523678      104.46707581755096      131.67866155621800
H          122.31002850867100      105.81391591632827      131.04761919509892
C          120.33546965901313      106.59008199757626      132.98116055141421
H          120.28502566601115      107.22409309405936      130.90975780273317
H          119.26771048057429      105.83039328670098      131.28005159401738
C          119.08839118415999      107.29370898313145      133.53401682934137
H          120.46653811778678      105.63571213914884      133.49610873516696
H          121.22652895324080      107.18811123185941      133.17753005848894
C          119.22960068701013      108.80479189124097      133.70469500692769
H          118.23990089183602      107.08684379111664      132.87986545221989
H          118.85516977809907      106.88018523523337      134.51639296560157
C          119.49375397025224      109.56210180190102      132.40520400226995
H          118.30486776222216      109.18657670727478      134.14487578980797
H          120.04627360195059      109.01026353677560      134.39981811139199
N          119.25079723654203      110.97470994218304      132.61802183062414
H          120.52684858003376      109.40555676517249      132.08053446666554
H          118.82362225323159      109.23547419553734      131.60646478752193
C          118.60349388453766      111.77067678352972      131.76297387175200
H          119.55823850149515      111.34491601869523      133.50358331199632
C          118.32823333482797      113.18693353487572      132.23444393797288
C          118.29624705584574      113.41222429295034      133.74304501114318
H          119.09056908030119      113.82943602776943      131.78581929992149
H          117.36705403624802      113.47776010954227      131.80267665397199
C          117.71124520165873      114.78777735610242      134.06405408017872
H          117.68487632056755      112.64853315628129      134.22879061715804
H          119.30436867009145      113.35562038043095      134.16001386688660
C          117.87443639351065      115.14692833908607      135.54234995953354
H          118.20457966053107      115.55252462475136      133.46245929925240
H          116.64962389450621      114.79064393961569      133.81184018292080
C          119.33778711461642      115.11925888153908      135.95050127413234
H          117.47778296225547      116.14724958800609      135.71835480685689
H          117.33567004133801      114.43349853294066      136.16744882279374
N          120.08791799932638      116.06953590660255      135.38407844786610
C          121.51599271952291      116.16944997430325      135.58652442723056
H          119.66587395292221      116.73933736003734      134.74672599999008
O          118.24835900453695      111.40483387819951      130.64505989503823
C          122.25551243596125      116.36117616200463      134.26421752902951
H          121.73419593128034      117.01869234559346      136.24503857772478
H          121.83416868344121      115.25568005122366      136.09381398342370
C          122.03113212808721      115.23454005226316      133.25595934251746
H          121.92047330888640      117.30066607639374      133.81945143771932
H          123.32209242319043      116.45844810543907      134.46857762174622
C          122.65225776546997      113.89996787768889      133.66428132339436
H          120.95885556262299      115.10098969301175      133.09985586299882
H          122.47906138153670      115.54395315769543      132.30787401888236
C          122.56593680180636      112.88468429409971      132.52564454146480
H          123.70149169123177      114.06027396633786      133.92077882360059
H          122.15036308417847      113.50529817509727      134.54955131820836
C          123.33389157047897      111.60069978728077      132.82732170406831
H          121.52285243679674      112.64127885684250      132.31457050815609
H          122.99003681588370      113.32613435563457      131.62056309335966
N          123.35962457825623      110.74047206051073      131.66504731851691
H          124.36179038860928      111.85162791343471      133.11935660289870
H          122.87759615869480      111.04103867801371      133.64839330653248
O          119.78771761935604      114.27741456237641      136.72682931191389
C          123.20264093736407      109.41410757834014      131.70477397253819
H          123.47410856409495      111.19792756446266      130.76344171058963
C          123.30068967741242      108.73873675418392      130.34765063708829
C          124.73420595204760      108.24539580058712      130.13005922784561
H          122.62269554203461      107.88561752770704      130.33243395028859
H          123.01808565102780      109.43931156652543      129.56229177819429
C          124.84994446774074      107.33874432874136      128.90461734835353
H          125.39152810105477      109.11008828166652      130.01705837673347
H          125.05355448542595      107.69500463209418      131.01854081325331
C          126.32223652571471      107.05191549013310      128.58169319604644
H          124.32378178446794      106.40130652944433      129.09588068070127
H          124.37239930364446      107.81764547969645      128.04729982073201
C          126.46084277003546      105.95686926488794      127.54417264134287
H          126.78653683388275      107.96241035439564      128.19756113758032
H          126.83623450128765      106.75553545065554      129.49674560995274
N          126.58378507184437      104.72634887809424      128.03495806722094
O          123.02610140046897      108.78401011087550      132.74504932084292
C          126.71464770299359      103.53670665039812      127.21946156848291
H          126.47007164706747      104.57937877196140      129.02579483780679
C          125.81561165222543      102.40733576104464      127.71408044577866
H          126.45115949549013      103.81933010557907      126.19818550708882
H          127.76134652716975      103.21206963424429      127.23179018463243
C          126.27333107109031      101.83067287067568      129.05477153304250
H          124.79945173427294      102.78781018691110      127.81296710786793
H          125.82533860364072      101.61722555791263      126.96216754343693
C          125.64268858927996      100.46945134172958      129.35961678295851
H          127.35803859020486      101.70110985020914      129.04310198700358
H          126.02804476055577      102.52318110845412      129.86099064055924
C          124.11587843921021      100.44302572562698      129.28377342624390
H          126.02762444147541       99.73549597834058      128.64809125380836
H          125.95332520079531      100.15651668283988      130.35853667303164
C          123.43890822657929      101.41358522575690      130.24426945355185
H          123.79371932786863      100.68852488667677      128.27106073827414
H          123.77049047240173       99.43122459954624      129.50847229188136
N          121.99959003066678      101.32285809658249      130.10060924247944
H          123.68864173384017      101.18891271351846      131.28523292324712
H          123.74919049125697      102.44288644607524      130.03365631366921
C          121.13143568059300      101.63008809631984      131.06859948598100
H          121.64613152481262      101.12653828960518      129.16922215838591
O          126.48971831792426      106.19427398821719      126.33322178235203
C          119.67717439344403      101.51551706696712      130.63597646231500
C          118.76776821432242      102.43465771231162      131.44717150190681
H          119.62554935002665      101.74144462407752      129.57220269814070
H          119.37506459609982      100.47496534089873      130.78155054133063
C          117.28955752370804      102.28853909189031      131.08816058057877
H          118.91024851207764      102.20889420871802      132.50592038113993
H          119.08276537968263      103.46689790728354      131.29295601954107
C          116.96656049264831      102.75940122045503      129.66280966324933
H          117.00032634870969      101.24032366109277      131.18140070955636
H          116.69912422467627      102.86584409274113      131.80190648003875
C          117.24193273934357      104.24215677887189      129.48834205952264
H          117.58481156366837      102.20953363800145      128.95363832990358
H          115.91711387666979      102.55634606727017      129.44568877229435
N          116.29690426182746      105.04321816435332      129.99093771302401
C          116.33979811364826      106.49215419109338      129.93800696020554
H          115.46018812777378      104.63435315281401      130.37803471897982
O          121.47057334209174      101.94406099657155      132.20816856899802
C          115.57165190053317      107.09355236725966      131.10931108239345
H          117.38875800353378      106.79777655085978      129.95467026580602
H          115.90957960219279      106.83546727596463      128.98967007947579
C          115.60351409811226      108.62048511911647      131.07772790014909
H          114.53269703916564      106.76038196661760      131.05686271462113
H          115.99347986932816      106.73379273784424      132.04988521086074
C          114.63834669685055      109.21698926994584      132.10204703548783
H          116.61511526981754      108.97659246733710      131.27561808187619
H          115.33414130092808      108.95385888072082      130.07498961565619
C          114.71020171405600      110.74297567764711      132.18297216185920
H          113.61942955033834      108.92172060180179      131.84274005408525
H          114.86253898790611      108.80525772201648      133.08759377763181
C          114.49393319918386      111.38895730750131      130.81706011268787
H          113.94486957702446      111.09661117858890      132.87652870799818
H          115.68157883050532      111.04659862163800      132.57656921122987
N          113.91679239849678      112.71711320880084      130.91569055300343
H          115.44853835019769      111.44063206175238      130.28039621828827
H          113.80196214034189      110.78497853128981      130.22182531627405
C          113.13471267844670      113.21617053027349      129.95790963268826
H          114.04723424000143      113.23326626682373      131.77833900370817
O          118.25551686324299      104.67044669199485      128.94371614793329
C          112.55001510288633      114.57754849437015      130.24590106341492
C          111.15570207519735      114.41505189551901      130.87265101661890
H          113.20686377230373      115.10841586735539      130.92919622543681
H          112.48299870296327      115.14513009947461      129.31663627078197
C          110.78475079125369      115.57164746654416      131.80095767313435
H          110.41749165610693      114.33300831087185      130.07362846715364
H          111.12807224663995      113.48686942094869      131.44886758206903
C          111.38034240399722      115.41730450358702      133.20623411775222
H          111.10037095610348      116.52404150167850      131.37300506494392
H          109.69867194312174      115.60146205542767      131.90730550245348
C          112.89252050994391      115.54833508782301      133.25398101911796
H          110.95840234750554      116.18656017704501      133.85442707222060
H          111.11882019656238      114.43751165427972      133.61073088234048
N          113.33216212362511      116.80986718010845      133.18133544477757
O          112.87793417388598      112.59473128062743      128.92361067710789
C          114.73699788317160      117.15438982343338      133.23857960494934
H          112.69075653672138      117.54396395944185      132.89545295621514
C          115.44993338068971      116.98860880333329      131.89309962169813
H          114.80971881171148      118.19035023627495      133.57282507949819
H          115.21003168666930      116.51041476248840      133.98411452773709
C          114.75663001018994      117.79914159112631      130.80338305782806
H          116.48234198940895      117.31634270555651      132.01319362973828
H          115.46272793310267      115.93121081773094      131.62103683352086
C          115.48858651120297      117.75380184129048      129.46240064296100
H          113.74269705577332      117.41918899083113      130.67045884302527
H          114.67693441753583      118.83234353450339      131.14310729120339
C          114.58403030482221      118.16094336637367      128.29776345571608
H          116.35379956649827      118.41845915404190      129.50115061902744
H          115.85551079161496      116.74102720040631      129.28323074781022
C          113.90785989887659      119.49651888819648      128.56608694940945
H          115.17302900928699      118.22848960226571      127.38088930386624
H          113.81246623332682      117.40675122180986      128.13654261016174
N          113.04052620898422      119.89620881586633      127.47535453402500
H          113.29691264610294      119.42552658946806      129.47290835303070
H          114.65820602047665      120.27682305531809      128.72134397708348
C          112.78033595243622      121.17531451007164      127.23374602070533
H          112.57172579026916      119.14337228050150      126.97529277591281
O          113.63999968641431      114.57962691133548      133.38687333244718
C          111.67627493223945      121.49226941436356      126.26152936842635
C          110.30497098347450      121.21963406687114      126.89095054041837
H          111.74948429870658      122.55015219783095      126.00319153567349
H          111.78712262948881      120.91089193545395      125.34785676044044
C          109.19454341099726      121.91651863814101      126.10890373951425
H          110.11522334128703      120.14603354094731      126.91944428130994
H          110.29494806745403      121.59105633941839      127.91963584032995
C          107.80294322371759      121.57908526423788      126.66214342435124
H          109.34266740390852      122.99687058666754      126.17649734281545
H          109.26474449563702      121.64166868983773      125.05461830235491
C          107.34769213037806      120.20674442085611      126.20331770007189
H          107.84692499636941      121.58919096855340      127.75344365684617
H          107.08438853805986      122.32886324841085      126.33073858761662
N          106.31396508059562      120.22817460603360      125.35331962798188
C          105.73110691196884      119.04589587079609      124.75726782232580
H          105.92263669263644      121.11488166682385      125.05729602395974
O          113.40625652954068      122.07625836911161      127.81231990747911
C          105.71537671412887      119.16388751332005      123.23683220719468
H          106.32874850388831      118.18964436887281      125.07948858246961
H          104.70828225082415      118.91791119621838      125.12968489988909
C          105.16137855464869      117.91284709333553      122.56462969372191
H          105.10761089616165      120.02636027837536      122.96659544405615
H          106.73072010956187      119.35084011373731      122.88350695621850
C          105.08539340944151      118.08698238050047      121.04819932414017
H          105.80213680641847      117.06680434024435      122.81494655207497
H          104.16387431116797      117.70800805603162      122.95698595688698
C          104.37990469206602      116.93146206317365      120.34421076132827
H          104.52861046515046      118.99944550059691      120.82512414434466
H          106.09498400011849      118.19628129357365      120.64805836845974
C          105.13751254433298      115.61025589707971      120.43907536740798
H          103.39147187737264      116.79343258227243      120.78476582186879
H          104.23605524176101      117.18728239481467      119.29329017790873
N          104.33190110329157      114.54157921558101      119.89543777980604
H          106.07410433224696      115.64520387310270      119.87886384793146
H          105.35991147568339      115.38225406345614      121.48589292552784
C          104.76347208614939      113.63328619327780      119.02481101903258
H          103.35895025243880      114.53610283640060      120.18177691799106
O          107.87765528580977      119.16361665908653      126.57318520104511
C          103.71874146973126      112.62222773666487      118.59867315468844
C          103.50308098152881      112.68840982100068      117.08677071228635
H          104.07932220386009      111.62597538244795      118.86179442364646
H          102.78449050509617      112.80591625355804      119.12700135652491
C          102.51194257536451      111.62882219344014      116.61960645979714
H          103.13436465203377      113.67960416630778      116.81382136321638
H          104.45929169035313      112.53376243369628      116.58246418621901
C          102.42939362646499      111.56435362022418      115.09411631469733
H          102.83604962827479      110.65437679662332      116.98562078292998
H          101.52183783390298      111.83543760748296      117.03163287983772
C          101.89202194302264      112.85620558799485      114.51402613726225
H          103.42353155557316      111.38059773015010      114.68078428443444
H          101.77237831763473      110.74225372676845      114.80436478487989
N          100.60624902376321      113.10876743982169      114.77408202985426
O          105.91789270047984      113.60144892443488      118.59850420790117
C           99.94133319366821      114.28036374256644      114.23751899386012
H          100.02326388571579      112.43407088652701      115.26411311348789
C           98.47156060345414      114.29161559201644      114.63280975335115
H          100.45804341327575      115.17163721792090      114.60669091840111
H          100.03930304522204      114.27927478301304      113.14465362023088
C           97.71008663240875      115.47017345712885      114.02567437544556
H           98.01772915572271      113.35763301122904      114.29769193977607
H           98.38727067841769      114.31909047593619      115.72029829021125
C           98.07168126276343      116.80906551325144      114.66790421428098
H           97.90750223389824      115.50858123868244      112.95373133298473
H           96.63977153867907      115.30148707428745      114.15685993517026
C           97.32148372151774      117.98591425968004      114.04255313082119
H           97.82804139519186      116.75918283955781      115.73128305855802
H           99.14366042561828      116.98686670633839      114.57137748335455
C           97.90364468850055      118.40953925851798      112.69481173853660
H           96.27198234492130      117.72581147146182      113.89957156724161
H           97.35842032411539      118.84398180947042      114.71844911563517
N           97.04757678771686      119.40061242758688      112.05584269041219
H           98.93603676803242      118.77137436718138      112.84291926251750
H           97.95006869955154      117.55090826458033      112.01955909231636
H           97.49852099689710      119.71548327520797      111.20107921382812
H           96.96263455177410      120.21267000634336      112.65924491584788
O          102.58367249122639      113.62904703923608      113.85214471242830
C          117.00529931132439       95.10750460411322      115.62703691519428
C          118.25531903715883       95.95286160657258      115.59568794895925
C          116.13560653886601       95.48674667733209      116.82809034259051
C          116.75225230658479       95.03023299032192      118.14678226206371
H          116.02778094933083       96.57283039815098      116.83732367656999
H          115.14602088613550       95.04180677376847      116.72213189011285
C          115.85753538594065       95.38966339241759      119.34004059942798
H          116.89649843541991       93.94855514622661      118.12919900487664
H          117.73299494004152       95.49416771413119      118.27261497719169
C          115.67644560152843       96.89445845056349      119.42380774068519
H          114.88704712508974       94.90829479938283      119.22476864241744
H          116.32738900223136       95.04126074562909      120.26084159395015
N          114.54955585906333       97.34828273341387      118.87453013004578
O          119.35884380897782       95.25402114217641      115.65847781879005
O          118.23291604596614       97.16823871093476      115.50595318371157
H          120.19308340426154       95.81828751920449      115.56110714600518
H          117.28953787648368       94.05702671200653      115.66356064262564
H          116.44950968296972       95.30065037482146      114.70723165834265
C          114.21772388201470       98.75415160495263      118.75544298472778
H          113.93080933720528       96.69452276591156      118.40132484743350
C          112.71541695441003       98.91019633569356      118.55058103143837
H          114.56254708516880       99.26667740580376      119.65722024992691
H          114.75808828409981       99.18032230198799      117.89964259648127
C          112.29167258083967      100.32101333705933      118.14641995255793
H          112.42142662690995       98.22050560927526      117.75790363764756
H          112.19604175202217       98.61368806308515      119.46298448760261
C          112.29362724149210      101.32358318603139      119.29761302083674
H          112.94990210114057      100.67388411133417      117.35219124916249
H          111.27456191460426      100.26685518619570      117.75097019633226
C          111.81317861713913      102.70546987240566      118.85223650460701
H          111.62839743919099      100.96169808266117      120.08296551947601
H          113.29233049855391      101.40928661677029      119.72874280033652
C          112.86566854506452      103.43493741420639      118.02110283805206
H          110.88584446142430      102.60160819272936      118.28709963812166
H          111.60030514305575      103.30100800091199      119.73827261347232
N          112.57851470393817      104.84707374914376      117.86930471869378
H          113.83311993855212      103.33671105045329      118.52240976553142
H          112.94434440755714      103.01491932290476      117.01824316366728