      -----------------------------------------------------------      
     |                   =====================                   |     
     |                           x T B                           |     
     |                   =====================                   |     
     |                         S. Grimme                         |     
     |          Mulliken Center for Theoretical Chemistry        |     
     |                    University of Bonn                     |     
      -----------------------------------------------------------      

   * xtb version 6.6.1 (8d0f1dd) compiled by 'stahn@M-Bot' on 2023-08-01

   xtb is free software: you can redistribute it and/or modify it under
   the terms of the GNU Lesser General Public License as published by
   the Free Software Foundation, either version 3 of the License, or
   (at your option) any later version.
   
   xtb is distributed in the hope that it will be useful,
   but WITHOUT ANY WARRANTY; without even the implied warranty of
   MERCHANTABILITY or FITNESS FOR A PARTICULAR PURPOSE.  See the
   GNU Lesser General Public License for more details.
   
   Cite this work as:
   * C. Bannwarth, E. Caldeweyher, S. Ehlert, A. Hansen, P. Pracht,
     J. Seibert, S. Spicher, S. Grimme, WIREs Comput. Mol. Sci., 2020, 11,
     e01493. DOI: 10.1002/wcms.1493
   
   for GFN2-xTB:
   * C. Bannwarth, S. Ehlert and S. Grimme., J. Chem. Theory Comput., 2019,
     15, 1652-1671. DOI: 10.1021/acs.jctc.8b01176
   for GFN1-xTB:
   * S. Grimme, C. Bannwarth, P. Shushkov, J. Chem. Theory Comput., 2017,
     13, 1989-2009. DOI: 10.1021/acs.jctc.7b00118
   for GFN0-xTB:
   * P. Pracht, E. Caldeweyher, S. Ehlert, S. Grimme, ChemRxiv, 2019, preprint.
     DOI: 10.26434/chemrxiv.8326202.v1
   for GFN-FF:
   * S. Spicher and S. Grimme, Angew. Chem. Int. Ed., 2020, 59, 15665-15673.
     DOI: 10.1002/anie.202004239
   
   for ALPB and GBSA implicit solvation:
   * S. Ehlert, M. Stahn, S. Spicher, S. Grimme, J. Chem. Theory Comput.,
     2021, 17, 4250-4261. DOI: 10.1021/acs.jctc.1c00471
   
   for DFT-D4:
   * E. Caldeweyher, C. Bannwarth and S. Grimme, J. Chem. Phys., 2017,
     147, 034112. DOI: 10.1063/1.4993215
   * E. Caldeweyher, S. Ehlert, A. Hansen, H. Neugebauer, S. Spicher,
     C. Bannwarth and S. Grimme, J. Chem. Phys., 2019, 150, 154122.
     DOI: 10.1063/1.5090222
   * E. Caldeweyher, J.-M. Mewes, S. Ehlert and S. Grimme, Phys. Chem. Chem. Phys.
     2020, 22, 8499-8512. DOI: 10.1039/D0CP00502A
   
   for sTDA-xTB:
   * S. Grimme and C. Bannwarth, J. Chem. Phys., 2016, 145, 054103.
     DOI: 10.1063/1.4959605
   
   in the mass-spec context:
   * V. Asgeirsson, C. Bauer and S. Grimme, Chem. Sci., 2017, 8, 4879.
     DOI: 10.1039/c7sc00601b
   * J. Koopman and S. Grimme, ACS Omega 2019, 4, 12, 15120-15133.
     DOI: 10.1021/acsomega.9b02011
   
   for metadynamics refer to:
   * S. Grimme, J. Chem. Theory Comput., 2019, 155, 2847-2862
     DOI: 10.1021/acs.jctc.9b00143
   
   for SPH calculations refer to:
   * S. Spicher and S. Grimme, J. Chem. Theory Comput., 2021, 17, 1701-1714
     DOI: 10.1021/acs.jctc.0c01306
   
   with help from (in alphabetical order)
   P. Atkinson, C. Bannwarth, F. Bohle, G. Brandenburg, E. Caldeweyher
   M. Checinski, S. Dohm, S. Ehlert, S. Ehrlich, I. Gerasimov, C. Hölzer
   A. Katbashev, J. Koopman, C. Lavigne, S. Lehtola, F. März, M. Müller,
   F. Musil, H. Neugebauer, J. Pisarek, C. Plett, P. Pracht, F. Pultar,
   J. Seibert, P. Shushkov, S. Spicher, M. Stahn, M. Steiner, T. Strunk,
   J. Stückrath, T. Rose, and J. Unsleber
   
 * started run on 2024/10/09 at 00:26:29.199     

           -------------------------------------------------
          |                Calculation Setup                |
           -------------------------------------------------

          program call               : /home/abt-grimme/AK-bin/xtb input.xyz --input input.inp --opt
          hostname                   : boar063.thch.uni-bonn.de
          coordinate file            : input.xyz
          omp threads                :                     8

   ID    Z sym.   atoms
    1    6 C      1-4, 7, 10, 19, 21, 24, 27, 30, 33, 39, 42, 43, 46, 49, 52,
                  56, 59, 62, 65, 68, 71, 75, 78, 79, 82, 85, 88, 92, 98,
                  101, 104, 107, 110, 116, 118, 119, 122, 125, 128, 132, 135,
                  138, 141, 144, 147, 154, 156, 157, 160, 163, 166, 171, 173,
                  176, 179, 182, 185, 191, 194, 195, 198, 201, 204, 208, 211,
                  214, 217, 220, 223, 229, 232, 233, 236, 239, 242, 247, 249,
                  252, 255, 258, 261, 267, 270, 271, 274, 277, 280, 284, 287,
                  290, 293, 296, 299, 305, 308, 309, 312, 315, 318, 323, 325,
                  328, 331, 334, 337, 346-349, 352, 355, 364, 366, 369, 372,
                  375, 378, 384, 387, 388, 391, 394, 397, 401, 404, 407, 410,
                  413, 416, 420, 423, 424, 427, 430, 433, 437, 443, 446, 449,
                  452, 455, 461, 463, 464, 467, 470, 473, 477, 480, 483, 486,
                  489, 492, 499, 501, 502, 505, 508, 511, 516, 518, 521, 524,
                  527, 530, 536, 539, 540, 543, 546, 549, 553, 556, 559, 562,
                  565, 568, 574, 577, 578, 581, 584, 587, 592, 594, 597, 600,
                  603, 606, 612, 615, 616, 619, 622, 625, 629, 632, 635, 638,
                  641, 644, 650, 653, 654, 657, 660, 663, 668, 670, 673, 676,
                  679, 682, 691-694, 697, 700, 709, 711, 714, 717, 720, 723,
                  729, 732, 733, 736, 739, 742, 746, 749, 752, 755, 758, 761,
                  765, 768, 769, 772, 775, 778, 782, 788, 791, 794, 797, 800,
                  806, 808, 809, 812, 815, 818, 822, 825, 828, 831, 834, 837,
                  844, 846, 847, 850, 853, 856, 861, 863, 866, 869, 872, 875,
                  881, 884, 885, 888, 891, 894, 898, 901, 904, 907, 910, 913,
                  919, 922, 923, 926, 929, 932, 937, 939, 942, 945, 948, 951,
                  957, 960, 961, 964, 967, 970, 974, 977, 980, 983, 986, 989,
                  995, 998, 999, 1002, 1005, 1008, 1013, 1015, 1018, 1021,
                  1024, 1027, 1036-1039, 1042, 1045, 1054, 1056, 1059, 1062,
                  1065, 1068, 1074, 1077, 1078, 1081, 1084, 1087, 1091, 1094,
                  1097, 1100, 1103, 1106, 1110, 1113, 1114, 1117, 1120, 1123,
                  1127, 1133, 1136, 1139, 1142, 1145, 1151, 1153, 1154, 1157,
                  1160, 1163, 1167, 1170, 1173, 1176, 1179, 1182, 1189, 1191,
                  1192, 1195, 1198, 1201, 1206, 1208, 1211, 1214, 1217, 1220,
                  1226, 1229, 1230, 1233, 1236, 1239, 1243, 1246, 1249, 1252,
                  1255, 1258, 1264, 1267, 1268, 1271, 1274, 1277, 1282, 1284,
                  1287, 1290, 1293, 1296, 1302, 1305, 1306, 1309, 1312, 1315,
                  1319, 1322, 1325, 1328, 1331, 1334, 1340, 1343, 1344, 1347,
                  1350, 1353, 1358, 1360, 1363, 1366, 1369, 1372, 1381-1384,
                  1387, 1390, 1399, 1401, 1404, 1407, 1410, 1413, 1419, 1422,
                  1423, 1426, 1429, 1432, 1436, 1439, 1442, 1445, 1448, 1451,
                  1455, 1458, 1459, 1462, 1465, 1468, 1472, 1478, 1481, 1484,
                  1487, 1490, 1496, 1498, 1499, 1502, 1505, 1508, 1512, 1515,
                  1518, 1521, 1524, 1527, 1534, 1536, 1537, 1540, 1543, 1546,
                  1551, 1553, 1556, 1559, 1562, 1565, 1571, 1574, 1575, 1578,
                  1581, 1584, 1588, 1591, 1594, 1597, 1600, 1603, 1609, 1612,
                  1613, 1616, 1619, 1622, 1627, 1629, 1632, 1635, 1638, 1641,
                  1647, 1650, 1651, 1654, 1657, 1660, 1664, 1667, 1670, 1673,
                  1676, 1679, 1685, 1688, 1689, 1692, 1695, 1698, 1703, 1705,
                  1708, 1711, 1714, 1717, 1726-1729, 1732, 1735, 1744, 1746,
                  1749, 1752, 1755, 1758, 1764, 1767, 1768, 1771, 1774, 1777,
                  1781, 1784, 1787, 1790, 1793, 1796, 1800, 1803, 1804, 1807,
                  1810, 1813, 1817, 1823, 1826, 1829, 1832, 1835, 1841, 1843,
                  1844, 1847, 1850, 1853, 1857, 1860, 1863, 1866, 1869, 1872,
                  1879, 1881, 1882, 1885, 1888, 1891, 1896, 1898, 1901, 1904,
                  1907, 1910, 1916, 1919, 1920, 1923, 1926, 1929, 1933, 1936,
                  1939, 1942, 1945, 1948, 1954, 1957, 1958, 1961, 1964, 1967,
                  1972, 1974, 1977, 1980, 1983, 1986, 1992, 1995, 1996, 1999,
                  2002, 2005, 2009, 2012, 2015, 2018, 2021, 2024, 2030, 2033,
                  2034, 2037, 2040, 2043, 2048, 2050, 2053, 2056, 2059, 2062,
                  2071-2074, 2077, 2080, 2089, 2091, 2094, 2097, 2100, 2103,
                  2109, 2112, 2113, 2116, 2119, 2122, 2126, 2129, 2132, 2135,
                  2138, 2141, 2145, 2148, 2149, 2152, 2155, 2158, 2162, 2168,
                  2171, 2174, 2177, 2180, 2186, 2188, 2189, 2192, 2195, 2198,
                  2202, 2205, 2208, 2211, 2214, 2217, 2224, 2226, 2227, 2230,
                  2233, 2236, 2241, 2243, 2246, 2249, 2252, 2255, 2261, 2264,
                  2265, 2268, 2271, 2274, 2278, 2281, 2284, 2287, 2290, 2293,
                  2299, 2302, 2303, 2306, 2309, 2312, 2317, 2319, 2322, 2325,
                  2328, 2331, 2337, 2340, 2341, 2344, 2347, 2350, 2354, 2357,
                  2360, 2363, 2366, 2369, 2375, 2378, 2379, 2382, 2385, 2388,
                  2393, 2395, 2398, 2401, 2404, 2407, 2416-2419, 2422, 2425,
                  2434, 2436, 2439, 2442, 2445, 2448, 2454, 2457, 2458, 2461,
                  2464, 2467, 2471, 2474, 2477, 2480, 2483, 2486, 2490, 2493,
                  2494, 2497, 2500, 2503, 2507, 2513, 2516, 2519, 2522, 2525,
                  2531, 2533, 2534, 2537, 2540, 2543, 2547, 2550, 2553, 2556,
                  2559, 2562, 2569, 2571, 2572, 2575, 2578, 2581, 2586, 2588,
                  2591, 2594, 2597, 2600, 2606, 2609, 2610, 2613, 2616, 2619,
                  2623, 2626, 2629, 2632, 2635, 2638, 2644, 2647, 2648, 2651,
                  2654, 2657, 2662, 2664, 2667, 2670, 2673, 2676, 2682, 2685,
                  2686, 2689, 2692, 2695, 2699, 2702, 2705, 2708, 2711, 2714,
                  2720, 2723, 2724, 2727, 2730, 2733, 2738, 2740, 2743, 2746,
                  2749, 2752, 2761-2764, 2767, 2770, 2779, 2781, 2784, 2787,
                  2790, 2793, 2799, 2802, 2803, 2806, 2809, 2812, 2816, 2819,
                  2822, 2825, 2828, 2831, 2835, 2838, 2839, 2842, 2845, 2848,
                  2852, 2858, 2861, 2864, 2867, 2870, 2876, 2878, 2879, 2882,
                  2885, 2888, 2892, 2895, 2898, 2901, 2904, 2907, 2914, 2916,
                  2917, 2920, 2923, 2926, 2931, 2933, 2936, 2939, 2942, 2945,
                  2951, 2954, 2955, 2958, 2961, 2964, 2968, 2971, 2974, 2977,
                  2980, 2983, 2989, 2992, 2993, 2996, 2999, 3002, 3007, 3009,
                  3012, 3015, 3018, 3021, 3027, 3030, 3031, 3034, 3037, 3040,
                  3044, 3047, 3050, 3053, 3056, 3059, 3065, 3068, 3069, 3072,
                  3075, 3078, 3083, 3085, 3088, 3091, 3094, 3097, 3106-3109,
                  3112, 3115, 3124, 3126, 3129, 3132, 3135, 3138, 3144, 3147,
                  3148, 3151, 3154, 3157, 3161, 3164, 3167, 3170, 3173, 3176,
                  3180, 3183, 3184, 3187, 3190, 3193, 3197, 3203, 3206, 3209,
                  3212, 3215, 3221, 3223, 3224, 3227, 3230, 3233, 3237, 3240,
                  3243, 3246, 3249, 3252, 3259, 3261, 3262, 3265, 3268, 3271,
                  3276, 3278, 3281, 3284, 3287, 3290, 3296, 3299, 3300, 3303,
                  3306, 3309, 3313, 3316, 3319, 3322, 3325, 3328, 3334, 3337,
                  3338, 3341, 3344, 3347, 3352, 3354, 3357, 3360, 3363, 3366,
                  3372, 3375, 3376, 3379, 3382, 3385, 3389, 3392, 3395, 3398,
                  3401, 3404, 3410, 3413, 3414, 3417, 3420, 3423, 3428, 3430,
                  3433, 3436, 3439, 3442, 3451-3454, 3457, 3460, 3469, 3471,
                  3474, 3477, 3480, 3483, 3489, 3492, 3493, 3496, 3499, 3502,
                  3506, 3509, 3512, 3515, 3518, 3521, 3525, 3528, 3529, 3532,
                  3535, 3538, 3542, 3548, 3551, 3554, 3557, 3560, 3566, 3568,
                  3569, 3572, 3575, 3578, 3582, 3585, 3588, 3591, 3594, 3597,
                  3604, 3606, 3607, 3610, 3613, 3616, 3621, 3623, 3626, 3629,
                  3632, 3635, 3641, 3644, 3645, 3648, 3651, 3654, 3658, 3661,
                  3664, 3667, 3670, 3673, 3679, 3682, 3683, 3686, 3689, 3692,
                  3697, 3699, 3702, 3705, 3708, 3711, 3717, 3720, 3721, 3724,
                  3727, 3730, 3734, 3737, 3740, 3743, 3746, 3749, 3755, 3758,
                  3759, 3762, 3765, 3768, 3773, 3775, 3778, 3781, 3784, 3787
    2    1 H      5, 6, 8, 9, 11, 12, 16-18, 20, 22, 23, 25, 26, 28, 29, 31,
                  32, 34, 35, 37, 38, 40, 44, 45, 47, 48, 50, 51, 53, 54, 57,
                  60, 61, 63, 64, 66, 67, 69, 70, 73, 74, 76, 80, 81, 83, 84,
                  86, 87, 89, 90, 93-95, 99, 100, 102, 103, 105, 106, 108,
                  109, 111, 112, 114, 115, 117, 120, 121, 123, 124, 126, 127,
                  129, 130, 133, 136, 137, 139, 140, 142, 143, 145, 146, 148,
                  149, 151, 152, 155, 158, 159, 161, 162, 164, 165, 167, 168,
                  172, 174, 175, 177, 178, 180, 181, 183, 184, 186, 187, 189,
                  190, 192, 196, 197, 199, 200, 202, 203, 205, 206, 209, 212,
                  213, 215, 216, 218, 219, 221, 222, 224, 225, 227, 228, 230,
                  234, 235, 237, 238, 240, 241, 243, 244, 248, 250, 251, 253,
                  254, 256, 257, 259, 260, 262, 263, 265, 266, 268, 272, 273,
                  275, 276, 278, 279, 281, 282, 285, 288, 289, 291, 292, 294,
                  295, 297, 298, 300, 301, 303, 304, 306, 310, 311, 313, 314,
                  316, 317, 319, 320, 324, 326, 327, 329, 330, 332, 333, 335,
                  336, 338, 339, 341-344, 350, 351, 353, 354, 356, 357,
                  361-363, 365, 367, 368, 370, 371, 373, 374, 376, 377, 379,
                  380, 382, 383, 385, 389, 390, 392, 393, 395, 396, 398, 399,
                  402, 405, 406, 408, 409, 411, 412, 414, 415, 418, 419, 421,
                  425, 426, 428, 429, 431, 432, 434, 435, 438-440, 444, 445,
                  447, 448, 450, 451, 453, 454, 456, 457, 459, 460, 462, 465,
                  466, 468, 469, 471, 472, 474, 475, 478, 481, 482, 484, 485,
                  487, 488, 490, 491, 493, 494, 496, 497, 500, 503, 504, 506,
                  507, 509, 510, 512, 513, 517, 519, 520, 522, 523, 525, 526,
                  528, 529, 531, 532, 534, 535, 537, 541, 542, 544, 545, 547,
                  548, 550, 551, 554, 557, 558, 560, 561, 563, 564, 566, 567,
                  569, 570, 572, 573, 575, 579, 580, 582, 583, 585, 586, 588,
                  589, 593, 595, 596, 598, 599, 601, 602, 604, 605, 607, 608,
                  610, 611, 613, 617, 618, 620, 621, 623, 624, 626, 627, 630,
                  633, 634, 636, 637, 639, 640, 642, 643, 645, 646, 648, 649,
                  651, 655, 656, 658, 659, 661, 662, 664, 665, 669, 671, 672,
                  674, 675, 677, 678, 680, 681, 683, 684, 686-689, 695, 696,
                  698, 699, 701, 702, 706-708, 710, 712, 713, 715, 716, 718,
                  719, 721, 722, 724, 725, 727, 728, 730, 734, 735, 737, 738,
                  740, 741, 743, 744, 747, 750, 751, 753, 754, 756, 757, 759,
                  760, 763, 764, 766, 770, 771, 773, 774, 776, 777, 779, 780,
                  783-785, 789, 790, 792, 793, 795, 796, 798, 799, 801, 802,
                  804, 805, 807, 810, 811, 813, 814, 816, 817, 819, 820, 823,
                  826, 827, 829, 830, 832, 833, 835, 836, 838, 839, 841, 842,
                  845, 848, 849, 851, 852, 854, 855, 857, 858, 862, 864, 865,
                  867, 868, 870, 871, 873, 874, 876, 877, 879, 880, 882, 886,
                  887, 889, 890, 892, 893, 895, 896, 899, 902, 903, 905, 906,
                  908, 909, 911, 912, 914, 915, 917, 918, 920, 924, 925, 927,
                  928, 930, 931, 933, 934, 938, 940, 941, 943, 944, 946, 947,
                  949, 950, 952, 953, 955, 956, 958, 962, 963, 965, 966, 968,
                  969, 971, 972, 975, 978, 979, 981, 982, 984, 985, 987, 988,
                  990, 991, 993, 994, 996, 1000, 1001, 1003, 1004, 1006,
                  1007, 1009, 1010, 1014, 1016, 1017, 1019, 1020, 1022, 1023,
                  1025, 1026, 1028, 1029, 1031-1034, 1040, 1041, 1043, 1044,
                  1046, 1047, 1051-1053, 1055, 1057, 1058, 1060, 1061, 1063,
                  1064, 1066, 1067, 1069, 1070, 1072, 1073, 1075, 1079, 1080,
                  1082, 1083, 1085, 1086, 1088, 1089, 1092, 1095, 1096, 1098,
                  1099, 1101, 1102, 1104, 1105, 1108, 1109, 1111, 1115, 1116,
                  1118, 1119, 1121, 1122, 1124, 1125, 1128-1130, 1134, 1135,
                  1137, 1138, 1140, 1141, 1143, 1144, 1146, 1147, 1149, 1150,
                  1152, 1155, 1156, 1158, 1159, 1161, 1162, 1164, 1165, 1168,
                  1171, 1172, 1174, 1175, 1177, 1178, 1180, 1181, 1183, 1184,
                  1186, 1187, 1190, 1193, 1194, 1196, 1197, 1199, 1200, 1202,
                  1203, 1207, 1209, 1210, 1212, 1213, 1215, 1216, 1218, 1219,
                  1221, 1222, 1224, 1225, 1227, 1231, 1232, 1234, 1235, 1237,
                  1238, 1240, 1241, 1244, 1247, 1248, 1250, 1251, 1253, 1254,
                  1256, 1257, 1259, 1260, 1262, 1263, 1265, 1269, 1270, 1272,
                  1273, 1275, 1276, 1278, 1279, 1283, 1285, 1286, 1288, 1289,
                  1291, 1292, 1294, 1295, 1297, 1298, 1300, 1301, 1303, 1307,
                  1308, 1310, 1311, 1313, 1314, 1316, 1317, 1320, 1323, 1324,
                  1326, 1327, 1329, 1330, 1332, 1333, 1335, 1336, 1338, 1339,
                  1341, 1345, 1346, 1348, 1349, 1351, 1352, 1354, 1355, 1359,
                  1361, 1362, 1364, 1365, 1367, 1368, 1370, 1371, 1373, 1374,
                  1376-1379, 1385, 1386, 1388, 1389, 1391, 1392, 1396-1398,
                  1400, 1402, 1403, 1405, 1406, 1408, 1409, 1411, 1412, 1414,
                  1415, 1417, 1418, 1420, 1424, 1425, 1427, 1428, 1430, 1431,
                  1433, 1434, 1437, 1440, 1441, 1443, 1444, 1446, 1447, 1449,
                  1450, 1453, 1454, 1456, 1460, 1461, 1463, 1464, 1466, 1467,
                  1469, 1470, 1473-1475, 1479, 1480, 1482, 1483, 1485, 1486,
                  1488, 1489, 1491, 1492, 1494, 1495, 1497, 1500, 1501, 1503,
                  1504, 1506, 1507, 1509, 1510, 1513, 1516, 1517, 1519, 1520,
                  1522, 1523, 1525, 1526, 1528, 1529, 1531, 1532, 1535, 1538,
                  1539, 1541, 1542, 1544, 1545, 1547, 1548, 1552, 1554, 1555,
                  1557, 1558, 1560, 1561, 1563, 1564, 1566, 1567, 1569, 1570,
                  1572, 1576, 1577, 1579, 1580, 1582, 1583, 1585, 1586, 1589,
                  1592, 1593, 1595, 1596, 1598, 1599, 1601, 1602, 1604, 1605,
                  1607, 1608, 1610, 1614, 1615, 1617, 1618, 1620, 1621, 1623,
                  1624, 1628, 1630, 1631, 1633, 1634, 1636, 1637, 1639, 1640,
                  1642, 1643, 1645, 1646, 1648, 1652, 1653, 1655, 1656, 1658,
                  1659, 1661, 1662, 1665, 1668, 1669, 1671, 1672, 1674, 1675,
                  1677, 1678, 1680, 1681, 1683, 1684, 1686, 1690, 1691, 1693,
                  1694, 1696, 1697, 1699, 1700, 1704, 1706, 1707, 1709, 1710,
                  1712, 1713, 1715, 1716, 1718, 1719, 1721-1724, 1730, 1731,
                  1733, 1734, 1736, 1737, 1741-1743, 1745, 1747, 1748, 1750,
                  1751, 1753, 1754, 1756, 1757, 1759, 1760, 1762, 1763, 1765,
                  1769, 1770, 1772, 1773, 1775, 1776, 1778, 1779, 1782, 1785,
                  1786, 1788, 1789, 1791, 1792, 1794, 1795, 1798, 1799, 1801,
                  1805, 1806, 1808, 1809, 1811, 1812, 1814, 1815, 1818-1820,
                  1824, 1825, 1827, 1828, 1830, 1831, 1833, 1834, 1836, 1837,
                  1839, 1840, 1842, 1845, 1846, 1848, 1849, 1851, 1852, 1854,
                  1855, 1858, 1861, 1862, 1864, 1865, 1867, 1868, 1870, 1871,
                  1873, 1874, 1876, 1877, 1880, 1883, 1884, 1886, 1887, 1889,
                  1890, 1892, 1893, 1897, 1899, 1900, 1902, 1903, 1905, 1906,
                  1908, 1909, 1911, 1912, 1914, 1915, 1917, 1921, 1922, 1924,
                  1925, 1927, 1928, 1930, 1931, 1934, 1937, 1938, 1940, 1941,
                  1943, 1944, 1946, 1947, 1949, 1950, 1952, 1953, 1955, 1959,
                  1960, 1962, 1963, 1965, 1966, 1968, 1969, 1973, 1975, 1976,
                  1978, 1979, 1981, 1982, 1984, 1985, 1987, 1988, 1990, 1991,
                  1993, 1997, 1998, 2000, 2001, 2003, 2004, 2006, 2007, 2010,
                  2013, 2014, 2016, 2017, 2019, 2020, 2022, 2023, 2025, 2026,
                  2028, 2029, 2031, 2035, 2036, 2038, 2039, 2041, 2042, 2044,
                  2045, 2049, 2051, 2052, 2054, 2055, 2057, 2058, 2060, 2061,
                  2063, 2064, 2066-2069, 2075, 2076, 2078, 2079, 2081, 2082,
                  2086-2088, 2090, 2092, 2093, 2095, 2096, 2098, 2099, 2101,
                  2102, 2104, 2105, 2107, 2108, 2110, 2114, 2115, 2117, 2118,
                  2120, 2121, 2123, 2124, 2127, 2130, 2131, 2133, 2134, 2136,
                  2137, 2139, 2140, 2143, 2144, 2146, 2150, 2151, 2153, 2154,
                  2156, 2157, 2159, 2160, 2163-2165, 2169, 2170, 2172, 2173,
                  2175, 2176, 2178, 2179, 2181, 2182, 2184, 2185, 2187, 2190,
                  2191, 2193, 2194, 2196, 2197, 2199, 2200, 2203, 2206, 2207,
                  2209, 2210, 2212, 2213, 2215, 2216, 2218, 2219, 2221, 2222,
                  2225, 2228, 2229, 2231, 2232, 2234, 2235, 2237, 2238, 2242,
                  2244, 2245, 2247, 2248, 2250, 2251, 2253, 2254, 2256, 2257,
                  2259, 2260, 2262, 2266, 2267, 2269, 2270, 2272, 2273, 2275,
                  2276, 2279, 2282, 2283, 2285, 2286, 2288, 2289, 2291, 2292,
                  2294, 2295, 2297, 2298, 2300, 2304, 2305, 2307, 2308, 2310,
                  2311, 2313, 2314, 2318, 2320, 2321, 2323, 2324, 2326, 2327,
                  2329, 2330, 2332, 2333, 2335, 2336, 2338, 2342, 2343, 2345,
                  2346, 2348, 2349, 2351, 2352, 2355, 2358, 2359, 2361, 2362,
                  2364, 2365, 2367, 2368, 2370, 2371, 2373, 2374, 2376, 2380,
                  2381, 2383, 2384, 2386, 2387, 2389, 2390, 2394, 2396, 2397,
                  2399, 2400, 2402, 2403, 2405, 2406, 2408, 2409, 2411-2414,
                  2420, 2421, 2423, 2424, 2426, 2427, 2431-2433, 2435, 2437,
                  2438, 2440, 2441, 2443, 2444, 2446, 2447, 2449, 2450, 2452,
                  2453, 2455, 2459, 2460, 2462, 2463, 2465, 2466, 2468, 2469,
                  2472, 2475, 2476, 2478, 2479, 2481, 2482, 2484, 2485, 2488,
                  2489, 2491, 2495, 2496, 2498, 2499, 2501, 2502, 2504, 2505,
                  2508-2510, 2514, 2515, 2517, 2518, 2520, 2521, 2523, 2524,
                  2526, 2527, 2529, 2530, 2532, 2535, 2536, 2538, 2539, 2541,
                  2542, 2544, 2545, 2548, 2551, 2552, 2554, 2555, 2557, 2558,
                  2560, 2561, 2563, 2564, 2566, 2567, 2570, 2573, 2574, 2576,
                  2577, 2579, 2580, 2582, 2583, 2587, 2589, 2590, 2592, 2593,
                  2595, 2596, 2598, 2599, 2601, 2602, 2604, 2605, 2607, 2611,
                  2612, 2614, 2615, 2617, 2618, 2620, 2621, 2624, 2627, 2628,
                  2630, 2631, 2633, 2634, 2636, 2637, 2639, 2640, 2642, 2643,
                  2645, 2649, 2650, 2652, 2653, 2655, 2656, 2658, 2659, 2663,
                  2665, 2666, 2668, 2669, 2671, 2672, 2674, 2675, 2677, 2678,
                  2680, 2681, 2683, 2687, 2688, 2690, 2691, 2693, 2694, 2696,
                  2697, 2700, 2703, 2704, 2706, 2707, 2709, 2710, 2712, 2713,
                  2715, 2716, 2718, 2719, 2721, 2725, 2726, 2728, 2729, 2731,
                  2732, 2734, 2735, 2739, 2741, 2742, 2744, 2745, 2747, 2748,
                  2750, 2751, 2753, 2754, 2756-2759, 2765, 2766, 2768, 2769,
                  2771, 2772, 2776-2778, 2780, 2782, 2783, 2785, 2786, 2788,
                  2789, 2791, 2792, 2794, 2795, 2797, 2798, 2800, 2804, 2805,
                  2807, 2808, 2810, 2811, 2813, 2814, 2817, 2820, 2821, 2823,
                  2824, 2826, 2827, 2829, 2830, 2833, 2834, 2836, 2840, 2841,
                  2843, 2844, 2846, 2847, 2849, 2850, 2853-2855, 2859, 2860,
                  2862, 2863, 2865, 2866, 2868, 2869, 2871, 2872, 2874, 2875,
                  2877, 2880, 2881, 2883, 2884, 2886, 2887, 2889, 2890, 2893,
                  2896, 2897, 2899, 2900, 2902, 2903, 2905, 2906, 2908, 2909,
                  2911, 2912, 2915, 2918, 2919, 2921, 2922, 2924, 2925, 2927,
                  2928, 2932, 2934, 2935, 2937, 2938, 2940, 2941, 2943, 2944,
                  2946, 2947, 2949, 2950, 2952, 2956, 2957, 2959, 2960, 2962,
                  2963, 2965, 2966, 2969, 2972, 2973, 2975, 2976, 2978, 2979,
                  2981, 2982, 2984, 2985, 2987, 2988, 2990, 2994, 2995, 2997,
                  2998, 3000, 3001, 3003, 3004, 3008, 3010, 3011, 3013, 3014,
                  3016, 3017, 3019, 3020, 3022, 3023, 3025, 3026, 3028, 3032,
                  3033, 3035, 3036, 3038, 3039, 3041, 3042, 3045, 3048, 3049,
                  3051, 3052, 3054, 3055, 3057, 3058, 3060, 3061, 3063, 3064,
                  3066, 3070, 3071, 3073, 3074, 3076, 3077, 3079, 3080, 3084,
                  3086, 3087, 3089, 3090, 3092, 3093, 3095, 3096, 3098, 3099,
                  3101-3104, 3110, 3111, 3113, 3114, 3116, 3117, 3121-3123,
                  3125, 3127, 3128, 3130, 3131, 3133, 3134, 3136, 3137, 3139,
                  3140, 3142, 3143, 3145, 3149, 3150, 3152, 3153, 3155, 3156,
                  3158, 3159, 3162, 3165, 3166, 3168, 3169, 3171, 3172, 3174,
                  3175, 3178, 3179, 3181, 3185, 3186, 3188, 3189, 3191, 3192,
                  3194, 3195, 3198-3200, 3204, 3205, 3207, 3208, 3210, 3211,
                  3213, 3214, 3216, 3217, 3219, 3220, 3222, 3225, 3226, 3228,
                  3229, 3231, 3232, 3234, 3235, 3238, 3241, 3242, 3244, 3245,
                  3247, 3248, 3250, 3251, 3253, 3254, 3256, 3257, 3260, 3263,
                  3264, 3266, 3267, 3269, 3270, 3272, 3273, 3277, 3279, 3280,
                  3282, 3283, 3285, 3286, 3288, 3289, 3291, 3292, 3294, 3295,
                  3297, 3301, 3302, 3304, 3305, 3307, 3308, 3310, 3311, 3314,
                  3317, 3318, 3320, 3321, 3323, 3324, 3326, 3327, 3329, 3330,
                  3332, 3333, 3335, 3339, 3340, 3342, 3343, 3345, 3346, 3348,
                  3349, 3353, 3355, 3356, 3358, 3359, 3361, 3362, 3364, 3365,
                  3367, 3368, 3370, 3371, 3373, 3377, 3378, 3380, 3381, 3383,
                  3384, 3386, 3387, 3390, 3393, 3394, 3396, 3397, 3399, 3400,
                  3402, 3403, 3405, 3406, 3408, 3409, 3411, 3415, 3416, 3418,
                  3419, 3421, 3422, 3424, 3425, 3429, 3431, 3432, 3434, 3435,
                  3437, 3438, 3440, 3441, 3443, 3444, 3446-3449, 3455, 3456,
                  3458, 3459, 3461, 3462, 3466-3468, 3470, 3472, 3473, 3475,
                  3476, 3478, 3479, 3481, 3482, 3484, 3485, 3487, 3488, 3490,
                  3494, 3495, 3497, 3498, 3500, 3501, 3503, 3504, 3507, 3510,
                  3511, 3513, 3514, 3516, 3517, 3519, 3520, 3523, 3524, 3526,
                  3530, 3531, 3533, 3534, 3536, 3537, 3539, 3540, 3543-3545,
                  3549, 3550, 3552, 3553, 3555, 3556, 3558, 3559, 3561, 3562,
                  3564, 3565, 3567, 3570, 3571, 3573, 3574, 3576, 3577, 3579,
                  3580, 3583, 3586, 3587, 3589, 3590, 3592, 3593, 3595, 3596,
                  3598, 3599, 3601, 3602, 3605, 3608, 3609, 3611, 3612, 3614,
                  3615, 3617, 3618, 3622, 3624, 3625, 3627, 3628, 3630, 3631,
                  3633, 3634, 3636, 3637, 3639, 3640, 3642, 3646, 3647, 3649,
                  3650, 3652, 3653, 3655, 3656, 3659, 3662, 3663, 3665, 3666,
                  3668, 3669, 3671, 3672, 3674, 3675, 3677, 3678, 3680, 3684,
                  3685, 3687, 3688, 3690, 3691, 3693, 3694, 3698, 3700, 3701,
                  3703, 3704, 3706, 3707, 3709, 3710, 3712, 3713, 3715, 3716,
                  3718, 3722, 3723, 3725, 3726, 3728, 3729, 3731, 3732, 3735,
                  3738, 3739, 3741, 3742, 3744, 3745, 3747, 3748, 3750, 3751,
                  3753, 3754, 3756, 3760, 3761, 3763, 3764, 3766, 3767, 3769,
                  3770, 3774, 3776, 3777, 3779, 3780, 3782, 3783, 3785, 3786,
                  3788, 3789, 3791-3794
    3    7 N      13, 36, 55, 72, 91, 113, 131, 150, 169, 188, 207, 226, 245,
                  264, 283, 302, 321, 340, 358, 381, 400, 417, 436, 458, 476,
                  495, 514, 533, 552, 571, 590, 609, 628, 647, 666, 685, 703,
                  726, 745, 762, 781, 803, 821, 840, 859, 878, 897, 916, 935,
                  954, 973, 992, 1011, 1030, 1048, 1071, 1090, 1107, 1126,
                  1148, 1166, 1185, 1204, 1223, 1242, 1261, 1280, 1299, 1318,
                  1337, 1356, 1375, 1393, 1416, 1435, 1452, 1471, 1493, 1511,
                  1530, 1549, 1568, 1587, 1606, 1625, 1644, 1663, 1682, 1701,
                  1720, 1738, 1761, 1780, 1797, 1816, 1838, 1856, 1875, 1894,
                  1913, 1932, 1951, 1970, 1989, 2008, 2027, 2046, 2065, 2083,
                  2106, 2125, 2142, 2161, 2183, 2201, 2220, 2239, 2258, 2277,
                  2296, 2315, 2334, 2353, 2372, 2391, 2410, 2428, 2451, 2470,
                  2487, 2506, 2528, 2546, 2565, 2584, 2603, 2622, 2641, 2660,
                  2679, 2698, 2717, 2736, 2755, 2773, 2796, 2815, 2832, 2851,
                  2873, 2891, 2910, 2929, 2948, 2967, 2986, 3005, 3024, 3043,
                  3062, 3081, 3100, 3118, 3141, 3160, 3177, 3196, 3218, 3236,
                  3255, 3274, 3293, 3312, 3331, 3350, 3369, 3388, 3407, 3426,
                  3445, 3463, 3486, 3505, 3522, 3541, 3563, 3581, 3600, 3619,
                  3638, 3657, 3676, 3695, 3714, 3733, 3752, 3771, 3790
    4    8 O      14, 15, 41, 58, 77, 96, 97, 134, 153, 170, 193, 210, 231,
                  246, 269, 286, 307, 322, 345, 359, 360, 386, 403, 422, 441,
                  442, 479, 498, 515, 538, 555, 576, 591, 614, 631, 652, 667,
                  690, 704, 705, 731, 748, 767, 786, 787, 824, 843, 860, 883,
                  900, 921, 936, 959, 976, 997, 1012, 1035, 1049, 1050, 1076,
                  1093, 1112, 1131, 1132, 1169, 1188, 1205, 1228, 1245, 1266,
                  1281, 1304, 1321, 1342, 1357, 1380, 1394, 1395, 1421, 1438,
                  1457, 1476, 1477, 1514, 1533, 1550, 1573, 1590, 1611, 1626,
                  1649, 1666, 1687, 1702, 1725, 1739, 1740, 1766, 1783, 1802,
                  1821, 1822, 1859, 1878, 1895, 1918, 1935, 1956, 1971, 1994,
                  2011, 2032, 2047, 2070, 2084, 2085, 2111, 2128, 2147, 2166,
                  2167, 2204, 2223, 2240, 2263, 2280, 2301, 2316, 2339, 2356,
                  2377, 2392, 2415, 2429, 2430, 2456, 2473, 2492, 2511, 2512,
                  2549, 2568, 2585, 2608, 2625, 2646, 2661, 2684, 2701, 2722,
                  2737, 2760, 2774, 2775, 2801, 2818, 2837, 2856, 2857, 2894,
                  2913, 2930, 2953, 2970, 2991, 3006, 3029, 3046, 3067, 3082,
                  3105, 3119, 3120, 3146, 3163, 3182, 3201, 3202, 3239, 3258,
                  3275, 3298, 3315, 3336, 3351, 3374, 3391, 3412, 3427, 3450,
                  3464, 3465, 3491, 3508, 3527, 3546, 3547, 3584, 3603, 3620,
                  3643, 3660, 3681, 3696, 3719, 3736, 3757, 3772, 3795

molecular fragmentation (1/2 indicates fragments):
111111111111111111111111111111111111111111111111111111111111111111111111
111111111111111111111111111111111111111111111111111111111111111111111111
111111111111111111111111111111111111111111111111111111111111111111111111
111111111111111111111111111111111111111111111111111111111111111111111111
111111111111111111111111111111111111111111111111111111111222222222222222
222222222222222222222222222222222222222222222222222222222222222222222222
222222222222222222222222222222222222222222222222222222222222222222222222
222222222222222222222222222222222222222222222222222222222222222222222222
222222222222222222222222222222222222222222222222222222222222222222222222
222222222222222222222222222222222222222222222222222222222222222222222222
222222222222222222222222222222222222222222222222222222222222222222222222
222222222222222222222222222222222222222222222222222222222222222222222222
222222222222222222222222222222222222222222222222222222222222222222222222
222222222222222222222222222222222222222222222222222222222222222222222222
222222222222222222222222222222222222222222222222222222222222222222222222
222222222222222222222222222222222222222222222222222222222222222222222222
222222222222222222222222222222222222222222222222222222222222222222222222
222222222222222222222222222222222222222222222222222222222222222222222222
222222222222222222222222222222222222222222222222222222222222222222222222
222222222222222222222222222222222222222222222222222222222222222222222222
222222222222222222222222222222222222222222222222222222222222222222222222
222222222222222222222222222222222222222222222222222222222222222222222222
222222222222222222222222222222222222222222222222222222222222222222222222
222222222222222222222222222222222222222222222222222222222222222222222222
222222222222222222222222222222222222222222222222222222222222222222222222
222222222222222222222222222222222222222222222222222222222222222222222222
222222222222222222222222222222222222222222222222222222222222222222222222
222222222222222222222222222222222222222222222222222222222222222222222222
222222222222222222222222222222222222222222222222222222222222222222222222
222222222222222222222222222222222222222222222222222222222222222222222222
222222222222222222222222222222222222222222222222222222222222222222222222
222222222222222222222222222222222222222222222222222222222222222222222222
222222222222222222222222222222222222222222222222222222222222222222222222
222222222222222222222222222222222222222222222222222222222222222222222222
222222222222222222222222222222222222222222222222222222222222222222222222
222222222222222222222222222222222222222222222222222222222222222222222222
222222222222222222222222222222222222222222222222222222222222222222222222
222222222222222222222222222222222222222222222222222222222222222222222222
222222222222222222222222222222222222222222222222222222222222222222222222
222222222222222222222222222222222222222222222222222222222222222222222222
222222222222222222222222222222222222222222222222222222222222222222222222
222222222222222222222222222222222222222222222222222222222222222222222222
222222222222222222222222222222222222222222222222222222222222222222222222
222222222222222222222222222222222222222222222222222222222222222222222222
222222222222222222222222222222222222222222222222222222222222222222222222
222222222222222222222222222222222222222222222222222222222222222222222222
222222222222222222222222222222222222222222222222222222222222222222222222
222222222222222222222222222222222222222222222222222222222222222222222222
222222222222222222222222222222222222222222222222222222222222222222222222
222222222222222222222222222222222222222222222222222222222222222222222222
222222222222222222222222222222222222222222222222222222222222222222222222
222222222222222222222222222222222222222222222222222222222222222222222222
222222222222222222222222222222222222222222222222222
# atoms in fragment 1/2:   345  3450
 fragment masses (1/2) :     2054.86    20548.57
CMA distance (Bohr)    :  26.435
constraining FC (au)   :  0.0500

           -------------------------------------------------
          |                 G F N 2 - x T B                 |
           -------------------------------------------------

        Reference                      10.1021/acs.jctc.8b01176
      * Hamiltonian:
        H0-scaling (s, p, d)           1.850000    2.230000    2.230000
        zeta-weighting                 0.500000
      * Dispersion:
        s8                             2.700000
        a1                             0.520000
        a2                             5.000000
        s9                             5.000000
      * Repulsion:
        kExp                           1.500000    1.000000
        rExp                           1.000000
      * Coulomb:
        alpha                          2.000000
        third order                    shell-resolved
        anisotropic                    true
        a3                             3.000000
        a5                             4.000000
        cn-shift                       1.200000
        cn-exp                         4.000000
        max-rad                        5.000000


          ...................................................
          :                      SETUP                      :
          :.................................................:
          :  # basis functions                8580          :
          :  # atomic orbitals                8580          :
          :  # shells                         5390          :
          :  # electrons                      9196          :
          :  max. iterations                   250          :
          :  Hamiltonian                  GFN2-xTB          :
          :  restarted?                      false          :
          :  GBSA solvation                  false          :
          :  PC potential                    false          :
          :  electronic temp.          300.0000000     K    :
          :  accuracy                    1.0000000          :
          :  -> integral cutoff          0.2500000E+02      :
          :  -> integral neglect         0.1000000E-07      :
          :  -> SCF convergence          0.1000000E-05 Eh   :
          :  -> wf. convergence          0.1000000E-03 e    :
          :  Broyden damping             0.4000000          :
          ...................................................

 iter      E             dE          RMSdq      gap      omega  full diag
   1  -5156.2799401 -0.515628E+04  0.343E+00    4.41       0.0  T
   2  -5167.3977611 -0.111178E+02  0.185E+00    3.11       1.0  T
   3  -5167.7515980 -0.353837E+00  0.953E-01    3.27       1.0  T
   4  -5167.8304060 -0.788080E-01  0.152E-01    2.59       1.0  T
   5  -5167.8618249 -0.314189E-01  0.780E-02    2.72       1.0  T
   6  -5167.8658635 -0.403862E-02  0.348E-02    2.69       1.0  T
   7  -5167.8660651 -0.201579E-03  0.951E-03    2.69       1.0  T
   8  -5167.8661088 -0.437571E-04  0.380E-03    2.70       1.0  T
   9  -5167.8661158 -0.702582E-05  0.135E-03    2.70       1.2  T
  10  -5167.8661169 -0.105544E-05  0.480E-04    2.70       3.4  T
  11  -5167.8661171 -0.181378E-06  0.138E-04    2.70      11.7  T
  12  -5167.8661171 -0.126738E-07  0.484E-05    2.70      33.6  T

   *** convergence criteria satisfied after 12 iterations ***

         #    Occupation            Energy/Eh            Energy/eV
      -------------------------------------------------------------
         1        2.0000           -0.7474875             -20.3402
       ...           ...                  ...                  ...
      4592        2.0000           -0.3568012              -9.7091
      4593        2.0000           -0.3557124              -9.6794
      4594        2.0000           -0.3554555              -9.6724
      4595        2.0000           -0.3552859              -9.6678
      4596        2.0000           -0.3547178              -9.6524
      4597        2.0000           -0.3504733              -9.5369
      4598        2.0000           -0.3468854              -9.4392 (HOMO)
      4599                         -0.2478240              -6.7436 (LUMO)
      4600                         -0.2424234              -6.5967
      4601                         -0.2419597              -6.5841
      4602                         -0.2390015              -6.5036
      4603                         -0.2359190              -6.4197
       ...                                ...                  ...
      8580                          0.6606757              17.9779
      -------------------------------------------------------------
                  HL-Gap            0.0990614 Eh            2.6956 eV
             Fermi-level           -0.2973547 Eh           -8.0914 eV

 SCC (total)                   0 d,  0 h, 35 min, 51.110 sec
 SCC setup                      ...        0 min,  0.703 sec (  0.033%)
 Dispersion                     ...        0 min,  5.651 sec (  0.263%)
 classical contributions        ...        0 min,  0.169 sec (  0.008%)
 integral evaluation            ...        0 min,  9.552 sec (  0.444%)
 iterations                     ...       30 min, 14.632 sec ( 84.358%)
 molecular gradient             ...        5 min,  1.184 sec ( 14.001%)
 printout                       ...        0 min, 19.219 sec (  0.893%)

         :::::::::::::::::::::::::::::::::::::::::::::::::::::
         ::                     SUMMARY                     ::
         :::::::::::::::::::::::::::::::::::::::::::::::::::::
         :: total energy           -5103.025333223328 Eh    ::
         :: gradient norm              0.161001364596 Eh/a0 ::
         :: HOMO-LUMO gap              2.695599123605 eV    ::
         ::.................................................::
         :: SCC energy             -5167.866117092201 Eh    ::
         :: -> isotropic ES            8.505880001958 Eh    ::
         :: -> anisotropic ES         -0.022169581853 Eh    ::
         :: -> anisotropic XC          1.875299055726 Eh    ::
         :: -> dispersion             -5.330197733357 Eh    ::
         :: repulsion energy          63.948687541839 Eh    ::
         :: add. restraining           0.000000000000 Eh    ::
         :: total charge              -0.000000000017 e     ::
         :::::::::::::::::::::::::::::::::::::::::::::::::::::

      ----------------------------------------------------------- 
     |              Fast Inertial Relaxation Engine              |
      ----------------------------------------------------------- 

          ...................................................
          :                      SETUP                      :
          :.................................................:
          :   energy convergence        0.5000000E-05 Eh    :
          :   grad. convergence         0.1000000E-02 Eh/a0 :
          :   optimization log               true           :
          :   writing optlog all                1     steps :
          :   Hessian reset                    20     steps :
          :   time step scaling                 5     steps :
          :   maximium step len.        1.0000000     a0    :
          :   initial time step         0.2500000     fs    :
          :   maximum time step         1.2500000     fs    :
          :   power reset thr           0.0000000     au    :
          :   alpha parameter           0.1000000           :
          :   BFGS update                   false           :
          :   preconditioning               false           :
          ...................................................

........................................................................
.............................. CYCLE    1 ..............................
........................................................................

 iter      E             dE          RMSdq      gap      omega  full diag
   1  -5167.8859246 -0.516789E+04  0.547E-03    2.70       0.0  T
   2  -5167.8860255 -0.100967E-03  0.250E-03    2.70       1.0  T
   3  -5167.8860313 -0.570946E-05  0.118E-03    2.70       1.4  T
   4  -5167.8860314 -0.120015E-06  0.423E-04    2.70       3.8  T
   5  -5167.8860315 -0.864657E-07  0.134E-04    2.70      12.1  T
     SCC iter.                  ...       12 min, 39.357 sec
     gradient                   ...        4 min, 59.849 sec
 * total energy  : -5103.0281376 Eh     change    :  -0.2804336E-02 Eh
   gradient norm :     0.1362864 Eh/a0  converged?    E=F G=F D=F
   time step     :     0.2500000 fs     power     :   0.1363859E-06
   step length   :     0.0188690 a0     speed     :   0.1825679E-02

........................................................................
.............................. CYCLE    2 ..............................
........................................................................

 iter      E             dE          RMSdq      gap      omega  full diag
   1  -5167.9136138 -0.516791E+04  0.776E-03    2.70       0.0  T
   2  -5167.9138171 -0.203236E-03  0.354E-03    2.71       1.0  T
   3  -5167.9138285 -0.114279E-04  0.168E-03    2.71       1.0  T
   4  -5167.9138287 -0.239624E-06  0.602E-04    2.71       2.7  T
   5  -5167.9138289 -0.175744E-06  0.190E-04    2.71       8.5  T
     SCC iter.                  ...       12 min, 37.454 sec
     gradient                   ...        4 min, 58.579 sec
 * total energy  : -5103.0313233 Eh     change    :  -0.3185706E-02 Eh
   gradient norm :     0.1015867 Eh/a0  converged?    E=F G=F D=F
   time step     :     0.2500000 fs     power     :   0.1438212E-06
   step length   :     0.0268503 a0     speed     :   0.2597907E-02

........................................................................
.............................. CYCLE    3 ..............................
........................................................................

 iter      E             dE          RMSdq      gap      omega  full diag
   1  -5167.9461733 -0.516795E+04  0.940E-03    2.71       0.0  T
   2  -5167.9464712 -0.297897E-03  0.429E-03    2.72       1.0  T
   3  -5167.9464878 -0.166673E-04  0.204E-03    2.72       1.0  T
   4  -5167.9464882 -0.348677E-06  0.731E-04    2.72       2.2  T
   5  -5167.9464884 -0.263197E-06  0.232E-04    2.72       7.0  T
     SCC iter.                  ...       12 min, 37.605 sec
     gradient                   ...        4 min, 59.362 sec
 * total energy  : -5103.0339403 Eh     change    :  -0.2617081E-02 Eh
   gradient norm :     0.0615761 Eh/a0  converged?    E=F G=F D=F
   time step     :     0.2500000 fs     power     :   0.1014644E-06
   step length   :     0.0327611 a0     speed     :   0.3169811E-02

........................................................................
.............................. CYCLE    4 ..............................
........................................................................

 iter      E             dE          RMSdq      gap      omega  full diag
   1  -5167.9794057 -0.516798E+04  0.102E-02    2.72       0.0  T
   2  -5167.9797525 -0.346748E-03  0.465E-03    2.73       1.0  T
   3  -5167.9797718 -0.193115E-04  0.222E-03    2.73       1.0  T
   4  -5167.9797722 -0.402263E-06  0.792E-04    2.73       2.0  T
   5  -5167.9797725 -0.317044E-06  0.253E-04    2.73       6.4  T
     SCC iter.                  ...       12 min, 37.841 sec
     gradient                   ...        4 min, 59.648 sec
 * total energy  : -5103.0352572 Eh     change    :  -0.1316823E-02 Eh
   gradient norm :     0.0331390 Eh/a0  converged?    E=F G=F D=F
   time step     :     0.2500000 fs     power     :   0.2556900E-07
   step length   :     0.0360758 a0     speed     :   0.3490525E-02

........................................................................
.............................. CYCLE    5 ..............................
........................................................................

 iter      E             dE          RMSdq      gap      omega  full diag
   1  -5168.0055605 -0.516801E+04  0.933E-03    2.73       0.0  T
   2  -5168.0058459 -0.285323E-03  0.427E-03    2.74       1.0  T
   3  -5168.0058617 -0.158333E-04  0.206E-03    2.74       1.0  T
   4  -5168.0058620 -0.327460E-06  0.720E-04    2.74       2.3  T
   5  -5168.0058623 -0.279159E-06  0.233E-04    2.74       7.0  T
     SCC iter.                  ...       12 min, 36.530 sec
     gradient                   ...        4 min, 58.375 sec
 * total energy  : -5103.0351654 Eh     change    :   0.9178701E-04 Eh
   gradient norm :     0.0510791 Eh/a0  converged?    E=F G=F D=F
   time step     :     0.2500000 fs     power     :  -0.4286507E-07
   step length   :     0.0350740 a0     speed     :   0.3393600E-02

........................................................................
.............................. CYCLE    6 ..............................
........................................................................
 * reset velocities

 iter      E             dE          RMSdq      gap      omega  full diag
   1  -5168.0048004 -0.516800E+04  0.203E-04    2.74       0.0  T
   2  -5168.0048005 -0.128081E-06  0.889E-05    2.74      18.3  T
   3  -5168.0048005 -0.786349E-08  0.414E-05    2.74      39.2  T
     SCC iter.                  ...        7 min, 36.724 sec
     gradient                   ...        5 min,  1.941 sec
 * total energy  : -5103.0352033 Eh     change    :  -0.3790383E-04 Eh
   gradient norm :     0.0501873 Eh/a0  converged?    E=F G=F D=T
   time step     :     0.1250000 fs     power     :   0.3986506E-08
   step length   :     0.0007483 a0     speed     :   0.1448032E-03

........................................................................
.............................. CYCLE    7 ..............................
........................................................................

 iter      E             dE          RMSdq      gap      omega  full diag
   1  -5168.0026970 -0.516800E+04  0.378E-04    2.74       0.0  T
   2  -5168.0026975 -0.490089E-06  0.184E-04    2.74       8.8  T
   3  -5168.0026975 -0.275932E-07  0.924E-05    2.74      17.6  T
     SCC iter.                  ...        7 min, 37.560 sec
     gradient                   ...        4 min, 59.632 sec
 * total energy  : -5103.0352765 Eh     change    :  -0.7320752E-04 Eh
   gradient norm :     0.0485271 Eh/a0  converged?    E=F G=F D=F
   time step     :     0.1250000 fs     power     :   0.7640234E-08
   step length   :     0.0014835 a0     speed     :   0.2870751E-03

........................................................................
.............................. CYCLE    8 ..............................
........................................................................

 iter      E             dE          RMSdq      gap      omega  full diag
   1  -5167.9995918 -0.516800E+04  0.553E-04    2.74       0.0  T
   2  -5167.9995928 -0.105194E-05  0.273E-04    2.74       5.9  T
   3  -5167.9995929 -0.588680E-07  0.138E-04    2.74      11.7  T
   4  -5167.9995929 -0.125328E-08  0.427E-05    2.74      38.0  T
     SCC iter.                  ...       10 min,  7.185 sec
     gradient                   ...        4 min, 58.884 sec
 * total energy  : -5103.0353803 Eh     change    :  -0.1037699E-03 Eh
   gradient norm :     0.0461069 Eh/a0  converged?    E=F G=F D=F
   time step     :     0.1250000 fs     power     :   0.1072982E-07
   step length   :     0.0021943 a0     speed     :   0.4246173E-03

........................................................................
.............................. CYCLE    9 ..............................
........................................................................

 iter      E             dE          RMSdq      gap      omega  full diag
   1  -5167.9955443 -0.516800E+04  0.724E-04    2.74       0.0  T
   2  -5167.9955461 -0.179839E-05  0.345E-04    2.73       4.7  T
   3  -5167.9955462 -0.103965E-06  0.169E-04    2.73       9.6  T
   4  -5167.9955462 -0.184082E-08  0.564E-05    2.74      28.8  T
     SCC iter.                  ...       10 min,  7.630 sec
     gradient                   ...        4 min, 57.251 sec
 * total energy  : -5103.0355080 Eh     change    :  -0.1277195E-03 Eh
   gradient norm :     0.0430482 Eh/a0  converged?    E=F G=F D=F
   time step     :     0.1250000 fs     power     :   0.1307680E-07
   step length   :     0.0028692 a0     speed     :   0.5552121E-03

........................................................................
.............................. CYCLE   10 ..............................
........................................................................

 iter      E             dE          RMSdq      gap      omega  full diag
   1  -5167.9906341 -0.516799E+04  0.872E-04    2.74       0.0  T
   2  -5167.9906367 -0.260398E-05  0.416E-04    2.73       3.9  T
   3  -5167.9906369 -0.150600E-06  0.204E-04    2.73       7.9  T
   4  -5167.9906369 -0.262480E-08  0.677E-05    2.73      24.0  T
     SCC iter.                  ...       10 min,  6.434 sec
     gradient                   ...        4 min, 59.269 sec
 * total energy  : -5103.0356517 Eh     change    :  -0.1437629E-03 Eh
   gradient norm :     0.0394845 Eh/a0  converged?    E=F G=F D=F
   time step     :     0.1250000 fs     power     :   0.1456727E-07
   step length   :     0.0034980 a0     speed     :   0.6769015E-03

........................................................................
.............................. CYCLE   11 ..............................
........................................................................

 iter      E             dE          RMSdq      gap      omega  full diag
   1  -5167.9849613 -0.516798E+04  0.100E-03    2.73       0.0  T
   2  -5167.9849647 -0.340211E-05  0.477E-04    2.73       3.4  T
   3  -5167.9849649 -0.196907E-06  0.235E-04    2.73       6.9  T
   4  -5167.9849649 -0.333330E-08  0.771E-05    2.73      21.0  T
     SCC iter.                  ...       10 min,  9.264 sec
     gradient                   ...        4 min, 59.571 sec
 * total energy  : -5103.0358033 Eh     change    :  -0.1515553E-03 Eh
   gradient norm :     0.0356125 Eh/a0  converged?    E=F G=F D=F
   time step     :     0.1250000 fs     power     :   0.1517093E-07
   step length   :     0.0040718 a0     speed     :   0.7879389E-03

........................................................................
.............................. CYCLE   12 ..............................
........................................................................

 iter      E             dE          RMSdq      gap      omega  full diag
   1  -5167.9779416 -0.516798E+04  0.122E-03    2.73       0.0  T
   2  -5167.9779467 -0.505688E-05  0.584E-04    2.73       2.8  T
   3  -5167.9779470 -0.292479E-06  0.289E-04    2.73       5.6  T
   4  -5167.9779470 -0.503314E-08  0.936E-05    2.73      17.3  T
     SCC iter.                  ...       10 min,  5.130 sec
     gradient                   ...        4 min, 59.484 sec
 * total energy  : -5103.0359704 Eh     change    :  -0.1670603E-03 Eh
   gradient norm :     0.0312852 Eh/a0  converged?    E=F G=F D=F
   time step     :     0.1375000 fs     power     :   0.1487308E-07
   step length   :     0.0050979 a0     speed     :   0.8968248E-03

........................................................................
.............................. CYCLE   13 ..............................
........................................................................

 iter      E             dE          RMSdq      gap      omega  full diag
   1  -5167.9695079 -0.516797E+04  0.145E-03    2.73       0.0  T
   2  -5167.9695149 -0.699195E-05  0.692E-04    2.73       2.3  T
   3  -5167.9695153 -0.404435E-06  0.344E-04    2.73       4.7  T
   4  -5167.9695153 -0.683031E-08  0.109E-04    2.73      14.9  T
     SCC iter.                  ...       10 min,  9.405 sec
     gradient                   ...        4 min, 59.528 sec
 * total energy  : -5103.0361435 Eh     change    :  -0.1731075E-03 Eh
   gradient norm :     0.0269979 Eh/a0  converged?    E=F G=F D=F
   time step     :     0.1512500 fs     power     :   0.1360112E-07
   step length   :     0.0062454 a0     speed     :   0.9988083E-03

........................................................................
.............................. CYCLE   14 ..............................
........................................................................

 iter      E             dE          RMSdq      gap      omega  full diag
   1  -5167.9597432 -0.516796E+04  0.164E-03    2.73       0.0  T
   2  -5167.9597520 -0.878673E-05  0.786E-04    2.73       2.1  T
   3  -5167.9597525 -0.507633E-06  0.395E-04    2.73       4.1  T
   4  -5167.9597525 -0.829277E-08  0.121E-04    2.73      13.4  T
     SCC iter.                  ...       10 min,  5.982 sec
     gradient                   ...        4 min, 59.912 sec
 * total energy  : -5103.0363113 Eh     change    :  -0.1678444E-03 Eh
   gradient norm :     0.0237364 Eh/a0  converged?    E=F G=F D=F
   time step     :     0.1663750 fs     power     :   0.1153552E-07
   step length   :     0.0074795 a0     speed     :   0.1087425E-02

........................................................................
.............................. CYCLE   15 ..............................
........................................................................

 iter      E             dE          RMSdq      gap      omega  full diag
   1  -5167.9490124 -0.516795E+04  0.175E-03    2.73       0.0  T
   2  -5167.9490220 -0.958887E-05  0.843E-04    2.73       1.9  T
   3  -5167.9490226 -0.553287E-06  0.431E-04    2.73       3.8  T
   4  -5167.9490226 -0.843647E-08  0.124E-04    2.73      13.1  T
     SCC iter.                  ...       10 min,  6.773 sec
     gradient                   ...        5 min,  0.463 sec
 * total energy  : -5103.0364654 Eh     change    :  -0.1541091E-03 Eh
   gradient norm :     0.0227379 Eh/a0  converged?    E=F G=F D=F
   time step     :     0.1830125 fs     power     :   0.9258877E-08
   step length   :     0.0087328 a0     speed     :   0.1154213E-02

........................................................................
.............................. CYCLE   16 ..............................
........................................................................

 iter      E             dE          RMSdq      gap      omega  full diag
   1  -5167.9380609 -0.516794E+04  0.171E-03    2.73       0.0  T
   2  -5167.9380694 -0.846428E-05  0.837E-04    2.73       1.9  T
   3  -5167.9380699 -0.487086E-06  0.441E-04    2.73       3.7  T
   4  -5167.9380699 -0.684668E-08  0.113E-04    2.73      14.3  T
     SCC iter.                  ...       10 min,  8.317 sec
     gradient                   ...        5 min,  0.014 sec
 * total energy  : -5103.0366077 Eh     change    :  -0.1423032E-03 Eh
   gradient norm :     0.0242090 Eh/a0  converged?    E=F G=F D=F
   time step     :     0.2013138 fs     power     :   0.7703644E-08
   step length   :     0.0099271 a0     speed     :   0.1192789E-02

........................................................................
.............................. CYCLE   17 ..............................
........................................................................

 iter      E             dE          RMSdq      gap      omega  full diag
   1  -5167.9278920 -0.516793E+04  0.152E-03    2.73       0.0  T
   2  -5167.9278975 -0.545687E-05  0.767E-04    2.73       2.1  T
   3  -5167.9278978 -0.312542E-06  0.423E-04    2.73       3.8  T
   4  -5167.9278978 -0.540331E-08  0.881E-05    2.73      18.4  T
     SCC iter.                  ...       10 min,  7.094 sec
     gradient                   ...        4 min, 59.890 sec
 * total energy  : -5103.0367559 Eh     change    :  -0.1481791E-03 Eh
   gradient norm :     0.0266705 Eh/a0  converged?    E=F G=F D=F
   time step     :     0.2214451 fs     power     :   0.7653748E-08
   step length   :     0.0110882 a0     speed     :   0.1211182E-02

........................................................................
.............................. CYCLE   18 ..............................
........................................................................

 iter      E             dE          RMSdq      gap      omega  full diag
   1  -5167.9195505 -0.516792E+04  0.126E-03    2.73       0.0  T
   2  -5167.9195525 -0.198011E-05  0.682E-04    2.73       2.4  T
   3  -5167.9195526 -0.109234E-06  0.371E-04    2.73       4.4  T
   4  -5167.9195526 -0.113705E-07  0.587E-05    2.73      27.7  T
     SCC iter.                  ...       10 min,  4.237 sec
     gradient                   ...        4 min, 59.151 sec
 * total energy  : -5103.0369390 Eh     change    :  -0.1830944E-03 Eh
   gradient norm :     0.0282059 Eh/a0  converged?    E=F G=F D=F
   time step     :     0.2435896 fs     power     :   0.9180888E-08
   step length   :     0.0124146 a0     speed     :   0.1232787E-02

........................................................................
.............................. CYCLE   19 ..............................
........................................................................

 iter      E             dE          RMSdq      gap      omega  full diag
   1  -5167.9140083 -0.516791E+04  0.118E-03    2.73       0.0  T
   2  -5167.9140087 -0.315729E-06  0.688E-04    2.73       2.4  T
   3  -5167.9140087 -0.132077E-07  0.177E-04    2.73       9.2  T
     SCC iter.                  ...        7 min, 35.779 sec
     gradient                   ...        4 min, 59.677 sec
 * total energy  : -5103.0371837 Eh     change    :  -0.2447102E-03 Eh
   gradient norm :     0.0273931 Eh/a0  converged?    E=F G=F D=F
   time step     :     0.2679486 fs     power     :   0.1146913E-07
   step length   :     0.0141847 a0     speed     :   0.1280516E-02

........................................................................
.............................. CYCLE   20 ..............................
........................................................................

 iter      E             dE          RMSdq      gap      omega  full diag
   1  -5167.9120333 -0.516791E+04  0.156E-03    2.73       0.0  T
   2  -5167.9120362 -0.285213E-05  0.878E-04    2.73       1.8  T
   3  -5167.9120364 -0.180327E-06  0.465E-04    2.73       3.5  T
   4  -5167.9120364 -0.223781E-07  0.774E-05    2.73      21.0  T
     SCC iter.                  ...       10 min,  7.404 sec
     gradient                   ...        4 min, 58.873 sec
 * total energy  : -5103.0374940 Eh     change    :  -0.3102425E-03 Eh
   gradient norm :     0.0236060 Eh/a0  converged?    E=F G=F D=F
   time step     :     0.2947435 fs     power     :   0.1299357E-07
   step length   :     0.0166150 a0     speed     :   0.1363551E-02
 * RMSD in coord.:     0.0027688 a0     energy gain  -0.1216073E-01 Eh

........................................................................
.............................. CYCLE   21 ..............................
........................................................................

 iter      E             dE          RMSdq      gap      omega  full diag
   1  -5167.9132287 -0.516791E+04  0.165E-03    2.73       0.0  T
   2  -5167.9132343 -0.564578E-05  0.878E-04    2.73       1.8  T
   3  -5167.9132347 -0.355325E-06  0.484E-04    2.73       3.4  T
   4  -5167.9132347 -0.910495E-08  0.973E-05    2.73      16.7  T
     SCC iter.                  ...       10 min,  5.113 sec
     gradient                   ...        4 min, 59.913 sec
 * total energy  : -5103.0377572 Eh     change    :  -0.2632396E-03 Eh
   gradient norm :     0.0191917 Eh/a0  converged?    E=F G=F D=F
   time step     :     0.2500000 fs     power     :   0.1273379E-07
   step length   :     0.0148592 a0     speed     :   0.1437710E-02

........................................................................
.............................. CYCLE   22 ..............................
........................................................................

 iter      E             dE          RMSdq      gap      omega  full diag
   1  -5167.9164628 -0.516792E+04  0.189E-03    2.73       0.0  T
   2  -5167.9164715 -0.869835E-05  0.974E-04    2.74       1.7  T
   3  -5167.9164720 -0.531040E-06  0.530E-04    2.74       3.1  T
   4  -5167.9164720 -0.869386E-08  0.119E-04    2.74      13.7  T
     SCC iter.                  ...       10 min,  7.405 sec
     gradient                   ...        4 min, 58.319 sec
 * total energy  : -5103.0379939 Eh     change    :  -0.2366637E-03 Eh
   gradient norm :     0.0157067 Eh/a0  converged?    E=F G=F D=F
   time step     :     0.2500000 fs     power     :   0.1098302E-07
   step length   :     0.0156333 a0     speed     :   0.1512605E-02

........................................................................
.............................. CYCLE   23 ..............................
........................................................................

 iter      E             dE          RMSdq      gap      omega  full diag
   1  -5167.9203861 -0.516792E+04  0.187E-03    2.74       0.0  T
   2  -5167.9203947 -0.863624E-05  0.961E-04    2.74       1.7  T
   3  -5167.9203952 -0.518549E-06  0.522E-04    2.74       3.1  T
   4  -5167.9203952 -0.726777E-08  0.118E-04    2.74      13.8  T
     SCC iter.                  ...       10 min,  5.508 sec
     gradient                   ...        4 min, 59.095 sec
 * total energy  : -5103.0381907 Eh     change    :  -0.1968083E-03 Eh
   gradient norm :     0.0155833 Eh/a0  converged?    E=F G=F D=F
   time step     :     0.2500000 fs     power     :   0.8916340E-08
   step length   :     0.0162182 a0     speed     :   0.1569199E-02

........................................................................
.............................. CYCLE   24 ..............................
........................................................................

 iter      E             dE          RMSdq      gap      omega  full diag
   1  -5167.9233517 -0.516792E+04  0.157E-03    2.74       0.0  T
   2  -5167.9233568 -0.512672E-05  0.819E-04    2.74       2.0  T
   3  -5167.9233571 -0.304162E-06  0.453E-04    2.74       3.6  T
   4  -5167.9233571 -0.512046E-08  0.906E-05    2.74      17.9  T
     SCC iter.                  ...       10 min, 10.623 sec
     gradient                   ...        4 min, 59.185 sec
 * total energy  : -5103.0383618 Eh     change    :  -0.1711265E-03 Eh
   gradient norm :     0.0177007 Eh/a0  converged?    E=F G=F D=F
   time step     :     0.2500000 fs     power     :   0.8029769E-08
   step length   :     0.0163911 a0     speed     :   0.1585929E-02

........................................................................
.............................. CYCLE   25 ..............................
........................................................................

 iter      E             dE          RMSdq      gap      omega  full diag
   1  -5167.9243182 -0.516792E+04  0.116E-03    2.74       0.0  T
   2  -5167.9243197 -0.152998E-05  0.639E-04    2.74       2.5  T
   3  -5167.9243198 -0.849996E-07  0.340E-04    2.74       4.8  T
   4  -5167.9243198 -0.941873E-08  0.541E-05    2.74      30.0  T
     SCC iter.                  ...       10 min,  6.588 sec
     gradient                   ...        5 min,  0.238 sec
 * total energy  : -5103.0385347 Eh     change    :  -0.1729453E-03 Eh
   gradient norm :     0.0191736 Eh/a0  converged?    E=F G=F D=F
   time step     :     0.2500000 fs     power     :   0.8605391E-08
   step length   :     0.0163082 a0     speed     :   0.1577907E-02

........................................................................
.............................. CYCLE   26 ..............................
........................................................................

 iter      E             dE          RMSdq      gap      omega  full diag
   1  -5167.9227443 -0.516792E+04  0.102E-03    2.74       0.0  T
   2  -5167.9227446 -0.280013E-06  0.596E-04    2.74       2.7  T
   3  -5167.9227446 -0.591353E-08  0.174E-04    2.74       9.3  T
     SCC iter.                  ...        7 min, 36.380 sec
     gradient                   ...        5 min,  0.987 sec
 * total energy  : -5103.0387468 Eh     change    :  -0.2120904E-03 Eh
   gradient norm :     0.0186575 Eh/a0  converged?    E=F G=F D=F
   time step     :     0.2750000 fs     power     :   0.9817390E-08
   step length   :     0.0179835 a0     speed     :   0.1581815E-02

........................................................................
.............................. CYCLE   27 ..............................
........................................................................

 iter      E             dE          RMSdq      gap      omega  full diag
   1  -5167.9182659 -0.516792E+04  0.130E-03    2.74       0.0  T
   2  -5167.9182682 -0.228616E-05  0.720E-04    2.74       2.3  T
   3  -5167.9182684 -0.137517E-06  0.390E-04    2.74       4.2  T
   4  -5167.9182684 -0.107511E-07  0.606E-05    2.74      26.8  T
     SCC iter.                  ...       10 min,  6.942 sec
     gradient                   ...        5 min,  2.139 sec
 * total energy  : -5103.0390001 Eh     change    :  -0.2533005E-03 Eh
   gradient norm :     0.0159684 Eh/a0  converged?    E=F G=F D=F
   time step     :     0.3025000 fs     power     :   0.1046051E-07
   step length   :     0.0201810 a0     speed     :   0.1613737E-02

........................................................................
.............................. CYCLE   28 ..............................
........................................................................

 iter      E             dE          RMSdq      gap      omega  full diag
   1  -5167.9113644 -0.516791E+04  0.178E-03    2.74       0.0  T
   2  -5167.9113714 -0.699084E-05  0.920E-04    2.74       1.8  T
   3  -5167.9113719 -0.422388E-06  0.505E-04    2.74       3.2  T
   4  -5167.9113719 -0.754699E-08  0.105E-04    2.74      15.4  T
     SCC iter.                  ...       10 min,  8.683 sec
     gradient                   ...        4 min, 59.723 sec
 * total energy  : -5103.0392713 Eh     change    :  -0.2711543E-03 Eh
   gradient norm :     0.0132214 Eh/a0  converged?    E=F G=F D=F
   time step     :     0.3327500 fs     power     :   0.9737693E-08
   step length   :     0.0230050 a0     speed     :   0.1672320E-02

........................................................................
.............................. CYCLE   29 ..............................
........................................................................

 iter      E             dE          RMSdq      gap      omega  full diag
   1  -5167.9042663 -0.516790E+04  0.199E-03    2.74       0.0  T
   2  -5167.9042751 -0.877273E-05  0.101E-03    2.74       1.6  T
   3  -5167.9042756 -0.519432E-06  0.554E-04    2.74       2.9  T
   4  -5167.9042756 -0.806449E-08  0.121E-04    2.74      13.4  T
     SCC iter.                  ...       10 min,  6.786 sec
     gradient                   ...        5 min,  1.362 sec
 * total energy  : -5103.0395368 Eh     change    :  -0.2655671E-03 Eh
   gradient norm :     0.0140685 Eh/a0  converged?    E=F G=F D=F
   time step     :     0.3660250 fs     power     :   0.8470969E-08
   step length   :     0.0262695 a0     speed     :   0.1736028E-02

........................................................................
.............................. CYCLE   30 ..............................
........................................................................

 iter      E             dE          RMSdq      gap      omega  full diag
   1  -5167.9007357 -0.516790E+04  0.168E-03    2.74       0.0  T
   2  -5167.9007394 -0.374673E-05  0.894E-04    2.74       1.8  T
   3  -5167.9007396 -0.212272E-06  0.486E-04    2.74       3.3  T
   4  -5167.9007396 -0.169484E-07  0.851E-05    2.74      19.1  T
     SCC iter.                  ...       10 min,  7.240 sec
     gradient                   ...        4 min, 59.881 sec
 * total energy  : -5103.0398179 Eh     change    :  -0.2810804E-03 Eh
   gradient norm :     0.0161797 Eh/a0  converged?    E=F G=F D=F
   time step     :     0.4026275 fs     power     :   0.8586795E-08
   step length   :     0.0294746 a0     speed     :   0.1770757E-02

........................................................................
.............................. CYCLE   31 ..............................
........................................................................

 iter      E             dE          RMSdq      gap      omega  full diag
   1  -5167.9035919 -0.516790E+04  0.150E-03    2.74       0.0  T
   2  -5167.9035929 -0.993242E-06  0.869E-04    2.74       1.9  T
   3  -5167.9035929 -0.401460E-07  0.342E-04    2.74       4.7  T
     SCC iter.                  ...        7 min, 38.419 sec
     gradient                   ...        5 min,  0.230 sec
 * total energy  : -5103.0401595 Eh     change    :  -0.3415695E-03 Eh
   gradient norm :     0.0151304 Eh/a0  converged?    E=F G=F D=F
   time step     :     0.4428903 fs     power     :   0.9765477E-08
   step length   :     0.0330409 a0     speed     :   0.1804560E-02

........................................................................
.............................. CYCLE   32 ..............................
........................................................................

 iter      E             dE          RMSdq      gap      omega  full diag
   1  -5167.9135704 -0.516791E+04  0.213E-03    2.74       0.0  T
   2  -5167.9135782 -0.781402E-05  0.117E-03    2.74       1.4  T
   3  -5167.9135787 -0.491189E-06  0.647E-04    2.74       2.5  T
   4  -5167.9135787 -0.194877E-07  0.101E-04    2.74      16.1  T
     SCC iter.                  ...       10 min,  8.520 sec
     gradient                   ...        4 min, 59.206 sec
 * total energy  : -5103.0405515 Eh     change    :  -0.3919842E-03 Eh
   gradient norm :     0.0117314 Eh/a0  converged?    E=F G=F D=F
   time step     :     0.4871793 fs     power     :   0.9700007E-08
   step length   :     0.0377024 a0     speed     :   0.1871954E-02

........................................................................
.............................. CYCLE   33 ..............................
........................................................................

 iter      E             dE          RMSdq      gap      omega  full diag
   1  -5167.9269778 -0.516793E+04  0.250E-03    2.74       0.0  T
   2  -5167.9269890 -0.112411E-04  0.135E-03    2.74       1.2  T
   3  -5167.9269897 -0.680373E-06  0.747E-04    2.74       2.2  T
   4  -5167.9269897 -0.203117E-07  0.130E-04    2.74      12.5  T
     SCC iter.                  ...       10 min,  6.749 sec
     gradient                   ...        5 min,  0.203 sec
 * total energy  : -5103.0409411 Eh     change    :  -0.3895808E-03 Eh
   gradient norm :     0.0129296 Eh/a0  converged?    E=F G=F D=F
   time step     :     0.5358972 fs     power     :   0.8439048E-08
   step length   :     0.0434630 a0     speed     :   0.1961792E-02

........................................................................
.............................. CYCLE   34 ..............................
........................................................................

 iter      E             dE          RMSdq      gap      omega  full diag
   1  -5167.9349515 -0.516793E+04  0.212E-03    2.75       0.0  T
   2  -5167.9349530 -0.152836E-05  0.123E-03    2.75       1.3  T
   3  -5167.9349530 -0.329064E-07  0.440E-04    2.75       3.7  T
   4  -5167.9349531 -0.104997E-06  0.752E-05    2.75      21.6  T
     SCC iter.                  ...       10 min,  5.000 sec
     gradient                   ...        4 min, 59.055 sec
 * total energy  : -5103.0413646 Eh     change    :  -0.4235703E-03 Eh
   gradient norm :     0.0136530 Eh/a0  converged?    E=F G=F D=F
   time step     :     0.5894869 fs     power     :   0.8891136E-08
   step length   :     0.0491091 a0     speed     :   0.2015129E-02

........................................................................
.............................. CYCLE   35 ..............................
........................................................................

 iter      E             dE          RMSdq      gap      omega  full diag
   1  -5167.9326766 -0.516793E+04  0.286E-03    2.75       0.0  T
   2  -5167.9326877 -0.110874E-04  0.156E-03    2.75       1.0  T
   3  -5167.9326884 -0.648923E-06  0.842E-04    2.75       1.9  T
   4  -5167.9326884 -0.506916E-07  0.123E-04    2.75      13.2  T
     SCC iter.                  ...       10 min,  7.224 sec
     gradient                   ...        4 min, 59.454 sec
 * total energy  : -5103.0418500 Eh     change    :  -0.4853517E-03 Eh
   gradient norm :     0.0103362 Eh/a0  converged?    E=F G=F D=F
   time step     :     0.6484356 fs     power     :   0.8889118E-08
   step length   :     0.0557894 a0     speed     :   0.2081135E-02

........................................................................
.............................. CYCLE   36 ..............................
........................................................................

 iter      E             dE          RMSdq      gap      omega  full diag
   1  -5167.9257352 -0.516793E+04  0.335E-03    2.75       0.0  T
   2  -5167.9257521 -0.168581E-04  0.176E-03    2.75       1.0  T
   3  -5167.9257530 -0.910666E-06  0.962E-04    2.75       1.7  T
   4  -5167.9257531 -0.466525E-07  0.163E-04    2.75       9.9  T
     SCC iter.                  ...       10 min,  4.336 sec
     gradient                   ...        5 min,  1.318 sec
 * total energy  : -5103.0423303 Eh     change    :  -0.4803419E-03 Eh
   gradient norm :     0.0126966 Eh/a0  converged?    E=F G=F D=F
   time step     :     0.7132792 fs     power     :   0.7759273E-08
   step length   :     0.0640849 a0     speed     :   0.2173259E-02

........................................................................
.............................. CYCLE   37 ..............................
........................................................................

 iter      E             dE          RMSdq      gap      omega  full diag
   1  -5167.9282094 -0.516793E+04  0.290E-03    2.75       0.0  T
   2  -5167.9282140 -0.463627E-05  0.167E-03    2.75       1.0  T
   3  -5167.9282142 -0.220883E-06  0.725E-04    2.75       2.2  T
   4  -5167.9282144 -0.166990E-06  0.100E-04    2.75      16.2  T
     SCC iter.                  ...       10 min,  5.593 sec
     gradient                   ...        4 min, 58.773 sec
 * total energy  : -5103.0428772 Eh     change    :  -0.5469045E-03 Eh
   gradient norm :     0.0106478 Eh/a0  converged?    E=F G=F D=F
   time step     :     0.7846071 fs     power     :   0.8497975E-08
   step length   :     0.0721308 a0     speed     :   0.2223738E-02

........................................................................
.............................. CYCLE   38 ..............................
........................................................................

 iter      E             dE          RMSdq      gap      omega  full diag
   1  -5167.9378390 -0.516794E+04  0.384E-03    2.75       0.0  T
   2  -5167.9378598 -0.207692E-04  0.210E-03    2.75       1.0  T
   3  -5167.9378610 -0.122692E-05  0.115E-03    2.75       1.4  T
   4  -5167.9378611 -0.752298E-07  0.186E-04    2.75       8.7  T
   5  -5167.9378611 -0.506498E-07  0.779E-05    2.75      20.8  T
     SCC iter.                  ...       12 min, 36.158 sec
     gradient                   ...        5 min, 10.312 sec
 * total energy  : -5103.0434389 Eh     change    :  -0.5616930E-03 Eh
   gradient norm :     0.0118943 Eh/a0  converged?    E=F G=F D=F
   time step     :     0.8630678 fs     power     :   0.7148407E-08
   step length   :     0.0825061 a0     speed     :   0.2312365E-02

........................................................................
.............................. CYCLE   39 ..............................
[...]
  3538   6 C     3541   7 N                                       1.3303562
  3541   7 N     3542   6 C                                       1.4499207
  3541   7 N     3543   1 H                                       1.0208389
  3518   6 C     3544   1 H                                       1.0919060
  3518   6 C     3545   1 H                                       1.0922284
  3525   6 C     3546   8 O                                       1.2271930
  3538   6 C     3547   8 O                                       1.2299401
  3542   6 C     3548   6 C                                       1.5336307
  3542   6 C     3549   1 H                                       1.0909968
  3542   6 C     3550   1 H                                       1.0919961
  3548   6 C     3551   6 C                                       1.5274087
  3548   6 C     3552   1 H                                       1.0901636
  3548   6 C     3553   1 H                                       1.0906591
  3551   6 C     3554   6 C                                       1.5334411
  3551   6 C     3555   1 H                                       1.0923289
  3551   6 C     3556   1 H                                       1.0910816
  3554   6 C     3557   6 C                                       1.5320604
  3554   6 C     3558   1 H                                       1.0909568
  3554   6 C     3559   1 H                                       1.0902706
  3557   6 C     3560   6 C                                       1.5281906
  3557   6 C     3561   1 H                                       1.0910467
  3557   6 C     3562   1 H                                       1.0932852
  3560   6 C     3563   7 N                                       1.4476651
  3560   6 C     3564   1 H                                       1.0926662
  3560   6 C     3565   1 H                                       1.0930530
  3563   7 N     3566   6 C                                       1.3294962
  3563   7 N     3567   1 H                                       1.0185061
  3568   6 C     3569   6 C                                       1.5344042
  3568   6 C     3570   1 H                                       1.0880508
  3568   6 C     3571   1 H                                       1.0921658
  3569   6 C     3572   6 C                                       1.5256159
  3569   6 C     3573   1 H                                       1.0932269
  3569   6 C     3574   1 H                                       1.0924903
  3572   6 C     3575   6 C                                       1.5295133
  3572   6 C     3576   1 H                                       1.0903474
  3572   6 C     3577   1 H                                       1.0907477
  3575   6 C     3579   1 H                                       1.0890829
  3575   6 C     3580   1 H                                       1.0903018
  3578   6 C     3581   7 N                                       1.3364504
  3581   7 N     3582   6 C                                       1.4473140
  3581   7 N     3583   1 H                                       1.0177296
  3566   6 C     3584   8 O                                       1.2324297
  3582   6 C     3585   6 C                                       1.5258924
  3582   6 C     3586   1 H                                       1.0969217
  3582   6 C     3587   1 H                                       1.0922948
  3585   6 C     3588   6 C                                       1.5305111
  3585   6 C     3589   1 H                                       1.0904419
  3585   6 C     3590   1 H                                       1.0917842
  3588   6 C     3591   6 C                                       1.5297375
  3588   6 C     3592   1 H                                       1.0924076
  3588   6 C     3593   1 H                                       1.0924772
  3591   6 C     3594   6 C                                       1.5277874
  3591   6 C     3595   1 H                                       1.0917469
  3591   6 C     3596   1 H                                       1.0895654
  3594   6 C     3597   6 C                                       1.5225831
  3594   6 C     3598   1 H                                       1.0898066
  3594   6 C     3599   1 H                                       1.0912262
  3597   6 C     3600   7 N                                       1.4507915
  3597   6 C     3601   1 H                                       1.0940505
  3597   6 C     3602   1 H                                       1.0955584
  3578   6 C     3603   8 O                                       1.2305117
  3600   7 N     3604   6 C                                       1.3374645
  3600   7 N     3605   1 H                                       1.0154505
  3606   6 C     3607   6 C                                       1.5336851
  3606   6 C     3608   1 H                                       1.0890885
  3606   6 C     3609   1 H                                       1.0906530
  3607   6 C     3610   6 C                                       1.5268757
  3607   6 C     3611   1 H                                       1.0919588
  3607   6 C     3612   1 H                                       1.0934098
  3610   6 C     3613   6 C                                       1.5233545
  3610   6 C     3614   1 H                                       1.0917227
  3610   6 C     3615   1 H                                       1.0918778
  3613   6 C     3617   1 H                                       1.0891716
  3613   6 C     3618   1 H                                       1.0932542
  3616   6 C     3619   7 N                                       1.3425352
  3604   6 C     3620   8 O                                       1.2300353
  3619   7 N     3621   6 C                                       1.4439840
  3619   7 N     3622   1 H                                       1.0145616
  3621   6 C     3623   6 C                                       1.5295032
  3621   6 C     3624   1 H                                       1.0917261
  3621   6 C     3625   1 H                                       1.0959641
  3623   6 C     3626   6 C                                       1.5247127
  3623   6 C     3627   1 H                                       1.0916402
  3623   6 C     3628   1 H                                       1.0902549
  3626   6 C     3629   6 C                                       1.5324510
  3626   6 C     3630   1 H                                       1.0910380
  3626   6 C     3631   1 H                                       1.0928176
  3629   6 C     3632   6 C                                       1.5304039
  3629   6 C     3633   1 H                                       1.0926028
  3629   6 C     3634   1 H                                       1.0919579
  3632   6 C     3635   6 C                                       1.5222568
  3632   6 C     3636   1 H                                       1.0919374
  3632   6 C     3637   1 H                                       1.0896637
  3635   6 C     3638   7 N                                       1.4510963
  3635   6 C     3639   1 H                                       1.0920178
  3635   6 C     3640   1 H                                       1.0961087
  3638   7 N     3641   6 C                                       1.3361193
  3638   7 N     3642   1 H                                       1.0136846
  3616   6 C     3643   8 O                                       1.2220913
  3644   6 C     3645   6 C                                       1.5306253
  3644   6 C     3646   1 H                                       1.0900248
  3644   6 C     3647   1 H                                       1.0892231
  3645   6 C     3648   6 C                                       1.5278850
  3645   6 C     3649   1 H                                       1.0911020
  3645   6 C     3650   1 H                                       1.0926803
  3648   6 C     3651   6 C                                       1.5330576
  3648   6 C     3652   1 H                                       1.0905034
  3648   6 C     3653   1 H                                       1.0928355
  3651   6 C     3655   1 H                                       1.0904466
  3651   6 C     3656   1 H                                       1.0894062
  3654   6 C     3657   7 N                                       1.3487210
  3657   7 N     3658   6 C                                       1.4448366
  3657   7 N     3659   1 H                                       1.0076611
  3641   6 C     3660   8 O                                       1.2294667
  3658   6 C     3661   6 C                                       1.5276387
  3658   6 C     3662   1 H                                       1.0923288
  3658   6 C     3663   1 H                                       1.0947821
  3661   6 C     3664   6 C                                       1.5251193
  3661   6 C     3665   1 H                                       1.0919950
  3661   6 C     3666   1 H                                       1.0929610
  3664   6 C     3667   6 C                                       1.5276475
  3664   6 C     3668   1 H                                       1.0919814
  3664   6 C     3669   1 H                                       1.0911351
  3667   6 C     3670   6 C                                       1.5293333
  3667   6 C     3671   1 H                                       1.0916853
  3667   6 C     3672   1 H                                       1.0920460
  3670   6 C     3673   6 C                                       1.5250451
  3670   6 C     3674   1 H                                       1.0932350
  3670   6 C     3675   1 H                                       1.0909415
  3673   6 C     3676   7 N                                       1.4478648
  3673   6 C     3677   1 H                                       1.0973356
  3673   6 C     3678   1 H                                       1.0925154
  3676   7 N     3679   6 C                                       1.3408111
  3676   7 N     3680   1 H                                       1.0074199
  3654   6 C     3681   8 O                                       1.2152352
  3682   6 C     3683   6 C                                       1.5332791
  3682   6 C     3684   1 H                                       1.0905736
  3682   6 C     3685   1 H                                       1.0912262
  3683   6 C     3686   6 C                                       1.5291350
  3683   6 C     3687   1 H                                       1.0922138
  3683   6 C     3688   1 H                                       1.0918316
  3686   6 C     3689   6 C                                       1.5283497
  3686   6 C     3690   1 H                                       1.0922782
  3686   6 C     3691   1 H                                       1.0918156
  3689   6 C     3693   1 H                                       1.0928722
  3689   6 C     3694   1 H                                       1.0879104
  3692   6 C     3695   7 N                                       1.3327789
  3679   6 C     3696   8 O                                       1.2227764
  3695   7 N     3697   6 C                                       1.4461137
  3695   7 N     3698   1 H                                       1.0160967
  3697   6 C     3699   6 C                                       1.5297133
  3697   6 C     3700   1 H                                       1.0961635
  3697   6 C     3701   1 H                                       1.0929742
  3699   6 C     3702   6 C                                       1.5252139
  3699   6 C     3703   1 H                                       1.0906650
  3699   6 C     3704   1 H                                       1.0917638
  3702   6 C     3705   6 C                                       1.5313162
  3702   6 C     3706   1 H                                       1.0926105
  3702   6 C     3707   1 H                                       1.0901471
  3705   6 C     3708   6 C                                       1.5292619
  3705   6 C     3709   1 H                                       1.0908654
  3705   6 C     3710   1 H                                       1.0918404
  3708   6 C     3711   6 C                                       1.5257179
  3708   6 C     3712   1 H                                       1.0909790
  3708   6 C     3713   1 H                                       1.0909367
  3711   6 C     3714   7 N                                       1.4464275
  3711   6 C     3715   1 H                                       1.0922915
  3711   6 C     3716   1 H                                       1.0956779
  3714   7 N     3717   6 C                                       1.3374622
  3714   7 N     3718   1 H                                       1.0154336
  3692   6 C     3719   8 O                                       1.2288228
  3720   6 C     3721   6 C                                       1.5339131
  3720   6 C     3722   1 H                                       1.0884229
  3720   6 C     3723   1 H                                       1.0917067
  3721   6 C     3724   6 C                                       1.5270355
  3721   6 C     3725   1 H                                       1.0922190
  3721   6 C     3726   1 H                                       1.0923499
  3724   6 C     3727   6 C                                       1.5275401
  3724   6 C     3728   1 H                                       1.0928783
  3724   6 C     3729   1 H                                       1.0903237
  3727   6 C     3731   1 H                                       1.0933142
  3727   6 C     3732   1 H                                       1.0906789
  3730   6 C     3733   7 N                                       1.3371583
  3733   7 N     3734   6 C                                       1.4437198
  3733   7 N     3735   1 H                                       1.0220679
  3717   6 C     3736   8 O                                       1.2268485
  3734   6 C     3737   6 C                                       1.5274804
  3734   6 C     3738   1 H                                       1.0973523
  3734   6 C     3739   1 H                                       1.0966465
  3737   6 C     3740   6 C                                       1.5283695
  3737   6 C     3741   1 H                                       1.0930364
  3737   6 C     3742   1 H                                       1.0922752
  3740   6 C     3743   6 C                                       1.5289711
  3740   6 C     3744   1 H                                       1.0899041
  3740   6 C     3745   1 H                                       1.0891985
  3743   6 C     3746   6 C                                       1.5318319
  3743   6 C     3747   1 H                                       1.0926372
  3743   6 C     3748   1 H                                       1.0927179
  3746   6 C     3749   6 C                                       1.5262014
  3746   6 C     3750   1 H                                       1.0912188
  3746   6 C     3751   1 H                                       1.0894737
  3749   6 C     3752   7 N                                       1.4436826
  3749   6 C     3753   1 H                                       1.0939394
  3749   6 C     3754   1 H                                       1.0989152
  3752   7 N     3755   6 C                                       1.3382822
  3752   7 N     3756   1 H                                       1.0181800
  3730   6 C     3757   8 O                                       1.2290514
  3758   6 C     3759   6 C                                       1.5356930
  3758   6 C     3760   1 H                                       1.0900252
  3758   6 C     3761   1 H                                       1.0882026
  3759   6 C     3762   6 C                                       1.5274089
  3759   6 C     3763   1 H                                       1.0919729
  3759   6 C     3764   1 H                                       1.0915996
  3762   6 C     3765   6 C                                       1.5333943
  3762   6 C     3766   1 H                                       1.0932466
  3762   6 C     3767   1 H                                       1.0911976
  3765   6 C     3769   1 H                                       1.0896825
  3765   6 C     3770   1 H                                       1.0900544
  3768   6 C     3771   7 N                                       1.3362757
  3755   6 C     3772   8 O                                       1.2256310
  3771   7 N     3773   6 C                                       1.4426920
  3771   7 N     3774   1 H                                       1.0193087
  3773   6 C     3775   6 C                                       1.5300157
  3773   6 C     3776   1 H                                       1.0951431
  3773   6 C     3777   1 H                                       1.0936428
  3775   6 C     3778   6 C                                       1.5317147
  3775   6 C     3779   1 H                                       1.0923011
  3775   6 C     3780   1 H                                       1.0912214
  3778   6 C     3781   6 C                                       1.5297599
  3778   6 C     3782   1 H                                       1.0925172
  3778   6 C     3783   1 H                                       1.0921789
  3781   6 C     3784   6 C                                       1.5289280
  3781   6 C     3785   1 H                                       1.0921017
  3781   6 C     3786   1 H                                       1.0927927
  3784   6 C     3787   6 C                                       1.5357409
  3784   6 C     3788   1 H                                       1.0925898
  3784   6 C     3789   1 H                                       1.0905072
  3787   6 C     3790   7 N                                       1.4520766
  3787   6 C     3791   1 H                                       1.0935416
  3787   6 C     3792   1 H                                       1.0939572
  3790   7 N     3793   1 H                                       1.0147676
  3790   7 N     3794   1 H                                       1.0150557
  3768   6 C     3795   8 O                                       1.2287747

 * 6 distinct bonds (by element types)

   Z      Z             #   av. dist./Å        max./Å        min./Å
   1 H    6 C        1980     1.0920769     1.1057884     1.0853132
   6 C    6 C         790     1.5283614     1.5388327     1.5189915
   1 H    7 N         209     1.0153962     1.0344225     1.0058236
   6 C    7 N         385     1.3937268     1.4653029     1.3225800
   1 H    8 O           1     0.9942448     0.9942448     0.9942448
   6 C    8 O         209     1.2310335     1.3231803     1.2062528


optimized geometry written to: xtbopt.xyz


           -------------------------------------------------
          | TOTAL ENERGY            -5103.073771012530 Eh   |
          | GRADIENT NORM               0.000931497907 Eh/α |
          | HOMO-LUMO GAP               2.742620370036 eV   |
           -------------------------------------------------

------------------------------------------------------------------------
 * finished run on 2024/10/16 at 10:41:16.464     
------------------------------------------------------------------------
 total:
 * wall-time:     7 d, 10 h, 14 min, 47.264 sec
 *  cpu-time:    45 d, 22 h,  5 min, 44.160 sec
 * ratio c/w:     6.183 speedup
 SCF:
 * wall-time:     0 d,  0 h, 35 min, 51.290 sec
 *  cpu-time:     0 d,  4 h, 12 min, 19.104 sec
 * ratio c/w:     7.037 speedup
 ANC optimizer:
 * wall-time:     7 d,  9 h, 37 min, 50.158 sec
 *  cpu-time:    45 d, 17 h, 51 min, 58.808 sec
 * ratio c/w:     6.181 speedup

