      -----------------------------------------------------------      
     |                   =====================                   |     
     |                           x T B                           |     
     |                   =====================                   |     
     |                         S. Grimme                         |     
     |          Mulliken Center for Theoretical Chemistry        |     
     |                    University of Bonn                     |     
      -----------------------------------------------------------      

   * xtb version 6.6.1 (8d0f1dd) compiled by 'stahn@M-Bot' on 2023-08-01

   xtb is free software: you can redistribute it and/or modify it under
   the terms of the GNU Lesser General Public License as published by
   the Free Software Foundation, either version 3 of the License, or
   (at your option) any later version.
   
   xtb is distributed in the hope that it will be useful,
   but WITHOUT ANY WARRANTY; without even the implied warranty of
   MERCHANTABILITY or FITNESS FOR A PARTICULAR PURPOSE.  See the
   GNU Lesser General Public License for more details.
   
   Cite this work as:
   * C. Bannwarth, E. Caldeweyher, S. Ehlert, A. Hansen, P. Pracht,
     J. Seibert, S. Spicher, S. Grimme, WIREs Comput. Mol. Sci., 2020, 11,
     e01493. DOI: 10.1002/wcms.1493
   
   for GFN2-xTB:
   * C. Bannwarth, S. Ehlert and S. Grimme., J. Chem. Theory Comput., 2019,
     15, 1652-1671. DOI: 10.1021/acs.jctc.8b01176
   for GFN1-xTB:
   * S. Grimme, C. Bannwarth, P. Shushkov, J. Chem. Theory Comput., 2017,
     13, 1989-2009. DOI: 10.1021/acs.jctc.7b00118
   for GFN0-xTB:
   * P. Pracht, E. Caldeweyher, S. Ehlert, S. Grimme, ChemRxiv, 2019, preprint.
     DOI: 10.26434/chemrxiv.8326202.v1
   for GFN-FF:
   * S. Spicher and S. Grimme, Angew. Chem. Int. Ed., 2020, 59, 15665-15673.
     DOI: 10.1002/anie.202004239
   
   for ALPB and GBSA implicit solvation:
   * S. Ehlert, M. Stahn, S. Spicher, S. Grimme, J. Chem. Theory Comput.,
     2021, 17, 4250-4261. DOI: 10.1021/acs.jctc.1c00471
   
   for DFT-D4:
   * E. Caldeweyher, C. Bannwarth and S. Grimme, J. Chem. Phys., 2017,
     147, 034112. DOI: 10.1063/1.4993215
   * E. Caldeweyher, S. Ehlert, A. Hansen, H. Neugebauer, S. Spicher,
     C. Bannwarth and S. Grimme, J. Chem. Phys., 2019, 150, 154122.
     DOI: 10.1063/1.5090222
   * E. Caldeweyher, J.-M. Mewes, S. Ehlert and S. Grimme, Phys. Chem. Chem. Phys.
     2020, 22, 8499-8512. DOI: 10.1039/D0CP00502A
   
   for sTDA-xTB:
   * S. Grimme and C. Bannwarth, J. Chem. Phys., 2016, 145, 054103.
     DOI: 10.1063/1.4959605
   
   in the mass-spec context:
   * V. Asgeirsson, C. Bauer and S. Grimme, Chem. Sci., 2017, 8, 4879.
     DOI: 10.1039/c7sc00601b
   * J. Koopman and S. Grimme, ACS Omega 2019, 4, 12, 15120-15133.
     DOI: 10.1021/acsomega.9b02011
   
   for metadynamics refer to:
   * S. Grimme, J. Chem. Theory Comput., 2019, 155, 2847-2862
     DOI: 10.1021/acs.jctc.9b00143
   
   for SPH calculations refer to:
   * S. Spicher and S. Grimme, J. Chem. Theory Comput., 2021, 17, 1701-1714
     DOI: 10.1021/acs.jctc.0c01306
   
   with help from (in alphabetical order)
   P. Atkinson, C. Bannwarth, F. Bohle, G. Brandenburg, E. Caldeweyher
   M. Checinski, S. Dohm, S. Ehlert, S. Ehrlich, I. Gerasimov, C. Hölzer
   A. Katbashev, J. Koopman, C. Lavigne, S. Lehtola, F. März, M. Müller,
   F. Musil, H. Neugebauer, J. Pisarek, C. Plett, P. Pracht, F. Pultar,
   J. Seibert, P. Shushkov, S. Spicher, M. Stahn, M. Steiner, T. Strunk,
   J. Stückrath, T. Rose, and J. Unsleber
   
 * started run on 2024/10/04 at 12:43:09.912     

           -------------------------------------------------
          |                Calculation Setup                |
           -------------------------------------------------

          program call               : /home/abt-grimme/AK-bin/xtb input.xyz --input input.inp --opt
          hostname                   : boar019.thch.uni-bonn.de
          coordinate file            : input.xyz
          omp threads                :                     8

   ID    Z sym.   atoms
    1    6 C      1-90, 273-362, 545-634, 817-906, 1089-1178, 1361-1450,
                  1633-1722, 1905-1994, 2177-2266, 2449-2538, 2721-2810,
                  2993-3082, 3265-3354
    2    1 H      91-272, 363-544, 635-816, 907-1088, 1179-1360, 1451-1632,
                  1723-1904, 1995-2176, 2267-2448, 2539-2720, 2811-2992,
                  3083-3264, 3355-3536

molecular fragmentation (1/2 indicates fragments):
111111111111111111111111111111111111111111111111111111111111111111111111
111111111111111111111111111111111111111111111111111111111111111111111111
111111111111111111111111111111111111111111111111111111111111111111111111
111111111111111111111111111111111111111111111111111111112222222222222222
222222222222222222222222222222222222222222222222222222222222222222222222
222222222222222222222222222222222222222222222222222222222222222222222222
222222222222222222222222222222222222222222222222222222222222222222222222
222222222222222222222222222222222222222222222222222222222222222222222222
222222222222222222222222222222222222222222222222222222222222222222222222
222222222222222222222222222222222222222222222222222222222222222222222222
222222222222222222222222222222222222222222222222222222222222222222222222
222222222222222222222222222222222222222222222222222222222222222222222222
222222222222222222222222222222222222222222222222222222222222222222222222
222222222222222222222222222222222222222222222222222222222222222222222222
222222222222222222222222222222222222222222222222222222222222222222222222
222222222222222222222222222222222222222222222222222222222222222222222222
222222222222222222222222222222222222222222222222222222222222222222222222
222222222222222222222222222222222222222222222222222222222222222222222222
222222222222222222222222222222222222222222222222222222222222222222222222
222222222222222222222222222222222222222222222222222222222222222222222222
222222222222222222222222222222222222222222222222222222222222222222222222
222222222222222222222222222222222222222222222222222222222222222222222222
222222222222222222222222222222222222222222222222222222222222222222222222
222222222222222222222222222222222222222222222222222222222222222222222222
222222222222222222222222222222222222222222222222222222222222222222222222
222222222222222222222222222222222222222222222222222222222222222222222222
222222222222222222222222222222222222222222222222222222222222222222222222
222222222222222222222222222222222222222222222222222222222222222222222222
222222222222222222222222222222222222222222222222222222222222222222222222
222222222222222222222222222222222222222222222222222222222222222222222222
222222222222222222222222222222222222222222222222222222222222222222222222
222222222222222222222222222222222222222222222222222222222222222222222222
222222222222222222222222222222222222222222222222222222222222222222222222
222222222222222222222222222222222222222222222222222222222222222222222222
222222222222222222222222222222222222222222222222222222222222222222222222
222222222222222222222222222222222222222222222222222222222222222222222222
222222222222222222222222222222222222222222222222222222222222222222222222
222222222222222222222222222222222222222222222222222222222222222222222222
222222222222222222222222222222222222222222222222222222222222222222222222
222222222222222222222222222222222222222222222222222222222222222222222222
222222222222222222222222222222222222222222222222222222222222222222222222
222222222222222222222222222222222222222222222222222222222222222222222222
222222222222222222222222222222222222222222222222222222222222222222222222
222222222222222222222222222222222222222222222222222222222222222222222222
222222222222222222222222222222222222222222222222222222222222222222222222
222222222222222222222222222222222222222222222222222222222222222222222222
222222222222222222222222222222222222222222222222222222222222222222222222
222222222222222222222222222222222222222222222222222222222222222222222222
222222222222222222222222222222222222222222222222222222222222222222222222
22222222
# atoms in fragment 1/2:   272  3264
 fragment masses (1/2) :     1264.41    15172.94
CMA distance (Bohr)    :  20.923
constraining FC (au)   :  0.0500

           -------------------------------------------------
          |                 G F N 2 - x T B                 |
           -------------------------------------------------

        Reference                      10.1021/acs.jctc.8b01176
      * Hamiltonian:
        H0-scaling (s, p, d)           1.850000    2.230000    2.230000
        zeta-weighting                 0.500000
      * Dispersion:
        s8                             2.700000
        a1                             0.520000
        a2                             5.000000
        s9                             5.000000
      * Repulsion:
        kExp                           1.500000    1.000000
        rExp                           1.000000
      * Coulomb:
        alpha                          2.000000
        third order                    shell-resolved
        anisotropic                    true
        a3                             3.000000
        a5                             4.000000
        cn-shift                       1.200000
        cn-exp                         4.000000
        max-rad                        5.000000


          ...................................................
          :                      SETUP                      :
          :.................................................:
          :  # basis functions                7046          :
          :  # atomic orbitals                7046          :
          :  # shells                         4706          :
          :  # electrons                      7046          :
          :  max. iterations                   250          :
          :  Hamiltonian                  GFN2-xTB          :
          :  restarted?                      false          :
          :  GBSA solvation                  false          :
          :  PC potential                    false          :
          :  electronic temp.          300.0000000     K    :
          :  accuracy                    1.0000000          :
          :  -> integral cutoff          0.2500000E+02      :
          :  -> integral neglect         0.1000000E-07      :
          :  -> SCF convergence          0.1000000E-05 Eh   :
          :  -> wf. convergence          0.1000000E-03 e    :
          :  Broyden damping             0.4000000          :
          ...................................................

 iter      E             dE          RMSdq      gap      omega  full diag
   1  -3766.7183044 -0.376672E+04  0.227E+00   11.40       0.0  T
   2  -3771.7679658 -0.504966E+01  0.126E+00   11.42       1.0  T
   3  -3771.9802709 -0.212305E+00  0.559E-01   11.42       1.0  T
   4  -3772.0021120 -0.218411E-01  0.143E-01   11.42       1.0  T
   5  -3772.0219769 -0.198649E-01  0.512E-02   11.42       1.0  T
   6  -3772.0219978 -0.208411E-04  0.712E-03   11.42       1.0  T
   7  -3772.0220303 -0.325651E-04  0.153E-03   11.42       1.1  T
   8  -3772.0220322 -0.189247E-05  0.542E-04   11.42       3.1  T
   9  -3772.0220323 -0.976675E-07  0.184E-04   11.42       9.1  T
  10  -3772.0220323 -0.149921E-07  0.699E-05   11.42      24.0  T

   *** convergence criteria satisfied after 10 iterations ***

         #    Occupation            Energy/Eh            Energy/eV
      -------------------------------------------------------------
         1        2.0000           -0.6272014             -17.0670
       ...           ...                  ...                  ...
      3517        2.0000           -0.3954214             -10.7600
      3518        2.0000           -0.3953910             -10.7591
      3519        2.0000           -0.3953609             -10.7583
      3520        2.0000           -0.3952837             -10.7562
      3521        2.0000           -0.3952127             -10.7543
      3522        2.0000           -0.3952021             -10.7540
      3523        2.0000           -0.3948878             -10.7454 (HOMO)
      3524                          0.0247921               0.6746 (LUMO)
      3525                          0.0300277               0.8171
      3526                          0.0302533               0.8232
      3527                          0.0305577               0.8315
      3528                          0.0307954               0.8380
       ...                                ...                  ...
      7046                          0.3858159              10.4986
      -------------------------------------------------------------
                  HL-Gap            0.4196799 Eh           11.4201 eV
             Fermi-level           -0.1850479 Eh           -5.0354 eV

 SCC (total)                   0 d,  0 h, 17 min, 24.611 sec
 SCC setup                      ...        0 min,  0.493 sec (  0.047%)
 Dispersion                     ...        0 min,  4.143 sec (  0.397%)
 classical contributions        ...        0 min,  0.149 sec (  0.014%)
 integral evaluation            ...        0 min,  6.963 sec (  0.667%)
 iterations                     ...       12 min, 49.768 sec ( 73.689%)
 molecular gradient             ...        4 min, 12.228 sec ( 24.146%)
 printout                       ...        0 min, 10.867 sec (  1.040%)

         :::::::::::::::::::::::::::::::::::::::::::::::::::::
         ::                     SUMMARY                     ::
         :::::::::::::::::::::::::::::::::::::::::::::::::::::
         :: total energy           -3716.239641515569 Eh    ::
         :: gradient norm              0.019447545916 Eh/a0 ::
         :: HOMO-LUMO gap             11.420071878317 eV    ::
         ::.................................................::
         :: SCC energy             -3772.022032347065 Eh    ::
         :: -> isotropic ES            0.587999207979 Eh    ::
         :: -> anisotropic ES          1.291270850462 Eh    ::
         :: -> anisotropic XC          2.079205697328 Eh    ::
         :: -> dispersion             -4.546099187840 Eh    ::
         :: repulsion energy          55.111404478727 Eh    ::
         :: add. restraining           0.000000000000 Eh    ::
         :: total charge              -0.000000000010 e     ::
         :::::::::::::::::::::::::::::::::::::::::::::::::::::

      ----------------------------------------------------------- 
     |              Fast Inertial Relaxation Engine              |
      ----------------------------------------------------------- 

          ...................................................
          :                      SETUP                      :
          :.................................................:
          :   energy convergence        0.5000000E-05 Eh    :
          :   grad. convergence         0.1000000E-02 Eh/a0 :
          :   optimization log               true           :
          :   writing optlog all                1     steps :
          :   Hessian reset                    20     steps :
          :   time step scaling                 5     steps :
          :   maximium step len.        1.0000000     a0    :
          :   initial time step         0.2500000     fs    :
          :   maximum time step         1.2500000     fs    :
          :   power reset thr           0.0000000     au    :
          :   alpha parameter           0.1000000           :
          :   BFGS update                   false           :
          :   preconditioning               false           :
          ...................................................

........................................................................
.............................. CYCLE    1 ..............................
........................................................................

 iter      E             dE          RMSdq      gap      omega  full diag
   1  -3772.0255398 -0.377203E+04  0.261E-04   11.42       0.0  T
   2  -3772.0255398 -0.287414E-07  0.154E-04   11.42      10.9  T
   3  -3772.0255398 -0.418822E-09  0.493E-05   11.42      34.1  T
     SCC iter.                  ...        3 min, 42.526 sec
     gradient                   ...        4 min, 13.780 sec
 * total energy  : -3716.2396842 Eh     change    :  -0.4267936E-04 Eh
   gradient norm :     0.0180273 Eh/a0  converged?    E=F G=F D=F
   time step     :     0.2500000 fs     power     :   0.2180011E-08
   step length   :     0.0022792 a0     speed     :   0.2205259E-03

........................................................................
.............................. CYCLE    2 ..............................
........................................................................

 iter      E             dE          RMSdq      gap      omega  full diag
   1  -3772.0306422 -0.377203E+04  0.382E-04   11.42       0.0  T
   2  -3772.0306423 -0.581163E-07  0.227E-04   11.42       7.4  T
   3  -3772.0306423 -0.788532E-09  0.692E-05   11.42      24.3  T
     SCC iter.                  ...        3 min, 52.061 sec
     gradient                   ...        4 min, 13.955 sec
 * total energy  : -3716.2397409 Eh     change    :  -0.5667386E-04 Eh
   gradient norm :     0.0159913 Eh/a0  converged?    E=F G=F D=F
   time step     :     0.2500000 fs     power     :   0.2824814E-08
   step length   :     0.0033353 a0     speed     :   0.3227062E-03

........................................................................
.............................. CYCLE    3 ..............................
........................................................................

 iter      E             dE          RMSdq      gap      omega  full diag
   1  -3772.0371116 -0.377204E+04  0.490E-04   11.42       0.0  T
   2  -3772.0371117 -0.932273E-07  0.290E-04   11.42       5.8  T
   3  -3772.0371117 -0.145019E-08  0.873E-05   11.42      19.3  T
     SCC iter.                  ...        3 min, 49.156 sec
     gradient                   ...        4 min, 17.185 sec
 * total energy  : -3716.2398035 Eh     change    :  -0.6264645E-04 Eh
   gradient norm :     0.0134728 Eh/a0  converged?    E=F G=F D=F
   time step     :     0.2500000 fs     power     :   0.3029240E-08
   step length   :     0.0042704 a0     speed     :   0.4131861E-03

........................................................................
.............................. CYCLE    4 ..............................
........................................................................

 iter      E             dE          RMSdq      gap      omega  full diag
   1  -3772.0446473 -0.377204E+04  0.579E-04   11.42       0.0  T
   2  -3772.0446474 -0.126797E-06  0.344E-04   11.42       4.9  T
   3  -3772.0446474 -0.203499E-08  0.101E-04   11.42      16.6  T
     SCC iter.                  ...        3 min, 46.606 sec
     gradient                   ...        4 min, 13.106 sec
 * total energy  : -3716.2398636 Eh     change    :  -0.6012935E-04 Eh
   gradient norm :     0.0106823 Eh/a0  converged?    E=F G=F D=F
   time step     :     0.2500000 fs     power     :   0.2786966E-08
   step length   :     0.0050525 a0     speed     :   0.4888535E-03

........................................................................
.............................. CYCLE    5 ..............................
........................................................................

 iter      E             dE          RMSdq      gap      omega  full diag
   1  -3772.0528682 -0.377205E+04  0.648E-04   11.42       0.0  T
   2  -3772.0528684 -0.152009E-06  0.385E-04   11.42       4.4  T
   3  -3772.0528684 -0.231421E-08  0.110E-04   11.42      15.3  T
     SCC iter.                  ...        3 min, 42.965 sec
     gradient                   ...        4 min, 12.231 sec
 * total energy  : -3716.2399138 Eh     change    :  -0.5015524E-04 Eh
   gradient norm :     0.0079778 Eh/a0  converged?    E=F G=F D=F
   time step     :     0.2500000 fs     power     :   0.2173128E-08
   step length   :     0.0056538 a0     speed     :   0.5470352E-03

........................................................................
.............................. CYCLE    6 ..............................
........................................................................

 iter      E             dE          RMSdq      gap      omega  full diag
   1  -3772.0621599 -0.377206E+04  0.766E-04   11.42       0.0  T
   2  -3772.0621601 -0.198874E-06  0.455E-04   11.42       3.7  T
   3  -3772.0621601 -0.291357E-08  0.123E-04   11.42      13.6  T
     SCC iter.                  ...        3 min, 45.580 sec
     gradient                   ...        4 min, 13.500 sec
 * total energy  : -3716.2399518 Eh     change    :  -0.3797030E-04 Eh
   gradient norm :     0.0059062 Eh/a0  converged?    E=F G=F D=F
   time step     :     0.2750000 fs     power     :   0.1247364E-08
   step length   :     0.0066938 a0     speed     :   0.5887839E-03

........................................................................
.............................. CYCLE    7 ..............................
........................................................................

 iter      E             dE          RMSdq      gap      omega  full diag
   1  -3772.0716216 -0.377207E+04  0.860E-04   11.42       0.0  T
   2  -3772.0716218 -0.213583E-06  0.512E-04   11.42       3.3  T
   3  -3772.0716218 -0.310547E-08  0.123E-04   11.42      13.6  T
     SCC iter.                  ...        3 min, 46.131 sec
     gradient                   ...        4 min, 14.164 sec
 * total energy  : -3716.2399713 Eh     change    :  -0.1955332E-04 Eh
   gradient norm :     0.0059147 Eh/a0  converged?    E=F G=F D=F
   time step     :     0.3025000 fs     power     :   0.2690344E-09
   step length   :     0.0075007 a0     speed     :   0.5997793E-03

........................................................................
.............................. CYCLE    8 ..............................
........................................................................

 iter      E             dE          RMSdq      gap      omega  full diag
   1  -3772.0797226 -0.377208E+04  0.896E-04   11.42       0.0  T
   2  -3772.0797227 -0.170040E-06  0.534E-04   11.42       3.1  T
   3  -3772.0797227 -0.240198E-08  0.102E-04   11.42      16.5  T
     SCC iter.                  ...        3 min, 45.763 sec
     gradient                   ...        4 min, 14.169 sec
 * total energy  : -3716.2399742 Eh     change    :  -0.2874026E-05 Eh
   gradient norm :     0.0075338 Eh/a0  converged?    E=T G=F D=F
   time step     :     0.3327500 fs     power     :  -0.3504195E-09
   step length   :     0.0077676 a0     speed     :   0.5646595E-03

........................................................................
.............................. CYCLE    9 ..............................
........................................................................
 * reset velocities

 iter      E             dE          RMSdq      gap      omega  full diag
   1  -3772.0794439 -0.377208E+04  0.303E-05   11.42       0.0  T
   2  -3772.0794439 -0.118143E-08  0.147E-05   11.42     114.7  T
   3  -3772.0794439 -0.441105E-10  0.803E-06   11.42     209.3  T
     SCC iter.                  ...        3 min, 47.684 sec
     gradient                   ...        4 min, 12.449 sec
 * total energy  : -3716.2399757 Eh     change    :  -0.1471838E-05 Eh
   gradient norm :     0.0074134 Eh/a0  converged?    E=T G=F D=T
   time step     :     0.1663750 fs     power     :   0.1156035E-09
   step length   :     0.0001955 a0     speed     :   0.2842674E-04

........................................................................
.............................. CYCLE   10 ..............................
........................................................................

 iter      E             dE          RMSdq      gap      omega  full diag
   1  -3772.0788908 -0.377208E+04  0.462E-05   11.42       0.0  T
   2  -3772.0788908 -0.598448E-09  0.274E-05   11.42      61.3  T
   3  -3772.0788908  0.000000E+00  0.747E-06   11.42     225.0  T
     SCC iter.                  ...        3 min, 42.218 sec
     gradient                   ...        4 min, 13.732 sec
 * total energy  : -3716.2399785 Eh     change    :  -0.2828516E-05 Eh
   gradient norm :     0.0071700 Eh/a0  converged?    E=T G=F D=T
   time step     :     0.1663750 fs     power     :   0.2217991E-09
   step length   :     0.0003879 a0     speed     :   0.5639866E-04

........................................................................
.............................. CYCLE   11 ..............................
........................................................................

 iter      E             dE          RMSdq      gap      omega  full diag
   1  -3772.0780751 -0.377208E+04  0.670E-05   11.42       0.0  T
   2  -3772.0780751 -0.143018E-08  0.397E-05   11.42      42.3  T
   3  -3772.0780751  0.400178E-10  0.109E-05   11.42     154.3  T
     SCC iter.                  ...        3 min, 48.302 sec
     gradient                   ...        4 min, 13.100 sec
 * total energy  : -3716.2399825 Eh     change    :  -0.4011063E-05 Eh
   gradient norm :     0.0068148 Eh/a0  converged?    E=T G=F D=T
   time step     :     0.1663750 fs     power     :   0.3117863E-09
   step length   :     0.0005740 a0     speed     :   0.8344960E-04

........................................................................
.............................. CYCLE   12 ..............................
........................................................................

 iter      E             dE          RMSdq      gap      omega  full diag
   1  -3772.0770139 -0.377208E+04  0.875E-05   11.42       0.0  T
   2  -3772.0770139 -0.234422E-08  0.519E-05   11.42      32.4  T
   3  -3772.0770139  0.682121E-11  0.141E-05   11.42     119.6  T
     SCC iter.                  ...        3 min, 48.350 sec
     gradient                   ...        4 min, 13.311 sec
 * total energy  : -3716.2399874 Eh     change    :  -0.4940667E-05 Eh
   gradient norm :     0.0063588 Eh/a0  converged?    E=T G=F D=T
   time step     :     0.1663750 fs     power     :   0.3801026E-09
   step length   :     0.0007507 a0     speed     :   0.1091493E-03

........................................................................
.............................. CYCLE   13 ..............................
........................................................................

 iter      E             dE          RMSdq      gap      omega  full diag
   1  -3772.0757305 -0.377208E+04  0.107E-04   11.42       0.0  T
   2  -3772.0757305 -0.336240E-08  0.632E-05   11.42      26.6  T
   3  -3772.0757305 -0.454747E-12  0.169E-05   11.42      99.6  T
     SCC iter.                  ...        3 min, 44.500 sec
     gradient                   ...        4 min, 13.178 sec
 * total energy  : -3716.2399930 Eh     change    :  -0.5556426E-05 Eh
   gradient norm :     0.0058183 Eh/a0  converged?    E=F G=F D=T
   time step     :     0.1663750 fs     power     :   0.4230560E-09
   step length   :     0.0009155 a0     speed     :   0.1330990E-03

........................................................................
.............................. CYCLE   14 ..............................
........................................................................

 iter      E             dE          RMSdq      gap      omega  full diag
   1  -3772.0742539 -0.377207E+04  0.124E-04   11.42       0.0  T
   2  -3772.0742539 -0.447699E-08  0.734E-05   11.42      22.9  T
   3  -3772.0742539 -0.782165E-10  0.193E-05   11.42      87.1  T
     SCC iter.                  ...        3 min, 56.947 sec
     gradient                   ...        4 min, 13.044 sec
 * total energy  : -3716.2399988 Eh     change    :  -0.5842086E-05 Eh
   gradient norm :     0.0052154 Eh/a0  converged?    E=F G=F D=F
   time step     :     0.1663750 fs     power     :   0.4390884E-09
   step length   :     0.0010657 a0     speed     :   0.1549392E-03

........................................................................
.............................. CYCLE   15 ..............................
........................................................................

 iter      E             dE          RMSdq      gap      omega  full diag
   1  -3772.0724378 -0.377207E+04  0.154E-04   11.42       0.0  T
   2  -3772.0724378 -0.675209E-08  0.914E-05   11.42      18.4  T
   3  -3772.0724378 -0.104137E-09  0.237E-05   11.42      70.9  T
     SCC iter.                  ...        3 min, 49.181 sec
     gradient                   ...        4 min, 13.164 sec
 * total energy  : -3716.2400053 Eh     change    :  -0.6416427E-05 Eh
   gradient norm :     0.0045121 Eh/a0  converged?    E=F G=F D=F
   time step     :     0.1830125 fs     power     :   0.4263914E-09
   step length   :     0.0013339 a0     speed     :   0.1763076E-03

........................................................................
.............................. CYCLE   16 ..............................
........................................................................

 iter      E             dE          RMSdq      gap      omega  full diag
   1  -3772.0702743 -0.377207E+04  0.187E-04   11.42       0.0  T
   2  -3772.0702743 -0.958107E-08  0.111E-04   11.42      15.1  T
   3  -3772.0702743 -0.140517E-09  0.280E-05   11.42      60.1  T
     SCC iter.                  ...        3 min, 46.656 sec
     gradient                   ...        4 min, 14.093 sec
 * total energy  : -3716.2400118 Eh     change    :  -0.6514773E-05 Eh
   gradient norm :     0.0037587 Eh/a0  converged?    E=F G=F D=F
   time step     :     0.2013138 fs     power     :   0.3805155E-09
   step length   :     0.0016329 a0     speed     :   0.1962023E-03

........................................................................
.............................. CYCLE   17 ..............................
........................................................................

 iter      E             dE          RMSdq      gap      omega  full diag
   1  -3772.0678021 -0.377207E+04  0.221E-04   11.42       0.0  T
   2  -3772.0678021 -0.125929E-07  0.131E-04   11.42      12.8  T
   3  -3772.0678021 -0.175078E-09  0.316E-05   11.42      53.3  T
     SCC iter.                  ...        3 min, 44.420 sec
     gradient                   ...        4 min, 11.919 sec
 * total energy  : -3716.2400178 Eh     change    :  -0.6047446E-05 Eh
   gradient norm :     0.0030877 Eh/a0  converged?    E=F G=F D=F
   time step     :     0.2214451 fs     power     :   0.3033220E-09
   step length   :     0.0019519 a0     speed     :   0.2132074E-03

........................................................................
.............................. CYCLE   18 ..............................
........................................................................

 iter      E             dE          RMSdq      gap      omega  full diag
   1  -3772.0651499 -0.377207E+04  0.252E-04   11.42       0.0  T
   2  -3772.0651499 -0.146092E-07  0.150E-04   11.42      11.2  T
   3  -3772.0651499 -0.155524E-09  0.331E-05   11.42      50.8  T
     SCC iter.                  ...        3 min, 46.189 sec
     gradient                   ...        4 min, 12.591 sec
 * total energy  : -3716.2400229 Eh     change    :  -0.5024948E-05 Eh
   gradient norm :     0.0027491 Eh/a0  converged?    E=F G=F D=F
   time step     :     0.2435896 fs     power     :   0.2087560E-09
   step length   :     0.0022674 a0     speed     :   0.2251557E-03

........................................................................
.............................. CYCLE   19 ..............................
........................................................................

 iter      E             dE          RMSdq      gap      omega  full diag
   1  -3772.0625844 -0.377206E+04  0.273E-04   11.42       0.0  T
   2  -3772.0625844 -0.142309E-07  0.162E-04   11.42      10.4  T
   3  -3772.0625844 -0.886757E-10  0.310E-05   11.42      54.3  T
     SCC iter.                  ...        3 min, 53.064 sec
     gradient                   ...        4 min, 12.303 sec
 * total energy  : -3716.2400266 Eh     change    :  -0.3777920E-05 Eh
   gradient norm :     0.0029076 Eh/a0  converged?    E=T G=F D=F
   time step     :     0.2679486 fs     power     :   0.1268746E-09
   step length   :     0.0025378 a0     speed     :   0.2290983E-03

........................................................................
.............................. CYCLE   20 ..............................
........................................................................

 iter      E             dE          RMSdq      gap      omega  full diag
   1  -3772.0604577 -0.377206E+04  0.282E-04   11.42       0.0  T
   2  -3772.0604577 -0.108612E-07  0.168E-04   11.42      10.0  T
   3  -3772.0604577 -0.273303E-09  0.250E-05   11.42      67.3  T
     SCC iter.                  ...        3 min, 45.428 sec
     gradient                   ...        4 min, 12.528 sec
 * total energy  : -3716.2400296 Eh     change    :  -0.2994524E-05 Eh
   gradient norm :     0.0033471 Eh/a0  converged?    E=T G=F D=F
   time step     :     0.2947435 fs     power     :   0.8856351E-10
   step length   :     0.0027413 a0     speed     :   0.2249702E-03
 * RMSD in coord.:     0.0006916 a0     energy gain  -0.3881085E-03 Eh

........................................................................
.............................. CYCLE   21 ..............................
........................................................................

 iter      E             dE          RMSdq      gap      omega  full diag
   1  -3772.0593676 -0.377206E+04  0.218E-04   11.42       0.0  T
   2  -3772.0593676 -0.401224E-08  0.129E-04   11.42      13.0  T
   3  -3772.0593676 -0.149612E-09  0.139E-05   11.42     120.7  T
     SCC iter.                  ...        3 min, 41.834 sec
     gradient                   ...        4 min, 12.721 sec
 * total energy  : -3716.2400321 Eh     change    :  -0.2497687E-05 Eh
   gradient norm :     0.0036310 Eh/a0  converged?    E=T G=F D=F
   time step     :     0.2500000 fs     power     :   0.1083074E-09
   step length   :     0.0022243 a0     speed     :   0.2152122E-03

........................................................................
.............................. CYCLE   22 ..............................
........................................................................

 iter      E             dE          RMSdq      gap      omega  full diag
   1  -3772.0589937 -0.377206E+04  0.202E-04   11.42       0.0  T
   2  -3772.0589937 -0.235150E-08  0.119E-04   11.42      14.2  T
   3  -3772.0589937 -0.941327E-10  0.113E-05   11.42     148.2  T
     SCC iter.                  ...        3 min, 42.844 sec
     gradient                   ...        4 min, 11.406 sec
 * total energy  : -3716.2400352 Eh     change    :  -0.3113757E-05 Eh
   gradient norm :     0.0037008 Eh/a0  converged?    E=T G=F D=F
   time step     :     0.2500000 fs     power     :   0.1507607E-09
   step length   :     0.0021534 a0     speed     :   0.2083520E-03

........................................................................
.............................. CYCLE   23 ..............................
........................................................................

 iter      E             dE          RMSdq      gap      omega  full diag
   1  -3772.0592925 -0.377206E+04  0.194E-04   11.42       0.0  T
   2  -3772.0592925 -0.245291E-08  0.114E-04   11.42      14.8  T
   3  -3772.0592925 -0.144155E-09  0.137E-05   11.42     122.8  T
     SCC iter.                  ...        3 min, 46.327 sec
     gradient                   ...        4 min, 13.046 sec
 * total energy  : -3716.2400391 Eh     change    :  -0.3891433E-05 Eh
   gradient norm :     0.0035372 Eh/a0  converged?    E=T G=F D=F
   time step     :     0.2500000 fs     power     :   0.1936151E-09
   step length   :     0.0021307 a0     speed     :   0.2061577E-03

........................................................................
.............................. CYCLE   24 ..............................
........................................................................

 iter      E             dE          RMSdq      gap      omega  full diag
   1  -3772.0601941 -0.377206E+04  0.195E-04   11.42       0.0  T
   2  -3772.0601941 -0.391765E-08  0.113E-04   11.42      14.9  T
   3  -3772.0601941 -0.695763E-10  0.187E-05   11.42      89.8  T
     SCC iter.                  ...        3 min, 44.471 sec
     gradient                   ...        4 min, 10.673 sec
 * total energy  : -3716.2400436 Eh     change    :  -0.4473087E-05 Eh
   gradient norm :     0.0031655 Eh/a0  converged?    E=T G=F D=F
   time step     :     0.2500000 fs     power     :   0.2196971E-09
   step length   :     0.0021527 a0     speed     :   0.2082894E-03

........................................................................
.............................. CYCLE   25 ..............................
........................................................................

 iter      E             dE          RMSdq      gap      omega  full diag
   1  -3772.0616094 -0.377206E+04  0.200E-04   11.42       0.0  T
   2  -3772.0616094 -0.613090E-08  0.116E-04   11.42      14.6  T
   3  -3772.0616094  0.200089E-10  0.237E-05   11.42      71.1  T
     SCC iter.                  ...        3 min, 46.146 sec
     gradient                   ...        4 min, 13.332 sec
 * total energy  : -3716.2400482 Eh     change    :  -0.4560099E-05 Eh
   gradient norm :     0.0026432 Eh/a0  converged?    E=T G=F D=F
   time step     :     0.2500000 fs     power     :   0.2194480E-09
   step length   :     0.0022040 a0     speed     :   0.2132500E-03

........................................................................
.............................. CYCLE   26 ..............................
........................................................................

 iter      E             dE          RMSdq      gap      omega  full diag
   1  -3772.0636364 -0.377206E+04  0.227E-04   11.42       0.0  T
   2  -3772.0636364 -0.101013E-07  0.131E-04   11.42      12.8  T
   3  -3772.0636364  0.181899E-11  0.305E-05   11.42      55.1  T
     SCC iter.                  ...        3 min, 47.605 sec
     gradient                   ...        4 min, 12.510 sec
 * total energy  : -3716.2400527 Eh     change    :  -0.4551855E-05 Eh
   gradient norm :     0.0020203 Eh/a0  converged?    E=T G=F D=F
   time step     :     0.2750000 fs     power     :   0.1870712E-09
   step length   :     0.0025054 a0     speed     :   0.2203743E-03

........................................................................
.............................. CYCLE   27 ..............................
........................................................................

 iter      E             dE          RMSdq      gap      omega  full diag
   1  -3772.0661997 -0.377207E+04  0.253E-04   11.42       0.0  T
   2  -3772.0661997 -0.139762E-07  0.146E-04   11.42      11.5  T
   3  -3772.0661997 -0.259206E-10  0.356E-05   11.42      47.2  T
     SCC iter.                  ...        3 min, 49.511 sec
     gradient                   ...        4 min, 11.441 sec
 * total energy  : -3716.2400565 Eh     change    :  -0.3826743E-05 Eh
   gradient norm :     0.0015935 Eh/a0  converged?    E=T G=F D=F
   time step     :     0.3025000 fs     power     :   0.1265989E-09
   step length   :     0.0028394 a0     speed     :   0.2270453E-03

........................................................................
.............................. CYCLE   28 ..............................
........................................................................

 iter      E             dE          RMSdq      gap      omega  full diag
   1  -3772.0689905 -0.377207E+04  0.263E-04   11.42       0.0  T
   2  -3772.0689905 -0.145264E-07  0.151E-04   11.42      11.1  T
   3  -3772.0689905  0.395630E-10  0.355E-05   11.42      47.4  T
     SCC iter.                  ...        3 min, 44.407 sec
     gradient                   ...        4 min, 12.222 sec
 * total energy  : -3716.2400592 Eh     change    :  -0.2640465E-05 Eh
   gradient norm :     0.0017783 Eh/a0  converged?    E=T G=F D=F
   time step     :     0.3327500 fs     power     :   0.6551416E-10
   step length   :     0.0031390 a0     speed     :   0.2281892E-03

........................................................................
.............................. CYCLE   29 ..............................
........................................................................

 iter      E             dE          RMSdq      gap      omega  full diag
   1  -3772.0714757 -0.377207E+04  0.247E-04   11.42       0.0  T
   2  -3772.0714757 -0.967157E-08  0.142E-04   11.42      11.8  T
   3  -3772.0714757 -0.732143E-10  0.279E-05   11.42      60.2  T
     SCC iter.                  ...        3 min, 40.668 sec
     gradient                   ...        4 min, 11.369 sec
 * total energy  : -3716.2400611 Eh     change    :  -0.1882915E-05 Eh
   gradient norm :     0.0022728 Eh/a0  converged?    E=T G=F D=F
   time step     :     0.3660250 fs     power     :   0.4186064E-10
   step length   :     0.0033254 a0     speed     :   0.2197573E-03

........................................................................
.............................. CYCLE   30 ..............................
........................................................................

 iter      E             dE          RMSdq      gap      omega  full diag
   1  -3772.0732317 -0.377207E+04  0.220E-04   11.42       0.0  T
   2  -3772.0732317 -0.387035E-08  0.128E-04   11.42      13.2  T
   3  -3772.0732317 -0.123691E-09  0.163E-05   11.42     103.4  T
     SCC iter.                  ...        3 min, 43.164 sec
     gradient                   ...        4 min, 14.757 sec
 * total energy  : -3716.2400634 Eh     change    :  -0.2296117E-05 Eh
   gradient norm :     0.0025809 Eh/a0  converged?    E=T G=F D=F
   time step     :     0.4026275 fs     power     :   0.6217322E-10
   step length   :     0.0034818 a0     speed     :   0.2091754E-03

........................................................................
.............................. CYCLE   31 ..............................
........................................................................

 iter      E             dE          RMSdq      gap      omega  full diag
   1  -3772.0739676 -0.377207E+04  0.202E-04   11.42       0.0  T
   2  -3772.0739676 -0.136788E-08  0.119E-04   11.42      14.1  T
   3  -3772.0739676 -0.468390E-10  0.947E-06   11.42     177.7  T
     SCC iter.                  ...        3 min, 44.031 sec
     gradient                   ...        4 min, 11.767 sec
 * total energy  : -3716.2400671 Eh     change    :  -0.3723057E-05 Eh
   gradient norm :     0.0024890 Eh/a0  converged?    E=T G=F D=F
   time step     :     0.4428903 fs     power     :   0.1016627E-09
   step length   :     0.0037330 a0     speed     :   0.2038831E-03

........................................................................
.............................. CYCLE   32 ..............................
........................................................................

 iter      E             dE          RMSdq      gap      omega  full diag
   1  -3772.0735490 -0.377207E+04  0.210E-04   11.42       0.0  T
   2  -3772.0735490 -0.551745E-08  0.127E-04   11.42      13.3  T
   3  -3772.0735490  0.160071E-09  0.190E-05   11.42      88.7  T
     SCC iter.                  ...        3 min, 44.709 sec
     gradient                   ...        4 min, 11.487 sec
 * total energy  : -3716.2400722 Eh     change    :  -0.5139809E-05 Eh
   gradient norm :     0.0020073 Eh/a0  converged?    E=F G=F D=F
   time step     :     0.4871793 fs     power     :   0.1223581E-09
   step length   :     0.0041564 a0     speed     :   0.2063708E-03

........................................................................
.............................. CYCLE   33 ..............................
........................................................................

 iter      E             dE          RMSdq      gap      omega  full diag
   1  -3772.0721460 -0.377207E+04  0.235E-04   11.42       0.0  T
   2  -3772.0721460 -0.145405E-07  0.143E-04   11.42      11.7  T
   3  -3772.0721460  0.559339E-10  0.341E-05   11.42      49.4  T
     SCC iter.                  ...        3 min, 45.679 sec
     gradient                   ...        4 min, 11.605 sec
 * total energy  : -3716.2400775 Eh     change    :  -0.5256055E-05 Eh
   gradient norm :     0.0015486 Eh/a0  converged?    E=F G=F D=F
   time step     :     0.5358972 fs     power     :   0.1011648E-09
   step length   :     0.0047370 a0     speed     :   0.2138131E-03

........................................................................
.............................. CYCLE   34 ..............................
........................................................................

 iter      E             dE          RMSdq      gap      omega  full diag
   1  -3772.0705745 -0.377207E+04  0.237E-04   11.42       0.0  T
   2  -3772.0705745 -0.176437E-07  0.146E-04   11.42      11.5  T
   3  -3772.0705745 -0.141426E-09  0.372E-05   11.42      45.2  T
     SCC iter.                  ...        3 min, 42.913 sec
     gradient                   ...        4 min, 11.362 sec
 * total energy  : -3716.2400818 Eh     change    :  -0.4288765E-05 Eh
   gradient norm :     0.0017840 Eh/a0  converged?    E=T G=F D=F
   time step     :     0.5894869 fs     power     :   0.6692780E-10
   step length   :     0.0053417 a0     speed     :   0.2191902E-03

........................................................................
.............................. CYCLE   35 ..............................
........................................................................

 iter      E             dE          RMSdq      gap      omega  full diag
   1  -3772.0701327 -0.377207E+04  0.221E-04   11.42       0.0  T
   2  -3772.0701327 -0.806995E-08  0.135E-04   11.42      12.5  T
   3  -3772.0701327 -0.559339E-10  0.208E-05   11.42      81.0  T
     SCC iter.                  ...        3 min, 42.848 sec
     gradient                   ...        4 min, 12.469 sec
 * total energy  : -3716.2400861 Eh     change    :  -0.4371673E-05 Eh
   gradient norm :     0.0021027 Eh/a0  converged?    E=T G=F D=F
   time step     :     0.6484356 fs     power     :   0.7306322E-10
   step length   :     0.0058460 a0     speed     :   0.2180740E-03

........................................................................
.............................. CYCLE   36 ..............................
........................................................................

 iter      E             dE          RMSdq      gap      omega  full diag
   1  -3772.0716683 -0.377207E+04  0.264E-04   11.42       0.0  T
   2  -3772.0716683 -0.334285E-08  0.156E-04   11.42      10.8  T
   3  -3772.0716683 -0.727596E-10  0.159E-05   11.42     105.9  T
     SCC iter.                  ...        3 min, 45.898 sec
     gradient                   ...        4 min, 12.822 sec
 * total energy  : -3716.2400923 Eh     change    :  -0.6164154E-05 Eh
   gradient norm :     0.0018404 Eh/a0  converged?    E=F G=F D=F
   time step     :     0.7132792 fs     power     :   0.1006066E-09
   step length   :     0.0064889 a0     speed     :   0.2200519E-03

........................................................................
.............................. CYCLE   37 ..............................
........................................................................

 iter      E             dE          RMSdq      gap      omega  full diag
   1  -3772.0751448 -0.377208E+04  0.347E-04   11.42       0.0  T
   2  -3772.0751449 -0.151917E-07  0.201E-04   11.42       8.4  T
   3  -3772.0751449 -0.272848E-11  0.358E-05   11.42      46.9  T
     SCC iter.                  ...        3 min, 46.919 sec
     gradient                   ...        4 min, 12.334 sec
 * total energy  : -3716.2400992 Eh     change    :  -0.6916930E-05 Eh
   gradient norm :     0.0014150 Eh/a0  converged?    E=F G=F D=F
   time step     :     0.7846071 fs     power     :   0.8988911E-10
   step length   :     0.0074257 a0     speed     :   0.2289289E-03

........................................................................
.............................. CYCLE   38 ..............................
........................................................................

 iter      E             dE          RMSdq      gap      omega  full diag
   1  -3772.0787383 -0.377208E+04  0.343E-04   11.42       0.0  T
   2  -3772.0787383 -0.187806E-07  0.199E-04   11.42       8.4  T
   3  -3772.0787383 -0.462478E-09  0.378E-05   11.42      44.4  T
     SCC iter.                  ...        3 min, 44.699 sec
     gradient                   ...        4 min, 13.018 sec
 * total energy  : -3716.2401053 Eh     change    :  -0.6069681E-05 Eh
   gradient norm :     0.0017459 Eh/a0  converged?    E=F G=F D=F
   time step     :     0.8630678 fs     power     :   0.6673268E-10
   step length   :     0.0084406 a0     speed     :   0.2365615E-03

........................................................................
.............................. CYCLE   39 ..............................
........................................................................

 iter      E             dE          RMSdq      gap      omega  full diag
   1  -3772.0797711 -0.377208E+04  0.282E-04   11.42       0.0  T
   2  -3772.0797711 -0.870523E-08  0.166E-04   11.42      10.1  T
   3  -3772.0797711 -0.377440E-09  0.288E-05   11.42      58.4  T
     SCC iter.                  ...        3 min, 41.754 sec
     gradient                   ...        4 min, 12.521 sec
 * total energy  : -3716.2401125 Eh     change    :  -0.7250143E-05 Eh
   gradient norm :     0.0016731 Eh/a0  converged?    E=F G=F D=F
   time step     :     0.9493746 fs     power     :   0.8550910E-10
   step length   :     0.0094027 a0     speed     :   0.2395683E-03

........................................................................
.............................. CYCLE   40 ..............................
........................................................................

 iter      E             dE          RMSdq      gap      omega  full diag
   1  -3772.0776008 -0.377208E+04  0.350E-04   11.42       0.0  T
   2  -3772.0776008 -0.242121E-07  0.208E-04   11.42       8.1  T
   3  -3772.0776008  0.142791E-09  0.502E-05   11.42      33.5  T
     SCC iter.                  ...        3 min, 44.435 sec
     gradient                   ...        4 min, 10.771 sec
 * total energy  : -3716.2401208 Eh     change    :  -0.8255402E-05 Eh
   gradient norm :     0.0013902 Eh/a0  converged?    E=F G=F D=F
   time step     :     1.0443120 fs     power     :   0.7622782E-10
   step length   :     0.0107318 a0     speed     :   0.2485759E-03

........................................................................
.............................. CYCLE   41 ..............................
........................................................................

 iter      E             dE          RMSdq      gap      omega  full diag
   1  -3772.0756793 -0.377208E+04  0.367E-04   11.42       0.0  T
   2  -3772.0756793 -0.144055E-07  0.218E-04   11.42       7.7  T
   3  -3772.0756793  0.759428E-10  0.314E-05   11.42      53.5  T
     SCC iter.                  ...        3 min, 44.026 sec
     gradient                   ...        4 min, 10.319 sec
 * total energy  : -3716.2401288 Eh     change    :  -0.7984228E-05 Eh
   gradient norm :     0.0016476 Eh/a0  converged?    E=F G=F D=F
   time step     :     1.1487432 fs     power     :   0.7015503E-10
   step length   :     0.0121505 a0     speed     :   0.2558508E-03

........................................................................
.............................. CYCLE   42 ..............................
........................................................................

 iter      E             dE          RMSdq      gap      omega  full diag
   1  -3772.0776731 -0.377208E+04  0.413E-04   11.42       0.0  T
   2  -3772.0776731 -0.203031E-07  0.239E-04   11.42       7.0  T
   3  -3772.0776731 -0.864020E-10  0.455E-05   11.42      36.9  T
     SCC iter.                  ...        3 min, 48.631 sec
     gradient                   ...        4 min, 11.971 sec
 * total energy  : -3716.2401382 Eh     change    :  -0.9422013E-05 Eh
   gradient norm :     0.0013023 Eh/a0  converged?    E=F G=F D=F
   time step     :     1.2500000 fs     power     :   0.7444791E-10
   step length   :     0.0135945 a0     speed     :   0.2630691E-03
 * RMSD in coord.:     0.0017266 a0     energy gain  -0.1085761E-03 Eh

........................................................................
.............................. CYCLE   43 ..............................
........................................................................

 iter      E             dE          RMSdq      gap      omega  full diag
   1  -3772.0781332 -0.377208E+04  0.693E-05   11.42       0.0  T
   2  -3772.0781332 -0.605723E-09  0.408E-05   11.42      41.2  T
   3  -3772.0781332 -0.723048E-10  0.653E-06   11.42     257.5  T
     SCC iter.                  ...        3 min, 46.109 sec
     gradient                   ...        4 min, 12.948 sec
 * total energy  : -3716.2401399 Eh     change    :  -0.1677613E-05 Eh
   gradient norm :     0.0013033 Eh/a0  converged?    E=T G=F D=F
   time step     :     0.2500000 fs     power     :   0.8421805E-10
   step length   :     0.0026046 a0     speed     :   0.2520134E-03

........................................................................
.............................. CYCLE   44 ..............................
........................................................................

 iter      E             dE          RMSdq      gap      omega  full diag
   1  -3772.0785672 -0.377208E+04  0.658E-05   11.42       0.0  T
   2  -3772.0785672 -0.683940E-09  0.385E-05   11.42      43.6  T
   3  -3772.0785672  0.500222E-11  0.816E-06   11.42     206.1  T
     SCC iter.                  ...        3 min, 43.842 sec
     gradient                   ...        4 min, 11.080 sec
 * total energy  : -3716.2401417 Eh     change    :  -0.1802328E-05 Eh
   gradient norm :     0.0012228 Eh/a0  converged?    E=T G=F D=F
   time step     :     0.2500000 fs     power     :   0.9210376E-10
   step length   :     0.0025193 a0     speed     :   0.2437542E-03

........................................................................
.............................. CYCLE   45 ..............................
........................................................................

 iter      E             dE          RMSdq      gap      omega  full diag
   1  -3772.0789101 -0.377208E+04  0.735E-05   11.42       0.0  T
   2  -3772.0789101 -0.673026E-09  0.431E-05   11.42      39.0  T
   3  -3772.0789101  0.750333E-10  0.819E-06   11.42     205.3  T
     SCC iter.                  ...        3 min, 49.570 sec
     gradient                   ...        4 min, 13.189 sec
 * total energy  : -3716.2401435 Eh     change    :  -0.1866377E-05 Eh
   gradient norm :     0.0010958 Eh/a0  converged?    E=T G=F D=F
   time step     :     0.2500000 fs     power     :   0.9460845E-10
   step length   :     0.0024642 a0     speed     :   0.2384223E-03

........................................................................
.............................. CYCLE   46 ..............................
........................................................................

 iter      E             dE          RMSdq      gap      omega  full diag
   1  -3772.0791210 -0.377208E+04  0.832E-05   11.42       0.0  T
   2  -3772.0791210 -0.784894E-09  0.489E-05   11.42      34.4  T
   3  -3772.0791210  0.545697E-11  0.810E-06   11.42     207.5  T
     SCC iter.                  ...        3 min, 53.196 sec
     gradient                   ...        4 min, 11.905 sec
 * total energy  : -3716.2401454 Eh     change    :  -0.1841126E-05 Eh
   gradient norm :     0.0009856 Eh/a0  converged?    E=T G=T D=F
   time step     :     0.2500000 fs     power     :   0.9167767E-10
   step length   :     0.0024340 a0     speed     :   0.2355045E-03

   *** GEOMETRY OPTIMIZATION CONVERGED AFTER 46 CYCLES ***

------------------------------------------------------------------------
 total energy gain   :        -0.0005039 Eh       -0.3162 kcal/mol
 total RMSD          :         0.0021947 a0        0.0012 Å
 total power (kW/mol):        -0.0287590 (step)   -0.0001 (real)
------------------------------------------------------------------------

 FIRE (total)                  0 d,  6 h, 24 min, 39.855 sec
 setup                          ...        0 min,  0.134 sec (  0.001%)
 velocities                     ...        0 min,  0.004 sec (  0.000%)
 propagation                    ...        0 min,  0.006 sec (  0.000%)
 singlepoint calculation        ...      384 min, 38.905 sec ( 99.996%)
 log and printout               ...        0 min,  0.726 sec (  0.003%)
 preconditioner                 ...        0 min,  0.000 sec (  0.000%)
 model hessian                  ...        0 min,  0.000 sec (  0.000%)
 hessian update                 ...        0 min,  0.000 sec (  0.000%)

================
 final structure:
================
3536
 xtb: 6.6.1 (8d0f1dd)
C           70.04457535921317       42.01413287007926       54.17978150741053
C           70.24646913724318       43.47869402947161       53.79956839239668
C           71.28582325937370       44.11635218127601       54.72090107151425
C           68.94263257174626       44.28179358306652       53.87814141624923
C           67.80059363386725       43.80169721593253       52.97397511922235
C           68.23289341018197       43.77117324453666       51.50817470668391
C           66.58025307838655       44.72483236507872       53.11680113862187
C           65.78966258613107       44.57477398677219       54.42224911842506
C           64.95616836044307       43.29276454485803       54.39586653888916
C           64.84412076342063       45.76309601489225       54.65930662947218
C           65.49625267780992       47.13077656641192       54.89746205180970
C           66.41730828347364       47.10225704732525       56.11571849718123
C           64.42355864921922       48.21103573500760       55.10936422154165
C           63.62313666592842       48.61959595545424       53.86765195653714
C           64.51026310409759       49.37726585712334       52.87911728376587
C           62.42709897449746       49.50153377100859       54.26400287186895
C           61.25219327743773       48.77712196302974       54.93475037393677
C           60.57823381820655       47.80795808911996       53.96526211066382
C           60.20508246400340       49.78503781258478       55.43796283495172
C           60.57141468885701       50.54692274735712       56.71642916483287
C           60.61980952757256       49.60436370555214       57.91971113047710
C           59.55290099031883       51.65985588917493       57.01400657622720
C           59.49324544907791       52.82657346796638       56.02079732837060
C           60.85377782001869       53.51192017478232       55.89399970462961
C           58.45260265305261       53.86676237555170       56.46543353442652
C           56.97831284819008       53.46837350546696       56.31781511306810
C           56.57032487851528       53.41850756135846       54.84898827902285
C           56.09146194184195       54.48525400859295       57.05031346064697
C           56.05000650772901       54.28586432298859       58.57286698221407
C           54.90786566928012       53.34231676581545       58.93944737084866
C           55.91237415836520       55.64196695333889       59.27209702066123
C           55.91679855919026       55.60419156573026       60.80456071384058
C           55.67791469403674       57.01647114694978       61.33593817146050
C           57.22860294739551       55.02461033623082       61.36778507088668
C           57.01851156886325       53.79319577751034       62.25365433186497
C           56.37626279867145       54.19361418533212       63.58156618691834
C           58.32717693752069       53.04507824979517       62.53357841979058
C           58.99421362163222       52.36007999955633       61.33383675184071
C           58.07088041734171       51.32220627724872       60.69621432640687
C           60.30392078494523       51.69756524146987       61.79131624803733
C           61.49653088496468       52.65935239434567       61.90745108953761
C           62.08426552781766       52.94882435210550       60.52828377965711
C           62.53891520485425       52.04142889254009       62.85013671469368
C           63.85651954020891       52.81006567136619       63.02500154234570
C           64.80309889748634       51.96417666650029       63.87689544932384
C           63.63031434239698       54.18294689223328       63.66765415823794
C           64.82856354839802       55.14377419281913       63.59809335191274
C           64.59745282770552       56.30967205631354       64.55892531850661
C           65.03088251969319       55.63627797346943       62.15920318239354
C           66.11664708194510       56.70090409086126       61.94527820457227
C           66.06435200203723       57.16793901016842       60.49180422082794
C           67.50216010756597       56.15355745911048       62.30718179710884
C           68.67799372446221       57.13161691533345       62.16229609682845
C           69.98365256324882       56.36222327611970       62.36556037108535
C           68.57314764714405       58.28629715936537       63.16609467790453
C           69.44738884438613       59.50486400644863       62.83676085625879
C           69.53993845718280       60.39958562855374       64.07341562294303
C           68.89080917656682       60.28428274811350       61.63020050259156
C           69.93605447399814       60.64204391070467       60.56483829544230
C           70.93928398100456       61.65865218836068       61.10309208496554
C           69.22773210829165       61.17963031672066       59.31441077372036
C           70.14807495921140       61.38499214694988       58.09628457240146
C           70.19143105356909       62.86176608705165       57.70005835671355
C           69.70208102533444       60.55611247320824       56.88415510522653
C           69.76492978778737       59.03462427300433       57.06342909583019
C           71.21071417426646       58.55510043519745       57.18971663745938
C           69.10765982732487       58.32251155448174       55.87105188589334
C           67.58038209548387       58.43044849711029       55.79037444106923
C           66.91739504678024       57.56281066767913       56.85846065252094
C           67.06786593113955       57.99904750057712       54.40817462095492
C           67.40387516910690       58.93744930129368       53.24448105886417
C           66.80854981455903       60.32808527625964       53.46466522772592
C           66.87029319051275       58.37938804074260       51.91740884015462
C           67.52769229443932       57.10704780208717       51.36041809844393
C           69.01323042961418       57.31973033787572       51.08922386564224
C           66.75361084954233       56.72986254763620       50.08576334447734
C           67.33475395892205       55.62792080435647       49.18915856348215
C           66.41539982294628       55.47126602536668       47.97781107913454
C           67.48053632030665       54.30077703425994       49.93894909996518
C           68.27420415045079       53.19909612460268       49.21747500335943
C           68.10454642238716       51.89369428389043       49.99484172822203
C           69.75325210415528       53.58854977214504       49.09653723266848
C           70.68941328800113       52.55138559764403       48.45630022078171
C           72.13762327055909       52.96973778022779       48.70855428758988
C           70.39795853417614       52.39152321974002       46.95837187808500
C           71.17027261484496       51.24993457265717       46.27291156317078
C           72.41959248641241       51.74935235602658       45.54751080550382
C           70.27101215392015       50.45807459485722       45.31059817050863
C           69.75155033723058       51.24546205078286       44.11010727149147
C           68.89652776278457       50.36623468186458       43.20543978494372
H           69.61030836506136       41.93558682507351       55.17392808379588
H           69.38629791201812       41.51127384949579       53.47621580710464
H           70.99821345984034       41.49004095828873       54.18158424672119
H           68.05899195849176       49.94394333880287       43.75634144685534
H           68.50155946390956       50.94388903175487       42.37277921698269
H           69.48552673799064       49.54353678788650       42.80530158539644
H           70.83124494292126       49.59378774428568       44.94457419055634
H           69.41341576436106       50.07831925765939       45.87192528870528
H           69.32997298166724       52.19940904121175       46.84671143910370
H           70.61650185316036       53.33279909146550       46.45148588961462
H           70.53483956862094       51.58565732311354       48.94640317904740
H           72.30017237036850       53.15863493396456       49.76803332609398
H           72.82690585627485       52.18739794935428       48.40438908055531
H           72.37615402295403       53.87704537954743       48.15763435431131
H           69.83461958328067       54.51308959314587       48.52090393241680
H           70.11874167519244       53.79885796116039       50.10431536180663
H           67.96185620663958       54.48134927759676       50.90137631638908
H           66.47461410757350       53.92297133670580       50.14200250552133
H           71.49071722873073       50.54144778498760       47.04639422204414
H           73.13155038544302       52.18317966500262       46.24315368883575
H           72.90939417560749       50.92650235983972       45.03010157230486
H           72.16097431702663       52.50941622818070       44.81447136813884
H           67.85254707945369       53.05790638275033       48.21851817270342
H           68.60486381969189       51.95826935626830       50.95909467180723
H           67.04947998680771       51.69264694296680       50.17159173488218
H           68.51731329088359       51.05018134261098       49.44923334847225
H           68.31415195072013       55.95464409445540       48.83235134405850
H           66.32743850098421       56.41412350047348       47.44352790311835
H           66.79655373765553       54.72685801790384       47.28587626815348
H           65.42003151923430       55.16364646162169       48.29453953434380
H           65.74478002006930       56.43447100332521       50.38219631053922
H           66.65757622341330       57.62753408043729       49.47002599828595
H           67.41926631302843       56.29964758493841       52.09008093639824
H           69.53473750211990       57.60126432401513       52.00064835926384
H           69.47139455919221       56.40821796006017       50.71649932064185
H           69.15320265637659       58.10550075137324       50.35165893035475
H           65.79973976641929       58.18722099663160       52.03431338145032
H           66.97687381362903       59.16043843484812       51.16051833623670
H           68.48812035389452       59.04809084437857       53.16655950213725
H           65.73441808415373       60.26138474685381       53.62431289298698
H           67.25640825544303       60.81611508215646       54.32466200672814
H           66.98490951294454       60.95951172213572       52.59698900937875
H           67.47368105781408       57.00856486613947       54.19082455750634
H           65.97944706984060       57.90335205251766       54.45923114320150
H           67.27666980075722       59.46355696180261       55.97036533944257
H           65.84426742003058       57.74278557517450       56.87968896539383
H           67.08858010334981       56.50802252380418       56.65472912663900
H           67.31198862366269       57.78896182456024       57.84421477477795
H           69.54945798895801       58.72779788076066       54.95919432829995
H           69.36693017277886       57.26192464424140       55.91101417554010
H           69.23747370595582       58.75755775833812       57.98010714216547
H           71.77246952294409       58.79787298129084       56.28949746313613
H           71.70696709420027       59.01755963304209       58.03837022812449
H           71.24201124532948       57.47719597090245       57.33443827840912
H           68.67916314693356       60.84868930227373       56.63789394769073
H           70.32964418726462       60.82468583635107       56.03006740096920
H           71.16476897000830       61.08256664696207       58.35981750407187
H           69.20477133660090       63.19919743172673       57.38652011272049
H           70.51553886814540       63.47462627844058       58.53794943852721
H           70.88251129018566       63.02076636815521       56.87448500236019
H           68.43024253001242       60.48464329087400       59.04908703079364
H           68.75044118634835       62.12601184958415       59.57245221604236
H           70.47335210547726       59.72637750760697       60.29057512116209
H           71.66382125854186       61.93330498844950       60.34052979924430
H           70.42319262784441       62.56200110207399       61.42360518675538
H           71.48614205977168       61.25262453385801       61.95017680103089
H           68.10976629858781       59.69078018392059       61.15086590395569
H           68.41940133829773       61.20574093139685       61.98004522867834
H           70.45507824694867       59.15457684284588       62.59460914446591
H           70.11160354338679       61.29978260803266       63.86416640925904
H           68.54414409826860       60.69296858732420       64.39980335432710
H           70.02293596295398       59.87181482330315       64.89349764668326
H           67.53925484871075       58.62910933303657       63.22587894159511
H           68.84715877649288       57.90794578928352       64.15410755255556
H           68.68411929162076       57.53427166862997       61.14627748107031
H           70.01665482317514       55.92362699121930       63.36122568895070
H           70.07091079494717       55.55829890340211       61.63758926223046
H           70.84521883041113       57.01511662496589       62.25161690434567
H           67.48624841062241       55.80468732463667       63.34166338359107
H           67.69793057352196       55.28701261381671       61.66988894818658
H           65.88408297177092       57.56014374280455       62.57791773030374
H           65.04822024654520       57.44587014646658       60.22044982133198
H           66.70044054686456       58.03531215985824       60.33736406944668
H           66.39196084281238       56.37522227476663       59.82387148567845
H           65.27104920940499       54.78089393860608       61.52449110584016
H           64.08113168368801       56.04910099415727       61.80661540211775
H           65.72390819123113       54.60880403715493       63.92500964910936
H           65.48893085530928       56.92280556817864       64.65570779576301
H           63.78083313809952       56.93833203495789       64.20811807331013
H           64.34603621572315       55.93581571165092       65.54935118349115
H           62.78093646291232       54.67154398817904       63.18777056230328
H           63.36619966451281       54.02293982269272       64.71646549987301
H           64.31304304356989       52.94273377495926       62.04195580655860
H           65.77152680590868       52.44371713050533       63.98772835899808
H           64.38389956063652       51.80729860567200       64.86899754988606
H           64.96383140386398       50.99216530864141       63.41594506564407
H           62.08133022055338       51.91635332789095       63.83497936859344
H           62.78027210043808       51.04347232238949       62.47227297456568
H           61.14139784832095       53.59986714922728       62.33844032739149
H           61.29961478004902       53.22960648801133       59.82890054761626
H           62.79662836809937       53.76753830847270       60.57275853417228
H           62.58771527375051       52.06698740991360       60.13682169314688
H           60.12959125283537       51.22592205833708       62.76067467332187
H           60.57308677682679       50.90255558920597       61.09212168873507
H           59.23456669571853       53.11170692992493       60.57568293652520
H           58.59783774533238       50.76901113162884       59.92300358982647
H           57.72048779874599       50.61249614712717       61.44226991502661
H           57.20819620051140       51.79544822754082       60.23589943629742
H           59.03704852381965       53.74404726371770       62.98254583508394
H           58.11632792100017       52.27384776756760       63.27921765109187
H           56.33306729577882       53.11124770154585       61.74586537994608
H           55.42111716766750       54.68478101651766       63.41410543588688
H           56.20179253869470       53.31666103684464       64.20223416759244
H           57.02447639778394       54.87789643224228       64.12650299838636
H           57.89077097782858       54.76425233807965       60.54313540282057
H           57.74450087528992       55.78616702783231       61.95406841730713
H           55.08022247054259       54.98147596863365       61.13322198106107
H           54.72507882229201       57.40534299898495       60.98131743842754
H           55.66441306248849       57.01844461583597       62.42150771027743
H           56.46577854219883       57.68874578322366       60.99953984870148
H           56.73582017466130       56.28428798176418       58.94894770152622
H           54.98267539773885       56.10976652757816       58.93673453775852
H           56.98884598646194       53.82115957586026       58.88641897172974
H           53.95094801080793       53.83881792299217       58.79646874129601
H           54.93747381486733       52.45430022384998       58.31134764791583
H           54.97268086338268       53.02132012624213       59.97464337395266
H           56.45736184339192       55.48495063759604       56.81148199696537
H           55.07246953490604       54.42226303615400       56.66391381576376
H           56.81947138910499       52.48050569876191       56.76067500735509
H           55.51309146788785       53.18556785553523       54.75714952498384
H           56.74673940015567       54.38357408747934       54.38056080457720
H           57.12926646265306       52.66278222630464       54.30704427064090
H           58.65412346619089       54.12271741056896       57.50819487439468
H           58.60152886358361       54.77646516056306       55.87791391933077
H           59.20781755019128       52.45017375272867       55.03502499259943
H           61.58416514364864       52.85102200268049       55.43524383936837
H           60.77186005648758       54.40131331005051       55.27156247059635
H           61.22008067646005       53.81434162280461       56.87382957621787
H           58.56391049246045       51.20093028035991       57.07871048324532
H           59.78606035337698       52.07338086547752       57.99879356459584
H           61.56248440107640       50.99298675965298       56.60152729420236
H           60.88406941342021       50.15521260155943       58.82018204208685
H           59.64912916437432       49.13653772475281       58.07535451411622
H           61.35817580267668       48.81997856383803       57.78049482683004
H           60.01709653246092       50.49971843289419       54.63431693347049
H           59.26932465657029       49.25193065055412       55.62648629114314
H           61.62173805338159       48.19644910049192       55.78336274706079
H           61.27241586287360       47.04277922951870       53.63178092650249
H           59.73816670538898       47.31299809465630       54.44731641199925
H           60.20736201783897       48.33421894451293       53.08867715676360
H           62.79292741194944       50.28280173797189       54.93396402326111
H           62.04765395767159       49.99300673726290       53.36437612218555
H           63.24897585747529       47.72617965621742       53.36290913075412
H           65.32050134564112       48.75024722850235       52.51714923453678
H           63.93165628931326       49.70335477630016       52.01823538675944
H           64.94590815040179       50.25553019469847       53.35116875637217
H           63.73713920107215       47.85731916898214       55.88155454922959
H           64.90951479615309       49.11134912211538       55.49444080018187
H           66.09751148120483       47.40323699695865       54.02579708344587
H           66.85320226724765       48.08402197936518       56.28852457435040
H           65.86402621573950       46.81780076552035       57.00825550896529
H           67.23072329513552       46.39661897361915       55.97433028186964
H           64.17836698146900       45.83677947542322       53.79653195758495
H           64.22229632535780       45.53206042559079       55.52906113884045
H           66.48748551996920       44.50625519590872       55.26011570500935
H           65.58689825971391       42.41789032492509       54.26415870292261
H           64.40408961700953       43.17248117326413       55.32577008710204
H           64.24122645559321       43.32566512331334       53.57646844501416
H           66.92603631773262       45.75444187135427       53.00930940544717
H           65.89660416003821       44.52428393330081       52.28948820298030
H           67.51081679881428       42.78959580655906       53.26883515618559
H           69.01146013379757       43.03176466484977       51.34145391666087
H           67.39068277181008       43.51525421729523       50.86801934185940
H           68.61098395053999       44.74552043100787       51.20671323652441
H           68.60193498385073       44.26432884419806       54.91568281405702
H           69.16834975243540       45.32093979032849       53.62301680649524
H           70.63374107886131       43.52397939884317       52.77695303996757
H           71.47160592581862       45.14842181846628       54.43205338113687
H           70.93641006783817       44.10914601549830       55.75123679248195
H           72.22725070488187       43.57317023194473       54.67299619478773
H           69.15915736789088       52.09391818212844       44.45659832737693
H           70.58786336590228       51.63410934343786       43.52826900325996
C           47.72298472538084       58.84483952474287       51.21641050989329
C           48.79022572463291       59.93635749345552       51.27119957831702
C           50.13917560723186       59.35885091631467       50.85436483442972
C           48.83436025899201       60.53357196365577       52.68191734792705
C           49.90309538319868       61.60775328155876       52.93418528448964
C           49.76404477739838       62.09879767734167       54.37312292188777
C           49.76201016408091       62.75964074961804       51.93571124240015
C           50.72429925443733       63.94442403003890       52.09568631927608
C           50.34467657760434       65.00407939136424       51.06026323221830
C           52.18631138570315       63.51750516304134       51.93297532544471
C           53.22163475220790       64.61347002853452       52.22359682059631
[...]
  3286   6 C     3287   6 C                                       1.5369715
  3287   6 C     3288   6 C                                       1.5270480
  3287   6 C     3289   6 C                                       1.5332802
  3289   6 C     3290   6 C                                       1.5339731
  3290   6 C     3291   6 C                                       1.5281143
  3290   6 C     3292   6 C                                       1.5338181
  3293   6 C     3294   6 C                                       1.5298466
  3293   6 C     3295   6 C                                       1.5340089
  3295   6 C     3296   6 C                                       1.5323405
  3296   6 C     3297   6 C                                       1.5277177
  3296   6 C     3298   6 C                                       1.5371701
  3298   6 C     3299   6 C                                       1.5336219
  3299   6 C     3300   6 C                                       1.5282905
  3299   6 C     3301   6 C                                       1.5377651
  3301   6 C     3302   6 C                                       1.5377446
  3302   6 C     3303   6 C                                       1.5259263
  3302   6 C     3304   6 C                                       1.5339400
  3304   6 C     3305   6 C                                       1.5378621
  3305   6 C     3306   6 C                                       1.5293366
  3305   6 C     3307   6 C                                       1.5354305
  3307   6 C     3308   6 C                                       1.5374183
  3308   6 C     3309   6 C                                       1.5295531
  3308   6 C     3310   6 C                                       1.5334135
  3310   6 C     3311   6 C                                       1.5386304
  3311   6 C     3312   6 C                                       1.5291417
  3311   6 C     3313   6 C                                       1.5368359
  3313   6 C     3314   6 C                                       1.5332423
  3314   6 C     3315   6 C                                       1.5303499
  3314   6 C     3316   6 C                                       1.5372459
  3316   6 C     3317   6 C                                       1.5379835
  3317   6 C     3318   6 C                                       1.5274709
  3317   6 C     3319   6 C                                       1.5384450
  3319   6 C     3320   6 C                                       1.5358445
  3320   6 C     3321   6 C                                       1.5279167
  3320   6 C     3322   6 C                                       1.5370494
  3322   6 C     3323   6 C                                       1.5352509
  3323   6 C     3324   6 C                                       1.5290225
  3323   6 C     3325   6 C                                       1.5355107
  3325   6 C     3326   6 C                                       1.5331825
  3326   6 C     3327   6 C                                       1.5278939
  3326   6 C     3328   6 C                                       1.5366888
  3328   6 C     3329   6 C                                       1.5327896
  3329   6 C     3330   6 C                                       1.5294395
  3329   6 C     3331   6 C                                       1.5384503
  3331   6 C     3332   6 C                                       1.5326811
  3332   6 C     3333   6 C                                       1.5284430
  3332   6 C     3334   6 C                                       1.5369418
  3335   6 C     3336   6 C                                       1.5288690
  3335   6 C     3337   6 C                                       1.5356762
  3337   6 C     3338   6 C                                       1.5371922
  3338   6 C     3339   6 C                                       1.5288803
  3338   6 C     3340   6 C                                       1.5331795
  3340   6 C     3341   6 C                                       1.5363045
  3341   6 C     3342   6 C                                       1.5293316
  3343   6 C     3344   6 C                                       1.5344449
  3344   6 C     3345   6 C                                       1.5282566
  3344   6 C     3346   6 C                                       1.5353578
  3346   6 C     3347   6 C                                       1.5339961
  3347   6 C     3348   6 C                                       1.5292991
  3347   6 C     3349   6 C                                       1.5360650
  3349   6 C     3350   6 C                                       1.5331669
  3350   6 C     3351   6 C                                       1.5281861
  3350   6 C     3352   6 C                                       1.5352968
  3352   6 C     3353   6 C                                       1.5270171
  3353   6 C     3354   6 C                                       1.5239082
  3265   6 C     3355   1 H                                       1.0881607
  3265   6 C     3356   1 H                                       1.0881709
  3265   6 C     3357   1 H                                       1.0868462
  3354   6 C     3358   1 H                                       1.0881548
  3354   6 C     3359   1 H                                       1.0873317
  3354   6 C     3360   1 H                                       1.0876718
  3352   6 C     3361   1 H                                       1.0926572
  3352   6 C     3362   1 H                                       1.0921924
  3349   6 C     3363   1 H                                       1.0915933
  3349   6 C     3364   1 H                                       1.0934626
  3347   6 C     3365   1 H                                       1.0932355
  3348   6 C     3366   1 H                                       1.0881417
  3348   6 C     3367   1 H                                       1.0881865
  3348   6 C     3368   1 H                                       1.0863066
  3346   6 C     3369   1 H                                       1.0913868
  3346   6 C     3370   1 H                                       1.0932350
  3343   6 C     3371   1 H                                       1.0887731
  3343   6 C     3372   1 H                                       1.0914621
  3350   6 C     3373   1 H                                       1.0945250
  3351   6 C     3374   1 H                                       1.0861864
  3351   6 C     3375   1 H                                       1.0873731
  3351   6 C     3376   1 H                                       1.0884730
  3344   6 C     3377   1 H                                       1.0931932
  3345   6 C     3378   1 H                                       1.0880895
  3345   6 C     3379   1 H                                       1.0884380
  3345   6 C     3380   1 H                                       1.0867546
  3341   6 C     3381   1 H                                       1.0937074
  3342   6 C     3382   1 H                                       1.0884363
  3342   6 C     3383   1 H                                       1.0872384
  3342   6 C     3384   1 H                                       1.0876378
  3340   6 C     3385   1 H                                       1.0915308
  3340   6 C     3386   1 H                                       1.0932740
  3338   6 C     3387   1 H                                       1.0927953
  3339   6 C     3388   1 H                                       1.0883009
  3339   6 C     3389   1 H                                       1.0881015
  3339   6 C     3390   1 H                                       1.0867964
  3337   6 C     3391   1 H                                       1.0915720
  3337   6 C     3392   1 H                                       1.0934826
  3335   6 C     3393   1 H                                       1.0939242
  3336   6 C     3394   1 H                                       1.0872200
  3336   6 C     3395   1 H                                       1.0883006
  3336   6 C     3396   1 H                                       1.0882040
  3334   6 C     3397   1 H                                       1.0920696
  3334   6 C     3398   1 H                                       1.0922755
  3332   6 C     3399   1 H                                       1.0946613
  3333   6 C     3400   1 H                                       1.0880617
  3333   6 C     3401   1 H                                       1.0867934
  3333   6 C     3402   1 H                                       1.0880743
  3331   6 C     3403   1 H                                       1.0918153
  3331   6 C     3404   1 H                                       1.0934708
  3329   6 C     3405   1 H                                       1.0935660
  3330   6 C     3406   1 H                                       1.0865171
  3330   6 C     3407   1 H                                       1.0881673
  3330   6 C     3408   1 H                                       1.0885078
  3328   6 C     3409   1 H                                       1.0918822
  3328   6 C     3410   1 H                                       1.0932837
  3326   6 C     3411   1 H                                       1.0931306
  3327   6 C     3412   1 H                                       1.0873327
  3327   6 C     3413   1 H                                       1.0862414
  3327   6 C     3414   1 H                                       1.0862112
  3325   6 C     3415   1 H                                       1.0915072
  3325   6 C     3416   1 H                                       1.0937158
  3323   6 C     3417   1 H                                       1.0926701
  3324   6 C     3418   1 H                                       1.0883979
  3324   6 C     3419   1 H                                       1.0878715
  3324   6 C     3420   1 H                                       1.0880987
  3322   6 C     3421   1 H                                       1.0912131
  3322   6 C     3422   1 H                                       1.0924164
  3320   6 C     3423   1 H                                       1.0941864
  3321   6 C     3424   1 H                                       1.0879625
  3321   6 C     3425   1 H                                       1.0885498
  3321   6 C     3426   1 H                                       1.0876776
  3319   6 C     3427   1 H                                       1.0917092
  3319   6 C     3428   1 H                                       1.0925070
  3317   6 C     3429   1 H                                       1.0924619
  3318   6 C     3430   1 H                                       1.0853846
  3318   6 C     3431   1 H                                       1.0887233
  3318   6 C     3432   1 H                                       1.0892139
  3316   6 C     3433   1 H                                       1.0926845
  3316   6 C     3434   1 H                                       1.0921331
  3314   6 C     3435   1 H                                       1.0954746
  3315   6 C     3436   1 H                                       1.0880253
  3315   6 C     3437   1 H                                       1.0873259
  3315   6 C     3438   1 H                                       1.0880604
  3313   6 C     3439   1 H                                       1.0908459
  3313   6 C     3440   1 H                                       1.0928959
  3311   6 C     3441   1 H                                       1.0934036
  3312   6 C     3442   1 H                                       1.0864016
  3312   6 C     3443   1 H                                       1.0875254
  3312   6 C     3444   1 H                                       1.0884638
  3310   6 C     3445   1 H                                       1.0907542
  3310   6 C     3446   1 H                                       1.0935475
  3308   6 C     3447   1 H                                       1.0920088
  3309   6 C     3448   1 H                                       1.0871301
  3309   6 C     3449   1 H                                       1.0868423
  3309   6 C     3450   1 H                                       1.0886576
  3307   6 C     3451   1 H                                       1.0919383
  3307   6 C     3452   1 H                                       1.0926577
  3305   6 C     3453   1 H                                       1.0935457
  3306   6 C     3454   1 H                                       1.0858365
  3306   6 C     3455   1 H                                       1.0881194
  3306   6 C     3456   1 H                                       1.0882048
  3304   6 C     3457   1 H                                       1.0917608
  3304   6 C     3458   1 H                                       1.0937171
  3302   6 C     3459   1 H                                       1.0935113
  3303   6 C     3460   1 H                                       1.0872825
  3303   6 C     3461   1 H                                       1.0858728
  3303   6 C     3462   1 H                                       1.0889739
  3301   6 C     3463   1 H                                       1.0924511
  3301   6 C     3464   1 H                                       1.0923584
  3299   6 C     3465   1 H                                       1.0939363
  3300   6 C     3466   1 H                                       1.0883044
  3300   6 C     3467   1 H                                       1.0870240
  3300   6 C     3468   1 H                                       1.0874841
  3298   6 C     3469   1 H                                       1.0927043
  3298   6 C     3470   1 H                                       1.0931044
  3296   6 C     3471   1 H                                       1.0927322
  3297   6 C     3472   1 H                                       1.0880740
  3297   6 C     3473   1 H                                       1.0878579
  3297   6 C     3474   1 H                                       1.0865531
  3295   6 C     3475   1 H                                       1.0917409
  3295   6 C     3476   1 H                                       1.0939977
  3293   6 C     3477   1 H                                       1.0927181
  3294   6 C     3478   1 H                                       1.0876516
  3294   6 C     3479   1 H                                       1.0879273
  3294   6 C     3480   1 H                                       1.0884467
  3292   6 C     3481   1 H                                       1.0904660
  3292   6 C     3482   1 H                                       1.0928773
  3290   6 C     3483   1 H                                       1.0921746
  3291   6 C     3484   1 H                                       1.0866729
  3291   6 C     3485   1 H                                       1.0885519
  3291   6 C     3486   1 H                                       1.0872529
  3289   6 C     3487   1 H                                       1.0920402
  3289   6 C     3488   1 H                                       1.0933615
  3287   6 C     3489   1 H                                       1.0937552
  3288   6 C     3490   1 H                                       1.0870545
  3288   6 C     3491   1 H                                       1.0889790
  3288   6 C     3492   1 H                                       1.0873396
  3286   6 C     3493   1 H                                       1.0922102
  3286   6 C     3494   1 H                                       1.0925503
  3284   6 C     3495   1 H                                       1.0935010
  3285   6 C     3496   1 H                                       1.0876647
  3285   6 C     3497   1 H                                       1.0885433
  3285   6 C     3498   1 H                                       1.0867042
  3283   6 C     3499   1 H                                       1.0916901
  3283   6 C     3500   1 H                                       1.0929174
  3281   6 C     3501   1 H                                       1.0929817
  3282   6 C     3502   1 H                                       1.0874783
  3282   6 C     3503   1 H                                       1.0861733
  3282   6 C     3504   1 H                                       1.0878386
  3280   6 C     3505   1 H                                       1.0914978
  3280   6 C     3506   1 H                                       1.0935633
  3278   6 C     3507   1 H                                       1.0934794
  3279   6 C     3508   1 H                                       1.0869783
  3279   6 C     3509   1 H                                       1.0873155
  3279   6 C     3510   1 H                                       1.0883441
  3277   6 C     3511   1 H                                       1.0890379
  3277   6 C     3512   1 H                                       1.0919591
  3275   6 C     3513   1 H                                       1.0932581
  3276   6 C     3514   1 H                                       1.0883555
  3276   6 C     3515   1 H                                       1.0882369
  3276   6 C     3516   1 H                                       1.0877917
  3274   6 C     3517   1 H                                       1.0909625
  3274   6 C     3518   1 H                                       1.0933544
  3272   6 C     3519   1 H                                       1.0915040
  3273   6 C     3520   1 H                                       1.0876636
  3273   6 C     3521   1 H                                       1.0867827
  3273   6 C     3522   1 H                                       1.0882285
  3271   6 C     3523   1 H                                       1.0933647
  3271   6 C     3524   1 H                                       1.0935081
  3269   6 C     3525   1 H                                       1.0930466
  3270   6 C     3526   1 H                                       1.0870369
  3270   6 C     3527   1 H                                       1.0864556
  3270   6 C     3528   1 H                                       1.0874347
  3268   6 C     3529   1 H                                       1.0927781
  3268   6 C     3530   1 H                                       1.0927413
  3266   6 C     3531   1 H                                       1.0951364
  3267   6 C     3532   1 H                                       1.0881295
  3267   6 C     3533   1 H                                       1.0878920
  3267   6 C     3534   1 H                                       1.0874648
  3353   6 C     3535   1 H                                       1.0927883
  3353   6 C     3536   1 H                                       1.0910504

 * 2 distinct bonds (by element types)

   Z      Z             #   av. dist./Å        max./Å        min./Å
   1 H    6 C        2366     1.0900632     1.0983749     1.0842437
   6 C    6 C        1101     1.5324802     1.5401714     1.5230710


optimized geometry written to: xtbopt.xyz


           -------------------------------------------------
          | TOTAL ENERGY            -3716.240145387738 Eh   |
          | GRADIENT NORM               0.000985633035 Eh/α |
          | HOMO-LUMO GAP              11.424407496111 eV   |
           -------------------------------------------------

------------------------------------------------------------------------
 * finished run on 2024/10/04 at 19:35:06.603     
------------------------------------------------------------------------
 total:
 * wall-time:     0 d,  6 h, 51 min, 56.690 sec
 *  cpu-time:     1 d, 13 h, 21 min,  9.928 sec
 * ratio c/w:     5.440 speedup
 SCF:
 * wall-time:     0 d,  0 h, 17 min, 24.752 sec
 *  cpu-time:     0 d,  1 h, 53 min, 22.252 sec
 * ratio c/w:     6.511 speedup
 ANC optimizer:
 * wall-time:     0 d,  6 h, 33 min,  3.864 sec
 *  cpu-time:     1 d, 11 h, 26 min,  2.296 sec
 * ratio c/w:     5.409 speedup

