3536
 energy: -3716.292097983447 gnorm: 0.000657614726 xtb: 6.6.1 (8d0f1dd)
C           40.87029726332209       46.58240215971734       55.09635034372600
C           41.91007060582192       45.46611549436084       55.08902525642414
C           41.56115584165008       44.42831743193609       56.15583100826414
C           43.32669471924206       45.99358042643686       55.34234138939233
C           43.87296983909656       47.00807479526513       54.32825248084764
C           43.85942992677901       46.45375686968959       52.90599034332500
C           45.30622065876401       47.41543647329289       54.72918143283996
C           45.46884900477246       48.90112185776776       55.07426130965951
C           45.41097121161860       49.74927329882168       53.80763741188365
C           46.79223904730762       49.08906189683982       55.82588635750088
C           47.19122629430903       50.52771446111331       56.18320454931776
C           48.52543681715422       50.48075734160447       56.92420182819910
C           46.10824174326412       51.20529575693950       57.02670224930264
C           46.31828880751763       52.68780628548080       57.36133023599967
C           45.26471549890314       53.09648583738426       58.39111549299132
C           46.20777989067756       53.57489060180203       56.11576303110024
C           46.81925595107438       54.97135227228684       56.29332814096547
C           46.26291524878357       55.91043090009131       55.22347834908972
C           48.35803124581588       54.92004613995883       56.24691177815492
C           49.05442385208261       55.65826320462863       57.39630976625975
C           48.82667444638482       57.16589292529591       57.30347266886877
C           50.56201643662740       55.36390600506333       57.39249633548643
C           50.97036925123929       54.03022729942094       58.03531463740553
C           50.91035055582793       54.13140573813123       59.55700340401116
C           52.37919291619637       53.66962647004635       57.54728608258707
C           53.04987784235607       52.43722815723769       58.17113514905075
C           54.44721745978377       52.30361772012009       57.56404737049982
C           52.21392915741284       51.17343613839897       57.94169167084338
C           52.75328199602243       49.88983918531739       58.58607211593408
C           52.06410794363281       48.68112749340268       57.95389367043831
C           52.54219371072704       49.87040278714107       60.10564738535406
C           53.46033180489964       48.87260756049267       60.83958390583927
C           52.64210356357780       47.84115232082100       61.61532331873936
C           54.42613690684734       49.57112816263420       61.80547798312948
C           55.41738892234177       50.53973732911007       61.15255826085541
C           56.48152887554454       49.78027507910702       60.36070901672377
C           56.12191224116295       51.41549908743467       62.19896886910978
C           55.22516690174812       52.31977533045984       63.05396898398639
C           54.29499946502759       53.17202917599838       62.19096748802510
C           56.06261017285604       53.25831654577553       63.93649413785489
C           57.12965433181514       52.59436419180160       64.81101381500019
C           56.50711849955661       51.55926685607400       65.74517297424497
C           57.88156555304219       53.64072147657986       65.64527508015685
C           58.81966865253459       54.57281736533751       64.86956878311607
C           60.04206512003169       53.81762391604138       64.35084830336757
C           59.26794262783207       55.72551840785778       65.78070666119962
C           58.28254016036986       56.89885962847260       65.88508511526582
C           58.38124244819232       57.76883888003960       64.63479636796566
C           58.60662032177255       57.68855952334215       67.16209642943682
C           57.75972810768432       58.93558148312303       67.44623705872867
C           58.41759655809508       59.73412569203708       68.57196314896547
C           56.31956091810062       58.57397313898450       67.82533261529294
C           55.35377876672231       59.77453204676694       67.81046335628851
C           54.74912914587119       60.00245662311198       69.19678826680160
C           54.21873688212684       59.58766158050986       66.79545933688654
C           54.65969787113522       59.44803058808880       65.33565870970801
C           55.24641184536612       60.75396564565143       64.80100608196744
C           53.48536227938504       59.03630611377928       64.43805035715708
C           52.89430618258589       57.63416398109528       64.65161523475727
C           53.92365119143408       56.54559287778399       64.36488165405321
C           51.66739042535328       57.51403115829655       63.73543747136392
C           50.98906878166647       56.14331241768362       63.61437523432813
C           49.88760843936612       56.25470863106176       62.56087859070276
C           50.43337753689065       55.66510897117965       64.96115602298227
C           49.72373183724785       54.30133589897783       64.94458883496107
C           48.97548791595189       54.10116729573905       66.26281266589167
C           50.72035791980658       53.16005148533586       64.70981793576935
C           50.12199411634863       51.80766937884948       64.28656828212256
C           51.24510036940159       50.77154887389041       64.27849153867189
C           49.45110086124306       51.93231405452776       62.91195818311737
C           49.04258394430533       50.63300741542631       62.20383763418085
C           48.48313864840858       50.99000536422755       60.82690435497418
C           48.02170986364187       49.84037833527407       63.02822896273912
C           47.48900793142999       48.55115862548421       62.37947846240147
C           46.46780713608428       47.91411691183448       63.32222281950256
C           48.63898417530705       47.58889016820687       62.05800151095888
C           48.26113912470180       46.22746737074434       61.45549855880606
C           49.52124056840635       45.36300487396300       61.39154361873824
C           47.64106357698352       46.38551124767372       60.06215115579639
C           47.04781383893504       45.10108200311855       59.46630118675954
C           46.88119699704389       45.26485107503049       57.95715514667999
C           45.69450407745153       44.75411664924668       60.10247782410995
C           45.29627393706257       43.27317521555963       59.95334170159765
C           43.89129280969036       43.14670542130278       59.36397288325157
C           45.35117530327283       42.53289097370524       61.29702808000118
C           46.74684990459526       42.46413713804010       61.93184509194063
C           47.61971923160207       41.43878121992017       61.21251993715599
C           46.63929398886165       42.15003538219673       63.42994039440233
C           47.94857628557193       42.36885944488971       64.18545619661188
C           47.78164641940070       42.18536081383213       65.68876907077728
H           40.90044289540953       47.11940994752741       56.04177548056266
H           41.04364614845208       47.28904684057458       54.28913979524003
H           39.87060176879305       46.16997011872430       54.97302738045701
H           48.73050282780120       42.33826253999468       66.19894486265254
H           47.05918335921911       42.89634040636957       66.08490772319414
H           47.42889738240996       41.18099686202872       65.91531391977003
H           45.87829965288778       42.79915960131111       63.87260579986742
H           46.30589607329983       41.11775794114209       63.56584856863086
H           44.66854095248649       43.03806400353690       61.98672261250382
H           44.97553801359825       41.51483126701302       61.16153062748297
H           45.98890808145796       42.78674045378845       59.25950170517677
H           43.62702152672707       42.10128202931836       59.21325851795884
H           43.15561848451984       43.58885758872814       60.03283602012928
H           43.83182336523041       43.65623390529083       58.40463112015711
H           45.70650186666416       45.01383869941348       61.16200903718348
H           44.93327178998045       45.38046799132889       59.63321322555778
H           46.85078370026974       47.13729033358424       60.09516799102135
H           48.41816036533832       46.75659835464535       59.38863165779292
H           47.21741279144925       43.44557574826982       61.83692033090110
H           48.63601269253520       41.45139677953686       61.59855816704084
H           47.21658624994345       40.43572999408830       61.34153188185071
H           47.66604562316507       41.65189855875073       60.14782025604464
H           47.74355997060884       44.27594801336498       59.64016741280824
H           46.23622008731587       46.11486652637847       57.74303822471067
H           47.84147746242819       45.43692680491925       57.47698155728519
H           46.43302229779790       44.37741717382069       57.51675953352189
H           47.54581955185695       45.73498312639489       62.12095007474937
H           50.23301110067469       45.78685861442122       60.68664338500574
H           49.99673392598309       45.30943531621769       62.36780794087365
H           49.29604211500116       44.34835468640276       61.07402222449755
H           49.32097355495033       48.07573741964554       61.35930151499087
H           49.19081944882253       47.40699198076598       62.98382616379332
H           46.96644499947556       48.81804692005274       61.45658716564462
H           46.95636041170500       47.53287770914184       64.21742969611415
H           45.72455675155785       48.64955594434922       63.62614496640659
H           45.94219026674754       47.09312657837101       62.84091453187032
H           48.47093840317793       49.57498234829031       63.98799345951862
H           47.16996228200573       50.49358005413006       63.23935879851162
H           49.93888785948278       50.02517397672123       62.06035165928755
H           48.30131924581969       50.09687373006417       60.23556245775436
H           47.54680674633887       51.53545794061989       60.92512087445946
H           49.18408745564955       51.61719013375954       60.28112087422236
H           48.55262036567470       52.54285946849133       63.01869330233868
H           50.13820330623596       52.46848776823589       62.25129638813812
H           49.37357855177762       51.49851228347767       65.02274889289421
H           51.77229931003705       50.77636275503278       65.23111026985961
H           50.86015093825230       49.76827426423900       64.11748972355832
H           51.95889693378694       51.00090405414040       63.49039099536768
H           51.42884416418276       53.45746800611160       63.93476387381771
H           51.29244905167558       53.01771621451265       65.63178340199212
H           48.98428261822217       54.30830060870323       64.14220392141607
H           48.23828922098983       54.88819492296958       66.41343930101691
H           48.45115146176645       53.14838305195953       66.27082980671672
H           49.66742905228547       54.11757781482659       67.10365204207530
H           51.24673606713042       55.61606976081944       65.68843031296684
H           49.72443501854457       56.41825275331408       65.31826228643789
H           51.72663705232110       55.42437553393194       63.24789672428821
H           49.52865271148248       55.27327416327876       62.27024508881130
H           49.05026227298197       56.83748717876345       62.93919454933249
H           50.26778276011546       56.74632782829531       61.66830566613370
H           50.91866368612855       58.23802169119254       64.06719702760924
H           51.97609617025341       57.81022045010424       62.72954193599076
H           52.56487135564219       57.53696905545216       65.69063057724900
H           54.81663766725684       56.68349128252448       64.96856177768780
H           53.51791738630835       55.56571616588693       64.60211033432557
H           54.21283213425649       56.56102193058541       63.31633382229603
H           52.68567523041772       59.77215824677240       64.56226400433835
H           53.82250450645248       59.09701874845131       63.39918560014375
H           55.43591310118631       58.68270260051882       65.27024399749115
H           56.09630357552719       61.07923190890521       65.39567612656145
H           55.58589230056117       60.62405137338134       63.77449131252784
H           54.49478871318720       61.53931703704777       64.81866358638123
H           53.65936354462333       58.69635125611985       67.08689959585080
H           53.53694994835141       60.43990446704453       66.87077336921887
H           55.91033164222397       60.67777354335153       67.54258485600619
H           55.52988940013894       60.16199491083891       69.93774743513603
H           54.09862288538871       60.87566050701587       69.19841213566497
H           54.15792557587173       59.13997738476365       69.50067160702878
H           55.94991116526325       57.81026508048053       67.14236782726456
H           56.33092898689056       58.12502081862222       68.82044720627461
H           57.74334985676764       59.56276734822456       66.55015296541353
H           57.84568862929634       60.62951607016071       68.80330962720809
H           58.48342588260819       59.12957073718460       69.47512623627652
H           59.42293465996303       60.03918133188506       68.29117335077834
H           58.51685593880931       57.01650981485071       68.02151723921149
H           59.65397917389212       57.99528737785970       67.10225085784256
H           57.26504170186649       56.49929049040197       65.95408803873177
H           59.35705593504456       58.24854487511383       64.58636399777205
H           58.25320523883833       57.16040942463776       63.74294361861450
H           57.61770785707510       58.54128990934027       64.62053151510901
H           59.44038330265409       55.31795062897605       66.77921458693832
H           60.22170285116275       56.12281877177666       65.42573895477747
H           58.28555109342297       54.98935323291634       64.01200965831178
H           60.67450390384776       54.47682247795619       63.75967568008164
H           60.63115838845307       53.43090120538056       65.17993342800024
H           59.74966178867940       52.98095095730691       63.72188396038366
H           57.14562559075089       54.24504203378110       66.17831665870469
H           58.47923739167678       53.12109631780831       66.40040391478301
H           57.84893602820554       52.08490537010290       64.16622906989100
H           57.26568444008306       51.12048715639495       66.38879855286243
H           55.75032820193712       52.02218501847571       66.37582721242062
H           56.03799370259269       50.75472086557927       65.18736735793681
H           56.54865500204387       53.98647922426180       63.28528146583938
H           55.38073550556718       53.81271324727938       64.58763227624522
H           54.60654085531718       51.70028235249968       63.71076112482085
H           53.53128531681745       52.56344710389302       61.71451441244614
H           53.79174748355774       53.91780970801791       62.80234678351822
H           54.85801688285910       53.68934689909723       61.41665831056271
H           56.68312148891034       50.75263281332848       62.86018989982795
H           56.84378478426372       52.05100021871012       61.67792637492683
H           54.88195087731938       51.18890642211754       60.45677150969285
H           56.03470789586621       49.18398590739321       59.57015400817811
H           57.18652019961903       50.47340369769849       59.90574886787890
H           57.03675859931835       49.11171587727092       61.01575714692858
H           53.82687950219697       50.10643262424366       62.54312947265990
H           54.99284604942121       48.80761614616198       62.34583328636350
H           54.05013809462131       48.32602814600207       60.09930631716799
H           51.94963601594884       47.32331117949926       60.95635871472005
H           53.29650776775413       47.09789787464490       62.06810999425459
H           52.07103517255360       48.31911948400986       62.40878691145354
H           52.70340479079343       50.87064803940442       60.50675540565732
H           51.49645776476212       49.62250913511231       60.29987748276204
H           53.82505315069753       49.81637601397622       58.38075398803840
H           52.30715887704002       48.60523400094379       56.89556741305807
H           52.37564729484696       47.76252823398268       58.44471603210086
H           50.98375722086043       48.77015213965002       58.04993546921567
H           51.20304268633297       51.33419142534401       58.31915950578296
H           52.13683052255480       51.01372046846505       56.86368822591405
H           53.16397499252965       52.61074303294812       59.24489968009523
H           54.99063035893226       53.24187093889859       57.65355728515129
H           55.03055896765068       51.53449436536682       58.06221245059974
H           54.37649572448971       52.05131425642445       56.50819567164761
H           52.33817650459284       53.52373238484790       56.46492703839127
H           53.02421585675939       54.53271120711725       57.73659899102461
H           50.27140235449193       53.25430945364440       57.70803220618227
H           51.66339789032023       54.82678063465845       59.92247776427380
H           49.93425844520288       54.48495347387306       59.88045182421324
H           51.08531166785217       53.16350488077074       60.01976765131212
H           50.91473264311336       55.38722182584154       56.35822553141455
H           51.08291287037346       56.16197269114805       57.92610715237445
H           48.62523557169745       55.30675393708680       58.34198570829830
H           47.76747290779655       57.40425484803229       57.33683490479669
H           49.31080296127978       57.67676185360590       58.13365910613905
H           49.24003709552847       57.55789274823743       56.37603040052757
H           48.68338855180162       53.87875117237305       56.26384608693985
H           48.70329775377066       55.34532509224634       55.30158570574346
H           46.51219429974871       55.35665846962219       57.27078551821339
H           46.47898789847122       55.52196433948151       54.23043572403088
H           45.18392380913330       56.01121859090549       55.32646413094948
H           46.70189566144163       56.90121476107214       55.30666674365996
H           46.70214508566680       53.09554547405802       55.26939165139926
H           45.14949538584553       53.67453039225295       55.85959449762388
H           47.30499371515606       52.82139281563627       57.81365911366911
H           45.35580278260265       52.49758464695682       59.29558469536065
H           45.36296905412603       54.14417471684390       58.66437264475956
H           44.26543408775707       52.94670837354619       57.98570355736982
H           45.15019526381000       51.12118099298075       56.51041872078672
H           46.02667476411636       50.65157772174150       57.96590304871744
H           47.33583449734940       51.09003941789110       55.25621572694654
H           49.27159101067936       49.95413484367393       56.33291148503103
H           48.89855807894698       51.48035397852443       57.12873795735204
H           48.41272911579244       49.95891537400677       57.87211666838327
H           46.74674696026040       48.50867477174725       56.75169238837181
H           47.59095272428836       48.65774085842421       55.21569490384609
H           44.64180884464031       49.18642887799695       55.73382769616273
H           44.51388289034972       49.51912075644176       53.23926512264661
H           45.39174899461622       50.81008244356904       54.04370343246210
H           46.27420749994203       49.54720787527938       53.17709085786677
H           45.61628365369745       46.82420940973496       55.59290981907919
H           45.99484390574501       47.17636223644361       53.91735607688805
H           43.23444299705611       47.89670867362316       54.35238457802342
H           42.84668323988818       46.24615528914911       52.56783742075564
H           44.30030650326300       47.17530703796001       52.22136703116228
H           44.43774442585077       45.53276014536318       52.85572753674435
H           43.34555531345364       46.45803304900355       56.33299843231001
H           44.00562604997113       45.13738718403727       55.37056311877786
H           41.88326483736274       44.96679312601878       54.11535147347436
H           40.56610713782865       44.02026673123681       55.98780910685475
H           42.27407479308355       43.60652354417264       56.14175107992648
H           41.57913658915816       44.87848041182993       57.14711161799103
H           48.70308300111110       41.66665201031279       63.82787941415157
H           48.31060132037499       43.38022443881344       63.98374583788176
C           70.84724230414007       57.11836903808285       51.72419034089440
C           70.89463207024215       58.61284660167800       52.03232537528469
C           72.33799005635946       59.10084456621276       51.88907337460767
C           70.37666256770925       58.93892455914259       53.44262754668022
C           68.87131973812278       59.20543893333953       53.61300723721581
C           68.02672658450363       57.94430731870273       53.44027765023346
C           68.31875095088238       60.30150876053658       52.69320322596937
C           69.03655448734145       61.65271126161590       52.75421470482667
C           68.91161695045896       62.28236996237938       54.14131901920626
C           68.46113369331172       62.62506548089538       51.71405488015137
C           68.72797974016864       62.29133835333572       50.24131985211783
C           70.22353180796482       62.33646092980244       49.92801953672441
C           67.98803452063243       63.28823995852293       49.33554702349432
C           66.48107678977968       63.03775441738431       49.16770490415425
C           66.23368513142474       61.87284698702382       48.21434763316363
C           65.83210163335397       64.33076363682207       48.65810241145947
C           64.33848527262384       64.27520721118738       48.30600092241454
C           63.91377215994140       65.66641126492365       47.83669363615217
C           63.49529252461399       63.80361130446201       49.49675807214421
C           61.97088188508159       63.85237457914202       49.30655570817872
C           61.29607441673063       63.39356430230899       50.59819227362350
C           61.53105116906538       62.99040040864441       48.11907833142603
C           60.02224036239581       62.93612994683325       47.83371089200212
C           59.78190840122618       61.91093718207590       46.72915201108107
C           59.48093516843075       64.31983580041062       47.45429871070183
C           57.95296023034810       64.39475072474767       47.26555078175568
C           57.56008901331906       64.30242715448438       45.79208127654711
C           57.42839512166815       65.70215594376597       47.87741917877286
C           55.91169876097337       65.93210032673304       47.81062719094442
C           55.59694178536424       67.30877534048172       48.39199366615455
C           55.16937839155162       64.82664765590212       48.56761064468019
C           53.65157343520114       64.98935308340859       48.72579639678072
C           53.13489496792116       63.85276496549567       49.60586009115772
C           52.94230344058380       65.00412383322104       47.36820188957184
C           51.43887719449925       65.30018949803603       47.42761966345916
C           50.82604605930597       65.09198416477990       46.04428656473991
C           51.15458394979875       66.72517747277254       47.93750492732518
C           50.36797168091014       66.77257961006175       49.25112310254396
C           48.91670497210052       66.36594366129920       49.00823962523152
C           50.40910511700278       68.17923585805552       49.86131165526515
C           51.72776254536210       68.55495503155694       50.55395320598668
C           51.82903915389112       67.88249440914645       51.92049322196572
C           51.79703366821175       70.08377225452321       50.66682128284037
C           53.04209322593265       70.68242308706367       51.33536572912920
C           52.82846368104931       72.19047139476820       51.47713807601292
C           54.31545778722181       70.38274163552494       50.53658115984205
C           55.61221739663318       70.84054206677959       51.23116788087194
C           56.30713347223836       71.92921267748551       50.41108539583829
C           56.60120962748434       69.69087818594924       51.46459264942358
C           56.14161643889153       68.56951682917777       52.40908755510856
C           55.92161798773243       69.08918689619757       53.82742303943167
C           57.20647453945525       67.46117785592882       52.37568275003379
C           57.02089273141114       66.28112554651248       53.34054731121644
C           58.30027058260394       65.44295913045788       53.34120576707323
C           55.80681454258055       65.43001473444760       52.95617816604362
C           55.43129802277040       64.32771630784343       53.95665819395510
C           54.43621314278386       63.37350400556758       53.29675891343554
C           54.83132838257855       64.88025505296758       55.26209485285715
C           55.79128592817140       64.97969772864482       56.45439504457494
C           56.28022333056450       63.59709817224881       56.88061396629378
C           55.09228314725061       65.62672687410226       57.65953248917207
C           54.72307439517431       67.10916682836461       57.53161426070408
C           55.97113037902293       67.98547894373120       57.47235414593794
C           53.84197529093554       67.51505039768547       58.72157668867401
C           53.10110748957165       68.85227007238889       58.53341852208163
C           53.56121030014455       69.88121203292201       59.56720905492335
C           51.57913684522869       68.67665067202537       58.63722761137437
C           50.95062562238402       67.82549101948599       57.52652095097501
C           50.89268620114043       68.60321693538988       56.21221688844297
C           49.53224538074205       67.37588824026631       57.91165136378196
C           49.45534307496155       66.27080305437143       58.97636635834225
C           49.91924368439100       64.93451511563562       58.40524203061337
C           48.01351209082902       66.17423458922309       59.49929187307779
C           47.76976674896080       65.19657080913413       60.66101885428223
C           46.26541516897360       65.06653405479884       60.89712498099236
C           48.48923933536020       65.67456131512962       61.92624076804628
C           48.41166630146217       64.76365469873501       63.16274248741551
C           49.20208832776350       65.43566029994513       64.28720070538910
C           48.95036795232038       63.36350380536096       62.83701855011276
C           49.26209503108365       62.45091231256997       64.03206780015465
C           49.87636615820230       61.14904561115637       63.51961951771239
C           48.01354748949331       62.17464971326935       64.87746279770620
C           48.21375290445312       61.23387329339051       66.07826678513003
C           46.88535473469739       61.09687808934068       66.82253159965808
C           49.31851866975376       61.75298953410224       67.00579615961325
C           49.65077344199134       60.89585033441310       68.23637732650295
C           50.66749913755936       61.65682086671350       69.08937194019776
C           50.18936928367135       59.51921456345388       67.83021609572752
C           50.52251712270053       58.61395463797062       69.01545950385534
C           50.88396516749214       57.20359065269214       68.56557061085974
H           71.43704223255622       56.56220643113897       52.44991809900004
H           69.83275750700015       56.73729930610051       51.74319283341156
H           71.26145283721765       56.92527327200867       50.73673628843873
H           51.75106009344886       57.22632370822138       67.90874892186331
H           51.12086559280360       56.57629358254906       69.42257330182824
H           50.05851144929829       56.74786798519297       68.02357506278796
H           49.43986200650749       59.01283219274485       67.21857364809937
H           51.08421638212374       59.65105617971851       67.21748206274218
H           50.24143380701003       61.86316752925667       66.43521407119069
H           49.02597701355595       62.74896651575055       67.35140376177418
H           48.49076403033043       60.24694388240364       65.69945141226583
H           46.08745177970015       60.83279286217080       66.13173505764091
H           46.93895558351937       60.32127190548632       67.58186823910025
H           46.61985344942551       62.03530152744672       67.30623599674254
H           47.61867344089448       63.12148608200079       65.25204347068261
H           47.24766892145395       61.73932538179196       64.22851043521204
H           48.22895558992640       62.85388571264282       62.19413393869474
H           49.87414100875367       63.48596042833551       62.26424476418428
H           48.74580021713179       60.75451969943087       68.83671447545089
H           50.84393894792834       61.15493031108258       70.03667745816526
H           51.61470701338330       61.74208418903346       68.56057836908714