      -----------------------------------------------------------      
     |                   =====================                   |     
     |                           x T B                           |     
     |                   =====================                   |     
     |                         S. Grimme                         |     
     |          Mulliken Center for Theoretical Chemistry        |     
     |                    University of Bonn                     |     
      -----------------------------------------------------------      

   * xtb version 6.6.1 (8d0f1dd) compiled by 'stahn@M-Bot' on 2023-08-01

   xtb is free software: you can redistribute it and/or modify it under
   the terms of the GNU Lesser General Public License as published by
   the Free Software Foundation, either version 3 of the License, or
   (at your option) any later version.
   
   xtb is distributed in the hope that it will be useful,
   but WITHOUT ANY WARRANTY; without even the implied warranty of
   MERCHANTABILITY or FITNESS FOR A PARTICULAR PURPOSE.  See the
   GNU Lesser General Public License for more details.
   
   Cite this work as:
   * C. Bannwarth, E. Caldeweyher, S. Ehlert, A. Hansen, P. Pracht,
     J. Seibert, S. Spicher, S. Grimme, WIREs Comput. Mol. Sci., 2020, 11,
     e01493. DOI: 10.1002/wcms.1493
   
   for GFN2-xTB:
   * C. Bannwarth, S. Ehlert and S. Grimme., J. Chem. Theory Comput., 2019,
     15, 1652-1671. DOI: 10.1021/acs.jctc.8b01176
   for GFN1-xTB:
   * S. Grimme, C. Bannwarth, P. Shushkov, J. Chem. Theory Comput., 2017,
     13, 1989-2009. DOI: 10.1021/acs.jctc.7b00118
   for GFN0-xTB:
   * P. Pracht, E. Caldeweyher, S. Ehlert, S. Grimme, ChemRxiv, 2019, preprint.
     DOI: 10.26434/chemrxiv.8326202.v1
   for GFN-FF:
   * S. Spicher and S. Grimme, Angew. Chem. Int. Ed., 2020, 59, 15665-15673.
     DOI: 10.1002/anie.202004239
   
   for ALPB and GBSA implicit solvation:
   * S. Ehlert, M. Stahn, S. Spicher, S. Grimme, J. Chem. Theory Comput.,
     2021, 17, 4250-4261. DOI: 10.1021/acs.jctc.1c00471
   
   for DFT-D4:
   * E. Caldeweyher, C. Bannwarth and S. Grimme, J. Chem. Phys., 2017,
     147, 034112. DOI: 10.1063/1.4993215
   * E. Caldeweyher, S. Ehlert, A. Hansen, H. Neugebauer, S. Spicher,
     C. Bannwarth and S. Grimme, J. Chem. Phys., 2019, 150, 154122.
     DOI: 10.1063/1.5090222
   * E. Caldeweyher, J.-M. Mewes, S. Ehlert and S. Grimme, Phys. Chem. Chem. Phys.
     2020, 22, 8499-8512. DOI: 10.1039/D0CP00502A
   
   for sTDA-xTB:
   * S. Grimme and C. Bannwarth, J. Chem. Phys., 2016, 145, 054103.
     DOI: 10.1063/1.4959605
   
   in the mass-spec context:
   * V. Asgeirsson, C. Bauer and S. Grimme, Chem. Sci., 2017, 8, 4879.
     DOI: 10.1039/c7sc00601b
   * J. Koopman and S. Grimme, ACS Omega 2019, 4, 12, 15120-15133.
     DOI: 10.1021/acsomega.9b02011
   
   for metadynamics refer to:
   * S. Grimme, J. Chem. Theory Comput., 2019, 155, 2847-2862
     DOI: 10.1021/acs.jctc.9b00143
   
   for SPH calculations refer to:
   * S. Spicher and S. Grimme, J. Chem. Theory Comput., 2021, 17, 1701-1714
     DOI: 10.1021/acs.jctc.0c01306
   
   with help from (in alphabetical order)
   P. Atkinson, C. Bannwarth, F. Bohle, G. Brandenburg, E. Caldeweyher
   M. Checinski, S. Dohm, S. Ehlert, S. Ehrlich, I. Gerasimov, C. Hölzer
   A. Katbashev, J. Koopman, C. Lavigne, S. Lehtola, F. März, M. Müller,
   F. Musil, H. Neugebauer, J. Pisarek, C. Plett, P. Pracht, F. Pultar,
   J. Seibert, P. Shushkov, S. Spicher, M. Stahn, M. Steiner, T. Strunk,
   J. Stückrath, T. Rose, and J. Unsleber
   
 * started run on 2024/10/04 at 21:29:45.214     

           -------------------------------------------------
          |                Calculation Setup                |
           -------------------------------------------------

          program call               : /home/abt-grimme/AK-bin/xtb input.xyz --input input.inp --opt
          hostname                   : boar057.thch.uni-bonn.de
          coordinate file            : input.xyz
          omp threads                :                     8

   ID    Z sym.   atoms
    1    6 C      1-146, 294-300, 306, 309-314, 323-468, 616-622, 628,
                  631-636, 645-790, 938-944, 950, 953-958, 967-1112,
                  1260-1266, 1272, 1275-1280, 1289-1434, 1582-1588, 1594,
                  1597-1602, 1611-1756, 1904-1910, 1916, 1919-1924,
                  1933-2078, 2226-2232, 2238, 2241-2246, 2255-2400,
                  2548-2554, 2560, 2563-2568, 2577-2722, 2870-2876, 2882,
                  2885-2890, 2899-3044, 3192-3198, 3204, 3207-3212,
                  3221-3366, 3514-3520, 3526, 3529-3534, 3543-3688,
                  3836-3842, 3848, 3851-3856
    2    1 H      147-293, 301-305, 307, 308, 315-322, 469-615, 623-627, 629,
                  630, 637-644, 791-937, 945-949, 951, 952, 959-966,
                  1113-1259, 1267-1271, 1273, 1274, 1281-1288, 1435-1581,
                  1589-1593, 1595, 1596, 1603-1610, 1757-1903, 1911-1915,
                  1917, 1918, 1925-1932, 2079-2225, 2233-2237, 2239, 2240,
                  2247-2254, 2401-2547, 2555-2559, 2561, 2562, 2569-2576,
                  2723-2869, 2877-2881, 2883, 2884, 2891-2898, 3045-3191,
                  3199-3203, 3205, 3206, 3213-3220, 3367-3513, 3521-3525,
                  3527, 3528, 3535-3542, 3689-3835, 3843-3847, 3849, 3850,
                  3857-3864

molecular fragmentation (1/2 indicates fragments):
111111111111111111111111111111111111111111111111111111111111111111111111
111111111111111111111111111111111111111111111111111111111111111111111111
111111111111111111111111111111111111111111111111111111111111111111111111
111111111111111111111111111111111111111111111111111111111111111111111111
111111111111111111111111111111111122222222222222222222222222222222222222
222222222222222222222222222222222222222222222222222222222222222222222222
222222222222222222222222222222222222222222222222222222222222222222222222
222222222222222222222222222222222222222222222222222222222222222222222222
222222222222222222222222222222222222222222222222222222222222222222222222
222222222222222222222222222222222222222222222222222222222222222222222222
222222222222222222222222222222222222222222222222222222222222222222222222
222222222222222222222222222222222222222222222222222222222222222222222222
222222222222222222222222222222222222222222222222222222222222222222222222
222222222222222222222222222222222222222222222222222222222222222222222222
222222222222222222222222222222222222222222222222222222222222222222222222
222222222222222222222222222222222222222222222222222222222222222222222222
222222222222222222222222222222222222222222222222222222222222222222222222
222222222222222222222222222222222222222222222222222222222222222222222222
222222222222222222222222222222222222222222222222222222222222222222222222
222222222222222222222222222222222222222222222222222222222222222222222222
222222222222222222222222222222222222222222222222222222222222222222222222
222222222222222222222222222222222222222222222222222222222222222222222222
222222222222222222222222222222222222222222222222222222222222222222222222
222222222222222222222222222222222222222222222222222222222222222222222222
222222222222222222222222222222222222222222222222222222222222222222222222
222222222222222222222222222222222222222222222222222222222222222222222222
222222222222222222222222222222222222222222222222222222222222222222222222
222222222222222222222222222222222222222222222222222222222222222222222222
222222222222222222222222222222222222222222222222222222222222222222222222
222222222222222222222222222222222222222222222222222222222222222222222222
222222222222222222222222222222222222222222222222222222222222222222222222
222222222222222222222222222222222222222222222222222222222222222222222222
222222222222222222222222222222222222222222222222222222222222222222222222
222222222222222222222222222222222222222222222222222222222222222222222222
222222222222222222222222222222222222222222222222222222222222222222222222
222222222222222222222222222222222222222222222222222222222222222222222222
222222222222222222222222222222222222222222222222222222222222222222222222
222222222222222222222222222222222222222222222222222222222222222222222222
222222222222222222222222222222222222222222222222222222222222222222222222
222222222222222222222222222222222222222222222222222222222222222222222222
222222222222222222222222222222222222222222222222222222222222222222222222
222222222222222222222222222222222222222222222222222222222222222222222222
222222222222222222222222222222222222222222222222222222222222222222222222
222222222222222222222222222222222222222222222222222222222222222222222222
222222222222222222222222222222222222222222222222222222222222222222222222
222222222222222222222222222222222222222222222222222222222222222222222222
222222222222222222222222222222222222222222222222222222222222222222222222
222222222222222222222222222222222222222222222222222222222222222222222222
222222222222222222222222222222222222222222222222222222222222222222222222
222222222222222222222222222222222222222222222222222222222222222222222222
222222222222222222222222222222222222222222222222222222222222222222222222
222222222222222222222222222222222222222222222222222222222222222222222222
222222222222222222222222222222222222222222222222222222222222222222222222
222222222222222222222222222222222222222222222222
# atoms in fragment 1/2:   322  3542
 fragment masses (1/2) :     2085.00    22935.05
CMA distance (Bohr)    :  20.930
constraining FC (au)   :  0.0500

           -------------------------------------------------
          |                 G F N 2 - x T B                 |
           -------------------------------------------------

        Reference                      10.1021/acs.jctc.8b01176
      * Hamiltonian:
        H0-scaling (s, p, d)           1.850000    2.230000    2.230000
        zeta-weighting                 0.500000
      * Dispersion:
        s8                             2.700000
        a1                             0.520000
        a2                             5.000000
        s9                             5.000000
      * Repulsion:
        kExp                           1.500000    1.000000
        rExp                           1.000000
      * Coulomb:
        alpha                          2.000000
        third order                    shell-resolved
        anisotropic                    true
        a3                             3.000000
        a5                             4.000000
        cn-shift                       1.200000
        cn-exp                         4.000000
        max-rad                        5.000000


          ...................................................
          :                      SETUP                      :
          :.................................................:
          :  # basis functions                9624          :
          :  # atomic orbitals                9624          :
          :  # shells                         5784          :
          :  # electrons                      9624          :
          :  max. iterations                   250          :
          :  Hamiltonian                  GFN2-xTB          :
          :  restarted?                      false          :
          :  GBSA solvation                  false          :
          :  PC potential                    false          :
          :  electronic temp.          300.0000000     K    :
          :  accuracy                    1.0000000          :
          :  -> integral cutoff          0.2500000E+02      :
          :  -> integral neglect         0.1000000E-07      :
          :  -> SCF convergence          0.1000000E-05 Eh   :
          :  -> wf. convergence          0.1000000E-03 e    :
          :  Broyden damping             0.4000000          :
          ...................................................

 iter      E             dE          RMSdq      gap      omega  full diag
   1  -5195.7304876 -0.519573E+04  0.367E+00    4.31       0.0  T
   2  -5198.3126505 -0.258216E+01  0.216E+00    4.25       1.0  T
   3  -5198.2406064  0.720441E-01  0.494E-01    4.05       1.0  T
   4  -5198.4404193 -0.199813E+00  0.243E-01    3.90       1.0  T
   5  -5198.5973752 -0.156956E+00  0.465E-02    4.01       1.0  T
   6  -5198.5995909 -0.221570E-02  0.288E-02    3.99       1.0  T
   7  -5198.6008854 -0.129449E-02  0.112E-02    4.01       1.0  T
   8  -5198.6011915 -0.306139E-03  0.293E-03    4.01       1.0  T
   9  -5198.6012093 -0.178202E-04  0.126E-03    4.01       1.3  T
  10  -5198.6012111 -0.175305E-05  0.578E-04    4.01       2.8  T
  11  -5198.6012116 -0.530351E-06  0.298E-04    4.01       5.4  T
  12  -5198.6012118 -0.177084E-06  0.105E-04    4.01      15.3  T

   *** convergence criteria satisfied after 12 iterations ***

         #    Occupation            Energy/Eh            Energy/eV
      -------------------------------------------------------------
         1        2.0000           -0.6537495             -17.7894
       ...           ...                  ...                  ...
      4806        2.0000           -0.3816257             -10.3846
      4807        2.0000           -0.3815695             -10.3830
      4808        2.0000           -0.3815577             -10.3827
      4809        2.0000           -0.3808824             -10.3643
      4810        2.0000           -0.3796153             -10.3299
      4811        2.0000           -0.3784703             -10.2987
      4812        2.0000           -0.3780104             -10.2862 (HOMO)
      4813                         -0.2307794              -6.2798 (LUMO)
      4814                         -0.2300178              -6.2591
      4815                         -0.2268210              -6.1721
      4816                         -0.2263904              -6.1604
      4817                         -0.2263110              -6.1582
       ...                                ...                  ...
      9624                          0.6848932              18.6369
      -------------------------------------------------------------
                  HL-Gap            0.1472310 Eh            4.0064 eV
             Fermi-level           -0.3043949 Eh           -8.2830 eV

 SCC (total)                   0 d,  0 h, 47 min, 31.556 sec
 SCC setup                      ...        0 min,  0.713 sec (  0.025%)
 Dispersion                     ...        0 min,  6.720 sec (  0.236%)
 classical contributions        ...        0 min,  0.157 sec (  0.005%)
 integral evaluation            ...        0 min, 12.653 sec (  0.444%)
 iterations                     ...       42 min, 10.961 sec ( 88.757%)
 molecular gradient             ...        4 min, 33.013 sec (  9.574%)
 printout                       ...        0 min, 27.339 sec (  0.959%)

         :::::::::::::::::::::::::::::::::::::::::::::::::::::
         ::                     SUMMARY                     ::
         :::::::::::::::::::::::::::::::::::::::::::::::::::::
         :: total energy           -5104.083538712273 Eh    ::
         :: gradient norm              0.023246123047 Eh/a0 ::
         :: HOMO-LUMO gap              4.006358978027 eV    ::
         ::.................................................::
         :: SCC energy             -5198.601211798291 Eh    ::
         :: -> isotropic ES            0.264482691675 Eh    ::
         :: -> anisotropic ES          0.787999870677 Eh    ::
         :: -> anisotropic XC          3.253562263082 Eh    ::
         :: -> dispersion             -7.019994136593 Eh    ::
         :: repulsion energy          93.365567788048 Eh    ::
         :: add. restraining           0.000000000000 Eh    ::
         :: total charge              -0.000000000031 e     ::
         :::::::::::::::::::::::::::::::::::::::::::::::::::::

      ----------------------------------------------------------- 
     |              Fast Inertial Relaxation Engine              |
      ----------------------------------------------------------- 

          ...................................................
          :                      SETUP                      :
          :.................................................:
          :   energy convergence        0.5000000E-05 Eh    :
          :   grad. convergence         0.1000000E-02 Eh/a0 :
          :   optimization log               true           :
          :   writing optlog all                1     steps :
          :   Hessian reset                    20     steps :
          :   time step scaling                 5     steps :
          :   maximium step len.        1.0000000     a0    :
          :   initial time step         0.2500000     fs    :
          :   maximum time step         1.2500000     fs    :
          :   power reset thr           0.0000000     au    :
          :   alpha parameter           0.1000000           :
          :   BFGS update                   false           :
          :   preconditioning               false           :
          ...................................................

........................................................................
.............................. CYCLE    1 ..............................
........................................................................

 iter      E             dE          RMSdq      gap      omega  full diag
   1  -5198.6023466 -0.519860E+04  0.323E-04    4.01       0.0  T
   2  -5198.6023466 -0.163118E-07  0.199E-04    4.01       8.1  T
   3  -5198.6023465  0.346336E-07  0.904E-05    4.01      17.8  T
     SCC iter.                  ...       10 min, 35.750 sec
     gradient                   ...        4 min, 36.102 sec
 * total energy  : -5104.0836000 Eh     change    :  -0.6125928E-04 Eh
   gradient norm :     0.0217870 Eh/a0  converged?    E=F G=F D=F
   time step     :     0.2500000 fs     power     :   0.3147554E-08
   step length   :     0.0027244 a0     speed     :   0.2636000E-03

........................................................................
.............................. CYCLE    2 ..............................
........................................................................

 iter      E             dE          RMSdq      gap      omega  full diag
   1  -5198.6040298 -0.519860E+04  0.473E-04    4.01       0.0  T
   2  -5198.6040298 -0.310774E-07  0.290E-04    4.01       5.5  T
   3  -5198.6040297  0.487544E-07  0.109E-04    4.01      14.8  T
     SCC iter.                  ...       10 min, 35.199 sec
     gradient                   ...        4 min, 33.970 sec
 * total energy  : -5104.0836828 Eh     change    :  -0.8283680E-04 Eh
   gradient norm :     0.0197299 Eh/a0  converged?    E=F G=F D=F
   time step     :     0.2500000 fs     power     :   0.4170552E-08
   step length   :     0.0040002 a0     speed     :   0.3870405E-03

........................................................................
.............................. CYCLE    3 ..............................
........................................................................

 iter      E             dE          RMSdq      gap      omega  full diag
   1  -5198.6062497 -0.519861E+04  0.609E-04    4.01       0.0  T
   2  -5198.6062497 -0.477958E-07  0.373E-04    4.01       4.3  T
   3  -5198.6062497  0.731116E-07  0.131E-04    4.01      12.3  T
     SCC iter.                  ...       10 min, 36.623 sec
     gradient                   ...        4 min, 35.027 sec
 * total energy  : -5104.0837773 Eh     change    :  -0.9448887E-04 Eh
   gradient norm :     0.0172783 Eh/a0  converged?    E=F G=F D=F
   time step     :     0.2500000 fs     power     :   0.4656003E-08
   step length   :     0.0051515 a0     speed     :   0.4984385E-03

........................................................................
.............................. CYCLE    4 ..............................
........................................................................

 iter      E             dE          RMSdq      gap      omega  full diag
   1  -5198.6089956 -0.519861E+04  0.726E-04    4.01       0.0  T
   2  -5198.6089957 -0.634373E-07  0.445E-04    4.01       3.6  T
   3  -5198.6089956  0.111749E-06  0.155E-04    4.01      10.4  T
     SCC iter.                  ...       10 min, 35.255 sec
     gradient                   ...        4 min, 34.373 sec
 * total energy  : -5104.0838733 Eh     change    :  -0.9598443E-04 Eh
   gradient norm :     0.0147083 Eh/a0  converged?    E=F G=F D=F
   time step     :     0.2500000 fs     power     :   0.4608758E-08
   step length   :     0.0061474 a0     speed     :   0.5947891E-03

........................................................................
.............................. CYCLE    5 ..............................
........................................................................

 iter      E             dE          RMSdq      gap      omega  full diag
   1  -5198.6122558 -0.519861E+04  0.820E-04    4.01       0.0  T
   2  -5198.6122558 -0.744349E-07  0.506E-04    4.01       3.2  T
   3  -5198.6122557  0.164524E-06  0.181E-04    4.01       8.9  T
     SCC iter.                  ...       10 min, 37.046 sec
     gradient                   ...        4 min, 33.998 sec
 * total energy  : -5104.0839620 Eh     change    :  -0.8874226E-04 Eh
   gradient norm :     0.0123642 Eh/a0  converged?    E=F G=F D=F
   time step     :     0.2500000 fs     power     :   0.4131031E-08
   step length   :     0.0069628 a0     speed     :   0.6736926E-03

........................................................................
.............................. CYCLE    6 ..............................
........................................................................

 iter      E             dE          RMSdq      gap      omega  full diag
   1  -5198.6164284 -0.519862E+04  0.986E-04    4.01       0.0  T
   2  -5198.6164285 -0.989312E-07  0.613E-04    4.01       2.6  T
   3  -5198.6164281  0.316124E-06  0.241E-04    4.01       6.7  T
     SCC iter.                  ...       10 min, 36.594 sec
     gradient                   ...        4 min, 34.556 sec
 * total energy  : -5104.0840447 Eh     change    :  -0.8269306E-04 Eh
   gradient norm :     0.0104498 Eh/a0  converged?    E=F G=F D=F
   time step     :     0.2750000 fs     power     :   0.3305817E-08
   step length   :     0.0084076 a0     speed     :   0.7395246E-03

........................................................................
.............................. CYCLE    7 ..............................
........................................................................

 iter      E             dE          RMSdq      gap      omega  full diag
   1  -5198.6216250 -0.519862E+04  0.114E-03    4.01       0.0  T
   2  -5198.6216251 -0.119378E-06  0.719E-04    4.01       2.2  T
   3  -5198.6216246  0.552455E-06  0.310E-04    4.01       5.2  T
     SCC iter.                  ...       10 min, 36.237 sec
     gradient                   ...        4 min, 33.757 sec
 * total energy  : -5104.0841141 Eh     change    :  -0.6938604E-04 Eh
   gradient norm :     0.0093866 Eh/a0  converged?    E=F G=F D=F
   time step     :     0.3025000 fs     power     :   0.2319944E-08
   step length   :     0.0098116 a0     speed     :   0.7845677E-03

........................................................................
.............................. CYCLE    8 ..............................
........................................................................

 iter      E             dE          RMSdq      gap      omega  full diag
   1  -5198.6278198 -0.519863E+04  0.127E-03    4.01       0.0  T
   2  -5198.6278200 -0.137075E-06  0.810E-04    4.01       2.0  T
   3  -5198.6278191  0.831764E-06  0.380E-04    4.01       4.2  T
     SCC iter.                  ...       10 min, 38.147 sec
     gradient                   ...        4 min, 34.595 sec
 * total energy  : -5104.0841669 Eh     change    :  -0.5281635E-04 Eh
   gradient norm :     0.0090432 Eh/a0  converged?    E=F G=F D=F
   time step     :     0.3327500 fs     power     :   0.1411441E-08
   step length   :     0.0110282 a0     speed     :   0.8016819E-03

........................................................................
.............................. CYCLE    9 ..............................
........................................................................

 iter      E             dE          RMSdq      gap      omega  full diag
   1  -5198.6347676 -0.519863E+04  0.137E-03    4.01       0.0  T
   2  -5198.6347677 -0.159599E-06  0.874E-04    4.01       1.8  T
   3  -5198.6347667  0.991536E-06  0.426E-04    4.01       3.8  T
     SCC iter.                  ...       10 min, 35.605 sec
     gradient                   ...        4 min, 31.581 sec
 * total energy  : -5104.0842040 Eh     change    :  -0.3709130E-04 Eh
   gradient norm :     0.0088257 Eh/a0  converged?    E=F G=F D=F
   time step     :     0.3660250 fs     power     :   0.6979754E-09
   step length   :     0.0119718 a0     speed     :   0.7911558E-03

........................................................................
.............................. CYCLE   10 ..............................
........................................................................

 iter      E             dE          RMSdq      gap      omega  full diag
   1  -5198.6419896 -0.519864E+04  0.143E-03    4.01       0.0  T
   2  -5198.6419897 -0.186608E-06  0.904E-04    4.01       1.8  T
   3  -5198.6419888  0.957354E-06  0.437E-04    4.01       3.7  T
     SCC iter.                  ...       10 min, 36.448 sec
     gradient                   ...        4 min, 31.116 sec
 * total energy  : -5104.0842268 Eh     change    :  -0.2278671E-04 Eh
   gradient norm :     0.0085309 Eh/a0  converged?    E=F G=F D=F
   time step     :     0.4026275 fs     power     :   0.1343061E-09
   step length   :     0.0126414 a0     speed     :   0.7594611E-03

........................................................................
.............................. CYCLE   11 ..............................
........................................................................

 iter      E             dE          RMSdq      gap      omega  full diag
   1  -5198.6487598 -0.519865E+04  0.144E-03    4.01       0.0  T
   2  -5198.6487600 -0.200264E-06  0.890E-04    4.01       1.8  T
   3  -5198.6487593  0.747236E-06  0.400E-04    4.01       4.0  T
     SCC iter.                  ...       10 min, 36.490 sec
     gradient                   ...        4 min, 35.158 sec
 * total energy  : -5104.0842359 Eh     change    :  -0.9129697E-05 Eh
   gradient norm :     0.0086296 Eh/a0  converged?    E=F G=F D=F
   time step     :     0.4428903 fs     power     :  -0.3064335E-09
   step length   :     0.0130171 a0     speed     :   0.7109378E-03

........................................................................
.............................. CYCLE   12 ..............................
........................................................................
 * reset velocities

 iter      E             dE          RMSdq      gap      omega  full diag
   1  -5198.6486004 -0.519865E+04  0.652E-05    4.01       0.0  T
   2  -5198.6486004 -0.607088E-08  0.588E-05    4.01      27.4  T
   3  -5198.6486004 -0.152249E-07  0.203E-05    4.01      79.4  T
     SCC iter.                  ...       10 min, 37.253 sec
     gradient                   ...        4 min, 34.428 sec
 * total energy  : -5104.0842402 Eh     change    :  -0.4301723E-05 Eh
   gradient norm :     0.0084786 Eh/a0  converged?    E=T G=F D=T
   time step     :     0.2214451 fs     power     :   0.2015563E-09
   step length   :     0.0003968 a0     speed     :   0.4333928E-04

........................................................................
.............................. CYCLE   13 ..............................
........................................................................

 iter      E             dE          RMSdq      gap      omega  full diag
   1  -5198.6482713 -0.519865E+04  0.769E-05    4.01       0.0  T
   2  -5198.6482713 -0.128966E-08  0.536E-05    4.01      30.0  T
   3  -5198.6482713  0.263844E-08  0.234E-05    4.01      68.7  T
     SCC iter.                  ...       10 min, 34.567 sec
     gradient                   ...        4 min, 36.870 sec
 * total energy  : -5104.0842468 Eh     change    :  -0.6528408E-05 Eh
   gradient norm :     0.0081393 Eh/a0  converged?    E=F G=F D=T
   time step     :     0.2214451 fs     power     :   0.3834909E-09
   step length   :     0.0007866 a0     speed     :   0.8591766E-04

........................................................................
.............................. CYCLE   14 ..............................
........................................................................

 iter      E             dE          RMSdq      gap      omega  full diag
   1  -5198.6477757 -0.519865E+04  0.110E-04    4.01       0.0  T
   2  -5198.6477757 -0.276304E-08  0.773E-05    4.01      20.8  T
   3  -5198.6477757  0.506679E-08  0.336E-05    4.01      47.8  T
     SCC iter.                  ...       10 min, 36.038 sec
     gradient                   ...        4 min, 34.891 sec
 * total energy  : -5104.0842559 Eh     change    :  -0.9141495E-05 Eh
   gradient norm :     0.0076452 Eh/a0  converged?    E=F G=F D=F
   time step     :     0.2214451 fs     power     :   0.5309914E-09
   step length   :     0.0011607 a0     speed     :   0.1267838E-03

........................................................................
.............................. CYCLE   15 ..............................
........................................................................

 iter      E             dE          RMSdq      gap      omega  full diag
   1  -5198.6471183 -0.519865E+04  0.143E-04    4.01       0.0  T
   2  -5198.6471183 -0.453929E-08  0.100E-04    4.01      16.1  T
   3  -5198.6471183  0.858108E-08  0.432E-05    4.01      37.3  T
     SCC iter.                  ...       10 min, 36.485 sec
     gradient                   ...        4 min, 34.860 sec
 * total energy  : -5104.0842670 Eh     change    :  -0.1107518E-04 Eh
   gradient norm :     0.0070278 Eh/a0  converged?    E=F G=F D=F
   time step     :     0.2214451 fs     power     :   0.6342983E-09
   step length   :     0.0015117 a0     speed     :   0.1651302E-03

........................................................................
.............................. CYCLE   16 ..............................
........................................................................

 iter      E             dE          RMSdq      gap      omega  full diag
   1  -5198.6463052 -0.519865E+04  0.172E-04    4.01       0.0  T
   2  -5198.6463052 -0.635191E-08  0.121E-04    4.01      13.3  T
   3  -5198.6463052  0.130121E-07  0.519E-05    4.01      31.0  T
     SCC iter.                  ...       10 min, 36.431 sec
     gradient                   ...        4 min, 34.892 sec
 * total energy  : -5104.0842791 Eh     change    :  -0.1213919E-04 Eh
   gradient norm :     0.0063103 Eh/a0  converged?    E=F G=F D=F
   time step     :     0.2214451 fs     power     :   0.6870755E-09
   step length   :     0.0018336 a0     speed     :   0.2002843E-03

........................................................................
.............................. CYCLE   17 ..............................
........................................................................

 iter      E             dE          RMSdq      gap      omega  full diag
   1  -5198.6453435 -0.519865E+04  0.198E-04    4.01       0.0  T
   2  -5198.6453435 -0.824730E-08  0.138E-04    4.01      11.6  T
   3  -5198.6453435  0.181453E-07  0.597E-05    4.01      27.0  T
     SCC iter.                  ...       10 min, 36.132 sec
     gradient                   ...        4 min, 34.670 sec
 * total energy  : -5104.0842915 Eh     change    :  -0.1240760E-04 Eh
   gradient norm :     0.0055376 Eh/a0  converged?    E=F G=F D=F
   time step     :     0.2214451 fs     power     :   0.6891694E-09
   step length   :     0.0021204 a0     speed     :   0.2316131E-03

........................................................................
.............................. CYCLE   18 ..............................
........................................................................

 iter      E             dE          RMSdq      gap      omega  full diag
   1  -5198.6441174 -0.519864E+04  0.241E-04    4.01       0.0  T
   2  -5198.6441174 -0.117616E-07  0.170E-04    4.01       9.5  T
   3  -5198.6441173  0.286755E-07  0.741E-05    4.01      21.7  T
     SCC iter.                  ...       10 min, 36.132 sec
     gradient                   ...        4 min, 35.841 sec
 * total energy  : -5104.0843045 Eh     change    :  -0.1302414E-04 Eh
   gradient norm :     0.0046855 Eh/a0  converged?    E=F G=F D=F
   time step     :     0.2435896 fs     power     :   0.6387625E-09
   step length   :     0.0026317 a0     speed     :   0.2613271E-03

........................................................................
.............................. CYCLE   19 ..............................
........................................................................

 iter      E             dE          RMSdq      gap      omega  full diag
   1  -5198.6425844 -0.519864E+04  0.287E-04    4.01       0.0  T
   2  -5198.6425845 -0.156597E-07  0.203E-04    4.01       7.9  T
   3  -5198.6425844  0.436748E-07  0.890E-05    4.01      18.1  T
     SCC iter.                  ...       10 min, 35.108 sec
     gradient                   ...        4 min, 35.996 sec
 * total energy  : -5104.0843171 Eh     change    :  -0.1253293E-04 Eh
   gradient norm :     0.0038599 Eh/a0  converged?    E=F G=F D=F
   time step     :     0.2679486 fs     power     :   0.5346044E-09
   step length   :     0.0031861 a0     speed     :   0.2876262E-03

........................................................................
.............................. CYCLE   20 ..............................
........................................................................

 iter      E             dE          RMSdq      gap      omega  full diag
   1  -5198.6407128 -0.519864E+04  0.328E-04    4.01       0.0  T
   2  -5198.6407128 -0.188347E-07  0.232E-04    4.01       6.9  T
   3  -5198.6407128  0.634591E-07  0.104E-04    4.01      15.5  T
     SCC iter.                  ...       10 min, 36.525 sec
     gradient                   ...        4 min, 35.171 sec
 * total energy  : -5104.0843280 Eh     change    :  -0.1088432E-04 Eh
   gradient norm :     0.0032686 Eh/a0  converged?    E=F G=F D=F
   time step     :     0.2947435 fs     power     :   0.3905540E-09
   step length   :     0.0037520 a0     speed     :   0.3079174E-03
 * RMSD in coord.:     0.0012803 a0     energy gain  -0.7892498E-03 Eh

........................................................................
.............................. CYCLE   21 ..............................
........................................................................

 iter      E             dE          RMSdq      gap      omega  full diag
   1  -5198.6390426 -0.519864E+04  0.276E-04    4.01       0.0  T
   2  -5198.6390426 -0.110804E-07  0.192E-04    4.01       8.4  T
   3  -5198.6390425  0.476921E-07  0.867E-05    4.01      18.6  T
     SCC iter.                  ...       10 min, 38.631 sec
     gradient                   ...        4 min, 34.948 sec
 * total energy  : -5104.0843348 Eh     change    :  -0.6810047E-05 Eh
   gradient norm :     0.0031177 Eh/a0  converged?    E=F G=F D=F
   time step     :     0.2500000 fs     power     :   0.2819954E-09
   step length   :     0.0032449 a0     speed     :   0.3139575E-03

........................................................................
.............................. CYCLE   22 ..............................
........................................................................

 iter      E             dE          RMSdq      gap      omega  full diag
   1  -5198.6373631 -0.519864E+04  0.261E-04    4.01       0.0  T
   2  -5198.6373631 -0.823093E-08  0.180E-04    4.01       8.9  T
   3  -5198.6373630  0.460450E-07  0.841E-05    4.01      19.1  T
     SCC iter.                  ...       10 min, 39.511 sec
     gradient                   ...        4 min, 32.123 sec
 * total energy  : -5104.0843399 Eh     change    :  -0.5152355E-05 Eh
   gradient norm :     0.0032005 Eh/a0  converged?    E=F G=F D=F
   time step     :     0.2500000 fs     power     :   0.2093467E-09
   step length   :     0.0032158 a0     speed     :   0.3111480E-03

........................................................................
.............................. CYCLE   23 ..............................
........................................................................

 iter      E             dE          RMSdq      gap      omega  full diag
   1  -5198.6357511 -0.519864E+04  0.243E-04    4.01       0.0  T
   2  -5198.6357511 -0.557702E-08  0.164E-04    4.01       9.8  T
   3  -5198.6357511  0.373229E-07  0.757E-05    4.01      21.3  T
     SCC iter.                  ...       10 min, 33.466 sec
     gradient                   ...        4 min, 33.069 sec
 * total energy  : -5104.0843442 Eh     change    :  -0.4262541E-05 Eh
   gradient norm :     0.0033643 Eh/a0  converged?    E=T G=F D=F
   time step     :     0.2500000 fs     power     :   0.1781550E-09
   step length   :     0.0031249 a0     speed     :   0.3023539E-03

........................................................................
.............................. CYCLE   24 ..............................
........................................................................

 iter      E             dE          RMSdq      gap      omega  full diag
   1  -5198.6342691 -0.519863E+04  0.228E-04    4.01       0.0  T
   2  -5198.6342692 -0.364889E-08  0.148E-04    4.01      10.9  T
   3  -5198.6342691  0.222562E-07  0.598E-05    4.01      26.9  T
     SCC iter.                  ...       10 min, 39.364 sec
     gradient                   ...        4 min, 31.959 sec
 * total energy  : -5104.0843482 Eh     change    :  -0.4037824E-05 Eh
   gradient norm :     0.0035002 Eh/a0  converged?    E=T G=F D=F
   time step     :     0.2500000 fs     power     :   0.1810882E-09
   step length   :     0.0030141 a0     speed     :   0.2916296E-03

........................................................................
.............................. CYCLE   25 ..............................
........................................................................

 iter      E             dE          RMSdq      gap      omega  full diag
   1  -5198.6329603 -0.519863E+04  0.218E-04    4.01       0.0  T
   2  -5198.6329603 -0.235104E-08  0.135E-04    4.01      11.9  T
   3  -5198.6329603  0.707041E-08  0.361E-05    4.01      44.5  T
     SCC iter.                  ...       10 min, 35.149 sec
     gradient                   ...        4 min, 33.484 sec
 * total energy  : -5104.0843526 Eh     change    :  -0.4348729E-05 Eh
   gradient norm :     0.0035581 Eh/a0  converged?    E=T G=F D=F
   time step     :     0.2500000 fs     power     :   0.2051784E-09
   step length   :     0.0029161 a0     speed     :   0.2821526E-03

........................................................................
.............................. CYCLE   26 ..............................
........................................................................

 iter      E             dE          RMSdq      gap      omega  full diag
   1  -5198.6317437 -0.519863E+04  0.235E-04    4.01       0.0  T
   2  -5198.6317437 -0.227101E-08  0.140E-04    4.01      11.5  T
   3  -5198.6317437  0.132968E-08  0.234E-05    4.01      68.7  T
     SCC iter.                  ...       10 min, 35.675 sec
     gradient                   ...        4 min, 34.597 sec
 * total energy  : -5104.0843580 Eh     change    :  -0.5396827E-05 Eh
   gradient norm :     0.0035185 Eh/a0  converged?    E=F G=F D=F
   time step     :     0.2750000 fs     power     :   0.2372148E-09
   step length   :     0.0031458 a0     speed     :   0.2766990E-03

........................................................................
.............................. CYCLE   27 ..............................
........................................................................

 iter      E             dE          RMSdq      gap      omega  full diag
   1  -5198.6306783 -0.519863E+04  0.260E-04    4.01       0.0  T
   2  -5198.6306783 -0.262389E-08  0.153E-04    4.01      10.5  T
   3  -5198.6306783  0.339696E-08  0.303E-05    4.01      53.0  T
     SCC iter.                  ...       10 min, 36.927 sec
     gradient                   ...        4 min, 34.441 sec
 * total energy  : -5104.0843645 Eh     change    :  -0.6523808E-05 Eh
   gradient norm :     0.0033725 Eh/a0  converged?    E=F G=F D=F
   time step     :     0.3025000 fs     power     :   0.2667752E-09
   step length   :     0.0034526 a0     speed     :   0.2760819E-03

........................................................................
.............................. CYCLE   28 ..............................
........................................................................

 iter      E             dE          RMSdq      gap      omega  full diag
   1  -5198.6298309 -0.519863E+04  0.295E-04    4.01       0.0  T
   2  -5198.6298309 -0.372165E-08  0.174E-04    4.01       9.2  T
   3  -5198.6298309  0.128011E-07  0.519E-05    4.01      31.0  T
     SCC iter.                  ...       10 min, 35.459 sec
     gradient                   ...        4 min, 33.738 sec
 * total energy  : -5104.0843723 Eh     change    :  -0.7788616E-05 Eh
   gradient norm :     0.0031339 Eh/a0  converged?    E=F G=F D=F
   time step     :     0.3327500 fs     power     :   0.2847684E-09
   step length   :     0.0038525 a0     speed     :   0.2800513E-03

........................................................................
.............................. CYCLE   29 ..............................
........................................................................

 iter      E             dE          RMSdq      gap      omega  full diag
   1  -5198.6292745 -0.519863E+04  0.337E-04    4.01       0.0  T
   2  -5198.6292745 -0.534510E-08  0.202E-04    4.01       8.0  T
   3  -5198.6292745  0.339760E-07  0.817E-05    4.01      19.7  T
     SCC iter.                  ...       10 min, 33.354 sec
     gradient                   ...        4 min, 32.196 sec
 * total energy  : -5104.0843810 Eh     change    :  -0.8747968E-05 Eh
   gradient norm :     0.0028413 Eh/a0  converged?    E=F G=F D=F
   time step     :     0.3660250 fs     power     :   0.2848784E-09
   step length   :     0.0043512 a0     speed     :   0.2875530E-03

........................................................................
.............................. CYCLE   30 ..............................
........................................................................

 iter      E             dE          RMSdq      gap      omega  full diag
   1  -5198.6290823 -0.519863E+04  0.382E-04    4.01       0.0  T
   2  -5198.6290823 -0.737782E-08  0.232E-04    4.01       6.9  T
   3  -5198.6290823  0.604914E-07  0.108E-04    4.01      14.9  T
     SCC iter.                  ...       10 min, 36.881 sec
     gradient                   ...        4 min, 34.512 sec
 * total energy  : -5104.0843902 Eh     change    :  -0.9207254E-05 Eh
   gradient norm :     0.0025614 Eh/a0  converged?    E=F G=F D=F
   time step     :     0.4026275 fs     power     :   0.2659491E-09
   step length   :     0.0049415 a0     speed     :   0.2968725E-03

........................................................................
.............................. CYCLE   31 ..............................
........................................................................

 iter      E             dE          RMSdq      gap      omega  full diag
   1  -5198.6293083 -0.519863E+04  0.422E-04    4.01       0.0  T
   2  -5198.6293083 -0.897489E-08  0.259E-04    4.01       6.2  T
   3  -5198.6293082  0.814834E-07  0.124E-04    4.01      13.0  T
     SCC iter.                  ...       10 min, 34.298 sec
     gradient                   ...        4 min, 33.277 sec
 * total energy  : -5104.0843994 Eh     change    :  -0.9133215E-05 Eh
   gradient norm :     0.0023691 Eh/a0  converged?    E=F G=F D=F
   time step     :     0.4428903 fs     power     :   0.2339354E-09
   step length   :     0.0056006 a0     speed     :   0.3058802E-03

........................................................................
.............................. CYCLE   32 ..............................
........................................................................

 iter      E             dE          RMSdq      gap      omega  full diag
   1  -5198.6299552 -0.519863E+04  0.450E-04    4.01       0.0  T
   2  -5198.6299552 -0.100063E-07  0.275E-04    4.01       5.9  T
   3  -5198.6299551  0.843820E-07  0.125E-04    4.01      12.9  T
     SCC iter.                  ...       10 min, 36.464 sec
     gradient                   ...        4 min, 35.226 sec
 * total energy  : -5104.0844082 Eh     change    :  -0.8841479E-05 Eh
   gradient norm :     0.0022966 Eh/a0  converged?    E=F G=F D=F
   time step     :     0.4871793 fs     power     :   0.2003325E-09
   step length   :     0.0062961 a0     speed     :   0.3126083E-03

........................................................................
.............................. CYCLE   33 ..............................
........................................................................

 iter      E             dE          RMSdq      gap      omega  full diag
   1  -5198.6309483 -0.519863E+04  0.460E-04    4.01       0.0  T
   2  -5198.6309483 -0.105019E-07  0.277E-04    4.01       5.8  T
   3  -5198.6309482  0.559830E-07  0.102E-04    4.01      15.8  T
     SCC iter.                  ...       10 min, 35.388 sec
     gradient                   ...        4 min, 32.840 sec
 * total energy  : -5104.0844169 Eh     change    :  -0.8728980E-05 Eh
   gradient norm :     0.0023237 Eh/a0  converged?    E=F G=F D=F
   time step     :     0.5358972 fs     power     :   0.1767209E-09
   step length   :     0.0070081 a0     speed     :   0.3163264E-03

........................................................................
.............................. CYCLE   34 ..............................
........................................................................

 iter      E             dE          RMSdq      gap      omega  full diag
   1  -5198.6321380 -0.519863E+04  0.451E-04    4.01       0.0  T
   2  -5198.6321380 -0.104292E-07  0.269E-04    4.01       6.0  T
   3  -5198.6321380  0.130412E-07  0.563E-05    4.01      28.6  T
     SCC iter.                  ...       10 min, 35.832 sec
     gradient                   ...        4 min, 35.009 sec
 * total energy  : -5104.0844260 Eh     change    :  -0.9087634E-05 Eh
   gradient norm :     0.0024053 Eh/a0  converged?    E=F G=F D=F
   time step     :     0.5894869 fs     power     :   0.1710383E-09
   step length   :     0.0077543 a0     speed     :   0.3181879E-03

........................................................................
.............................. CYCLE   35 ..............................
........................................................................

 iter      E             dE          RMSdq      gap      omega  full diag
   1  -5198.6333284 -0.519863E+04  0.429E-04    4.01       0.0  T
   2  -5198.6333284 -0.804175E-08  0.260E-04    4.01       6.2  T
   3  -5198.6333284  0.146647E-07  0.559E-05    4.01      28.8  T
     SCC iter.                  ...       10 min, 37.382 sec
     gradient                   ...        4 min, 40.486 sec
 * total energy  : -5104.0844364 Eh     change    :  -0.1039164E-04 Eh
   gradient norm :     0.0024320 Eh/a0  converged?    E=F G=F D=F
   time step     :     0.6484356 fs     power     :   0.1846749E-09
   step length   :     0.0086002 a0     speed     :   0.3208159E-03

........................................................................
.............................. CYCLE   36 ..............................
........................................................................

 iter      E             dE          RMSdq      gap      omega  full diag
   1  -5198.6343058 -0.519863E+04  0.418E-04    4.01       0.0  T
   2  -5198.6343058 -0.643195E-08  0.257E-04    4.01       6.3  T
   3  -5198.6343058  0.241671E-07  0.669E-05    4.01      24.0  T
     SCC iter.                  ...       10 min, 36.458 sec
     gradient                   ...        4 min, 32.900 sec
 * total energy  : -5104.0844489 Eh     change    :  -0.1243380E-04 Eh
   gradient norm :     0.0022969 Eh/a0  converged?    E=F G=F D=F
   time step     :     0.7132792 fs     power     :   0.2034127E-09
   step length   :     0.0096472 a0     speed     :   0.3271591E-03

........................................................................
.............................. CYCLE   37 ..............................
........................................................................

 iter      E             dE          RMSdq      gap      omega  full diag
   1  -5198.6348666 -0.519863E+04  0.422E-04    4.01       0.0  T
   2  -5198.6348666 -0.993532E-08  0.269E-04    4.01       6.0  T
   3  -5198.6348665  0.659484E-07  0.104E-04    4.01      15.5  T
     SCC iter.                  ...       10 min, 33.050 sec
     gradient                   ...        4 min, 32.169 sec
 * total energy  : -5104.0844630 Eh     change    :  -0.1415510E-04 Eh
   gradient norm :     0.0021886 Eh/a0  converged?    E=F G=F D=F
   time step     :     0.7846071 fs     power     :   0.2087020E-09
   step length   :     0.0109650 a0     speed     :   0.3380430E-03

........................................................................
.............................. CYCLE   38 ..............................
........................................................................

 iter      E             dE          RMSdq      gap      omega  full diag
   1  -5198.6348617 -0.519863E+04  0.449E-04    4.01       0.0  T
   2  -5198.6348617 -0.141927E-07  0.282E-04    4.01       5.7  T
   3  -5198.6348617  0.588398E-07  0.102E-04    4.01      15.7  T
     SCC iter.                  ...       10 min, 36.618 sec
     gradient                   ...        4 min, 33.208 sec
 * total energy  : -5104.0844792 Eh     change    :  -0.1614643E-04 Eh
   gradient norm :     0.0023184 Eh/a0  converged?    E=F G=F D=F
   time step     :     0.8630678 fs     power     :   0.2191872E-09
   step length   :     0.0125278 a0     speed     :   0.3511122E-03

........................................................................
.............................. CYCLE   39 ..............................
........................................................................

 iter      E             dE          RMSdq      gap      omega  full diag
   1  -5198.6343860 -0.519863E+04  0.516E-04    4.01       0.0  T
   2  -5198.6343860 -0.137079E-07  0.311E-04    4.01       5.2  T
   3  -5198.6343859  0.253322E-07  0.749E-05    4.01      21.5  T
     SCC iter.                  ...       10 min, 35.790 sec
     gradient                   ...        4 min, 33.067 sec
 * total energy  : -5104.0844992 Eh     change    :  -0.2002580E-04 Eh
   gradient norm :     0.0022764 Eh/a0  converged?    E=F G=F D=F
   time step     :     0.9493746 fs     power     :   0.2567572E-09
   step length   :     0.0143937 a0     speed     :   0.3667338E-03

........................................................................
.............................. CYCLE   40 ..............................
........................................................................

 iter      E             dE          RMSdq      gap      omega  full diag
   1  -5198.6339470 -0.519863E+04  0.599E-04    4.01       0.0  T
   2  -5198.6339470 -0.156424E-07  0.363E-04    4.01       4.4  T
   3  -5198.6339470  0.440405E-07  0.935E-05    4.01      17.2  T
     SCC iter.                  ...       10 min, 35.373 sec
     gradient                   ...        4 min, 33.843 sec
 * total energy  : -5104.0845235 Eh     change    :  -0.2426826E-04 Eh
   gradient norm :     0.0020002 Eh/a0  converged?    E=F G=F D=F
   time step     :     1.0443120 fs     power     :   0.2769410E-09
   step length   :     0.0168157 a0     speed     :   0.3894929E-03

........................................................................
.............................. CYCLE   41 ..............................
........................................................................

 iter      E             dE          RMSdq      gap      omega  full diag
   1  -5198.6344658 -0.519863E+04  0.642E-04    4.01       0.0  T
   2  -5198.6344658 -0.182172E-07  0.394E-04    4.01       4.1  T
   3  -5198.6344657  0.653699E-07  0.112E-04    4.01      14.4  T
     SCC iter.                  ...       10 min, 37.772 sec
     gradient                   ...        4 min, 36.014 sec
 * total energy  : -5104.0845501 Eh     change    :  -0.2668637E-04 Eh
   gradient norm :     0.0020963 Eh/a0  converged?    E=F G=F D=F
   time step     :     1.1487432 fs     power     :   0.2684037E-09
   step length   :     0.0197847 a0     speed     :   0.4166028E-03

........................................................................
.............................. CYCLE   42 ..............................
........................................................................

 iter      E             dE          RMSdq      gap      omega  full diag
   1  -5198.6362631 -0.519864E+04  0.695E-04    4.01       0.0  T
   2  -5198.6362631 -0.139589E-07  0.413E-04    4.01       3.9  T
   3  -5198.6362631  0.149621E-07  0.647E-05    4.01      24.8  T
     SCC iter.                  ...       10 min, 37.141 sec
     gradient                   ...        4 min, 34.163 sec
 * total energy  : -5104.0845815 Eh     change    :  -0.3134848E-04 Eh
   gradient norm :     0.0021876 Eh/a0  converged?    E=F G=F D=F
   time step     :     1.2500000 fs     power     :   0.3085817E-09
   step length   :     0.0228077 a0     speed     :   0.4413541E-03
 * RMSD in coord.:     0.0025059 a0     energy gain  -0.2535232E-03 Eh

........................................................................
.............................. CYCLE   43 ..............................
........................................................................

 iter      E             dE          RMSdq      gap      omega  full diag
   1  -5198.6365978 -0.519864E+04  0.136E-04    4.01       0.0  T
   2  -5198.6365978 -0.568434E-09  0.800E-05    4.01      20.1  T
   3  -5198.6365978  0.193268E-08  0.212E-05    4.01      76.1  T
     SCC iter.                  ...       10 min, 34.120 sec
     gradient                   ...        4 min, 34.461 sec
 * total energy  : -5104.0845879 Eh     change    :  -0.6454469E-05 Eh
   gradient norm :     0.0021183 Eh/a0  converged?    E=F G=F D=F
   time step     :     0.2500000 fs     power     :   0.3379662E-09
   step length   :     0.0044711 a0     speed     :   0.4326062E-03

........................................................................
.............................. CYCLE   44 ..............................
........................................................................

 iter      E             dE          RMSdq      gap      omega  full diag
   1  -5198.6368889 -0.519864E+04  0.144E-04    4.01       0.0  T
   2  -5198.6368889 -0.882210E-09  0.861E-05    4.01      18.7  T
   3  -5198.6368889  0.355431E-08  0.268E-05    4.01      60.0  T
     SCC iter.                  ...       10 min, 35.301 sec
     gradient                   ...        4 min, 36.081 sec
 * total energy  : -5104.0845947 Eh     change    :  -0.6796530E-05 Eh
   gradient norm :     0.0019348 Eh/a0  converged?    E=F G=F D=F
   time step     :     0.2500000 fs     power     :   0.3545278E-09
   step length   :     0.0044283 a0     speed     :   0.4284612E-03

........................................................................
.............................. CYCLE   45 ..............................
........................................................................

 iter      E             dE          RMSdq      gap      omega  full diag
   1  -5198.6371242 -0.519864E+04  0.159E-04    4.01       0.0  T
   2  -5198.6371242 -0.127238E-08  0.963E-05    4.01      16.7  T
   3  -5198.6371242  0.480668E-08  0.317E-05    4.01      50.8  T
     SCC iter.                  ...       10 min, 35.827 sec
     gradient                   ...        4 min, 35.106 sec
 * total energy  : -5104.0846016 Eh     change    :  -0.6868771E-05 Eh
   gradient norm :     0.0017087 Eh/a0  converged?    E=F G=F D=F
   time step     :     0.2500000 fs     power     :   0.3527620E-09
   step length   :     0.0044328 a0     speed     :   0.4288961E-03

........................................................................
.............................. CYCLE   46 ..............................
........................................................................

 iter      E             dE          RMSdq      gap      omega  full diag
   1  -5198.6372985 -0.519864E+04  0.171E-04    4.01       0.0  T
   2  -5198.6372985 -0.166074E-08  0.105E-04    4.01      15.4  T
   3  -5198.6372985  0.599812E-08  0.343E-05    4.01      47.0  T
     SCC iter.                  ...       10 min, 36.511 sec
     gradient                   ...        4 min, 34.625 sec
 * total energy  : -5104.0846082 Eh     change    :  -0.6605534E-05 Eh
   gradient norm :     0.0015396 Eh/a0  converged?    E=F G=F D=F
   time step     :     0.2500000 fs     power     :   0.3361724E-09
   step length   :     0.0044739 a0     speed     :   0.4328757E-03

........................................................................
.............................. CYCLE   47 ..............................
........................................................................

 iter      E             dE          RMSdq      gap      omega  full diag
   1  -5198.6374160 -0.519864E+04  0.175E-04    4.01       0.0  T
   2  -5198.6374160 -0.152613E-08  0.107E-04    4.01      15.0  T
   3  -5198.6374160  0.569617E-08  0.328E-05    4.01      49.0  T
     SCC iter.                  ...       10 min, 34.946 sec
     gradient                   ...        4 min, 34.308 sec
 * total energy  : -5104.0846145 Eh     change    :  -0.6284353E-05 Eh
   gradient norm :     0.0015003 Eh/a0  converged?    E=F G=F D=F
   time step     :     0.2500000 fs     power     :   0.3158590E-09
   step length   :     0.0045258 a0     speed     :   0.4378949E-03

........................................................................
.............................. CYCLE   48 ..............................
........................................................................

 iter      E             dE          RMSdq      gap      omega  full diag
   1  -5198.6374961 -0.519864E+04  0.184E-04    4.01       0.0  T
   2  -5198.6374961 -0.164346E-08  0.112E-04    4.01      14.4  T
   3  -5198.6374961  0.513683E-08  0.307E-05    4.01      52.4  T
     SCC iter.                  ...       10 min, 36.268 sec
     gradient                   ...        4 min, 33.710 sec
 * total energy  : -5104.0846211 Eh     change    :  -0.6590984E-05 Eh
   gradient norm :     0.0015763 Eh/a0  converged?    E=F G=F D=F
   time step     :     0.2750000 fs     power     :   0.3021245E-09
   step length   :     0.0050185 a0     speed     :   0.4414268E-03

........................................................................
.............................. CYCLE   49 ..............................
........................................................................

 iter      E             dE          RMSdq      gap      omega  full diag
   1  -5198.6375490 -0.519864E+04  0.183E-04    4.01       0.0  T
   2  -5198.6375490 -0.115961E-08  0.110E-04    4.01      14.7  T
   3  -5198.6375489  0.260206E-08  0.235E-05    4.01      68.3  T
     SCC iter.                  ...       10 min, 38.766 sec
     gradient                   ...        4 min, 35.032 sec
 * total energy  : -5104.0846282 Eh     change    :  -0.7152704E-05 Eh
   gradient norm :     0.0016850 Eh/a0  converged?    E=F G=F D=F
   time step     :     0.3025000 fs     power     :   0.3024617E-09
   step length   :     0.0055292 a0     speed     :   0.4421314E-03

........................................................................
.............................. CYCLE   50 ..............................
........................................................................

 iter      E             dE          RMSdq      gap      omega  full diag
   1  -5198.6375813 -0.519864E+04  0.178E-04    4.01       0.0  T
   2  -5198.6375813 -0.757609E-09  0.106E-04    4.01      15.2  T
   3  -5198.6375813  0.899490E-09  0.155E-05    4.01     103.8  T
     SCC iter.                  ...       10 min, 37.375 sec
     gradient                   ...        4 min, 33.329 sec
 * total energy  : -5104.0846362 Eh     change    :  -0.7977445E-05 Eh
   gradient norm :     0.0017351 Eh/a0  converged?    E=F G=F D=F
   time step     :     0.3327500 fs     power     :   0.3148154E-09
   step length   :     0.0060788 a0     speed     :   0.4418897E-03

........................................................................
.............................. CYCLE   51 ..............................
........................................................................

 iter      E             dE          RMSdq      gap      omega  full diag
   1  -5198.6375880 -0.519864E+04  0.181E-04    4.01       0.0  T
   2  -5198.6375880 -0.623913E-09  0.107E-04    4.01      15.0  T
   3  -5198.6375880  0.989530E-09  0.157E-05    4.01     102.5  T
     SCC iter.                  ...       10 min, 35.290 sec
     gradient                   ...        4 min, 33.547 sec
 * total energy  : -5104.0846454 Eh     change    :  -0.9207350E-05 Eh
   gradient norm :     0.0016820 Eh/a0  converged?    E=F G=F D=F
   time step     :     0.3660250 fs     power     :   0.3298352E-09
   step length   :     0.0067113 a0     speed     :   0.4435155E-03

........................................................................
.............................. CYCLE   52 ..............................
........................................................................

 iter      E             dE          RMSdq      gap      omega  full diag
   1  -5198.6375452 -0.519864E+04  0.198E-04    4.01       0.0  T
   2  -5198.6375452 -0.994078E-09  0.119E-04    4.01      13.5  T
   3  -5198.6375452  0.337968E-08  0.261E-05    4.01      61.7  T
     SCC iter.                  ...       10 min, 36.845 sec
     gradient                   ...        4 min, 33.570 sec
 * total energy  : -5104.0846559 Eh     change    :  -0.1047035E-04 Eh
   gradient norm :     0.0015550 Eh/a0  converged?    E=F G=F D=F
   time step     :     0.4026275 fs     power     :   0.3371030E-09
   step length   :     0.0074727 a0     speed     :   0.4489404E-03

........................................................................
.............................. CYCLE   53 ..............................
........................................................................

 iter      E             dE          RMSdq      gap      omega  full diag
   1  -5198.6374081 -0.519864E+04  0.226E-04    4.01       0.0  T
   2  -5198.6374081 -0.198543E-08  0.138E-04    4.01      11.7  T
   3  -5198.6374081  0.815089E-08  0.391E-05    4.01      41.2  T
     SCC iter.                  ...       10 min, 33.589 sec
     gradient                   ...        4 min, 33.442 sec
 * total energy  : -5104.0846674 Eh     change    :  -0.1146973E-04 Eh
   gradient norm :     0.0014658 Eh/a0  converged?    E=F G=F D=F
   time step     :     0.4428903 fs     power     :   0.3334962E-09
   step length   :     0.0083934 a0     speed     :   0.4584124E-03

........................................................................
.............................. CYCLE   54 ..............................
........................................................................

 iter      E             dE          RMSdq      gap      omega  full diag
   1  -5198.6371319 -0.519864E+04  0.252E-04    4.01       0.0  T
   2  -5198.6371319 -0.241744E-08  0.154E-04    4.01      10.5  T
   3  -5198.6371319  0.950968E-08  0.422E-05    4.01      38.1  T
     SCC iter.                  ...       10 min, 37.711 sec
     gradient                   ...        4 min, 32.913 sec
 * total energy  : -5104.0846798 Eh     change    :  -0.1242194E-04 Eh
   gradient norm :     0.0014939 Eh/a0  converged?    E=F G=F D=F
   time step     :     0.4871793 fs     power     :   0.3284823E-09
   step length   :     0.0094588 a0     speed     :   0.4696347E-03

........................................................................
.............................. CYCLE   55 ..............................
........................................................................

 iter      E             dE          RMSdq      gap      omega  full diag
   1  -5198.6367248 -0.519864E+04  0.269E-04    4.01       0.0  T
   2  -5198.6367248 -0.199725E-08  0.161E-04    4.01      10.0  T
   3  -5198.6367248  0.482669E-08  0.324E-05    4.01      49.7  T
     SCC iter.                  ...       10 min, 35.621 sec
     gradient                   ...        4 min, 32.996 sec
 * total energy  : -5104.0846936 Eh     change    :  -0.1385041E-04 Eh
   gradient norm :     0.0015595 Eh/a0  converged?    E=F G=F D=F
   time step     :     0.5358972 fs     power     :   0.3333868E-09
   step length   :     0.0106299 a0     speed     :   0.4798027E-03

........................................................................
.............................. CYCLE   56 ..............................
........................................................................

 iter      E             dE          RMSdq      gap      omega  full diag
   1  -5198.6362879 -0.519864E+04  0.285E-04    4.01       0.0  T
   2  -5198.6362879 -0.188993E-08  0.168E-04    4.01       9.6  T
   3  -5198.6362879  0.269029E-08  0.269E-05    4.01      59.8  T
     SCC iter.                  ...       10 min, 36.525 sec
     gradient                   ...        4 min, 33.457 sec
 * total energy  : -5104.0847094 Eh     change    :  -0.1577124E-04 Eh
   gradient norm :     0.0015705 Eh/a0  converged?    E=F G=F D=F
   time step     :     0.5894869 fs     power     :   0.3474669E-09
   step length   :     0.0119389 a0     speed     :   0.4898974E-03

........................................................................
.............................. CYCLE   57 ..............................
........................................................................

 iter      E             dE          RMSdq      gap      omega  full diag
   1  -5198.6360130 -0.519864E+04  0.313E-04    4.01       0.0  T
   2  -5198.6360130 -0.187447E-08  0.186E-04    4.01       8.6  T
   3  -5198.6360130  0.950331E-08  0.423E-05    4.01      38.1  T
     SCC iter.                  ...       10 min, 38.482 sec
     gradient                   ...        4 min, 34.889 sec
 * total energy  : -5104.0847275 Eh     change    :  -0.1805426E-04 Eh
   gradient norm :     0.0014977 Eh/a0  converged?    E=F G=F D=F
   time step     :     0.6484356 fs     power     :   0.3616531E-09
   step length   :     0.0134700 a0     speed     :   0.5024780E-03

........................................................................
.............................. CYCLE   58 ..............................
........................................................................

 iter      E             dE          RMSdq      gap      omega  full diag
   1  -5198.6361247 -0.519864E+04  0.360E-04    4.01       0.0  T
   2  -5198.6361247 -0.329055E-08  0.218E-04    4.01       7.4  T
   3  -5198.6361247  0.241816E-07  0.650E-05    4.01      24.8  T
     SCC iter.                  ...       10 min, 34.613 sec
     gradient                   ...        4 min, 33.603 sec
 * total energy  : -5104.0847477 Eh     change    :  -0.2025414E-04 Eh
   gradient norm :     0.0014305 Eh/a0  converged?    E=F G=F D=F
   time step     :     0.7132792 fs     power     :   0.3670547E-09
   step length   :     0.0153088 a0     speed     :   0.5191554E-03

........................................................................
.............................. CYCLE   59 ..............................
........................................................................

 iter      E             dE          RMSdq      gap      omega  full diag
   1  -5198.6367052 -0.519864E+04  0.398E-04    4.01       0.0  T
   2  -5198.6367052 -0.332602E-08  0.238E-04    4.01       6.8  T
   3  -5198.6367052  0.149466E-07  0.534E-05    4.01      30.1  T
     SCC iter.                  ...       10 min, 34.695 sec
     gradient                   ...        4 min, 31.733 sec
 * total energy  : -5104.0847704 Eh     change    :  -0.2272863E-04 Eh
   gradient norm :     0.0015021 Eh/a0  converged?    E=F G=F D=F
   time step     :     0.7846071 fs     power     :   0.3735926E-09
   step length   :     0.0174637 a0     speed     :   0.5383919E-03

........................................................................
.............................. CYCLE   60 ..............................
........................................................................

 iter      E             dE          RMSdq      gap      omega  full diag
   1  -5198.6375264 -0.519864E+04  0.429E-04    4.01       0.0  T
   2  -5198.6375264 -0.322325E-08  0.253E-04    4.01       6.4  T
   3  -5198.6375264  0.989348E-08  0.463E-05    4.01      34.8  T
     SCC iter.                  ...       10 min, 36.011 sec
     gradient                   ...        4 min, 32.207 sec
 * total energy  : -5104.0847963 Eh     change    :  -0.2585287E-04 Eh
   gradient norm :     0.0014842 Eh/a0  converged?    E=F G=F D=F
   time step     :     0.8630678 fs     power     :   0.3926379E-09
   step length   :     0.0198800 a0     speed     :   0.5571689E-03

........................................................................
.............................. CYCLE   61 ..............................
........................................................................

 iter      E             dE          RMSdq      gap      omega  full diag
   1  -5198.6382073 -0.519864E+04  0.490E-04    4.01       0.0  T
   2  -5198.6382073 -0.478212E-08  0.291E-04    4.01       5.5  T
   3  -5198.6382072  0.231439E-07  0.655E-05    4.01      24.6  T
     SCC iter.                  ...       10 min, 34.830 sec
     gradient                   ...        4 min, 32.147 sec
 * total energy  : -5104.0848259 Eh     change    :  -0.2964415E-04 Eh
   gradient norm :     0.0014074 Eh/a0  converged?    E=F G=F D=F
   time step     :     0.9493746 fs     power     :   0.4054752E-09
   step length   :     0.0227511 a0     speed     :   0.5796685E-03

........................................................................
.............................. CYCLE   62 ..............................
........................................................................

 iter      E             dE          RMSdq      gap      omega  full diag
   1  -5198.6384507 -0.519864E+04  0.549E-04    4.01       0.0  T
   2  -5198.6384507 -0.585442E-08  0.325E-04    4.01       4.9  T
   3  -5198.6384507  0.184236E-07  0.618E-05    4.01      26.0  T
     SCC iter.                  ...       10 min, 35.635 sec
     gradient                   ...        4 min, 35.570 sec
 * total energy  : -5104.0848595 Eh     change    :  -0.3354374E-04 Eh
   gradient norm :     0.0014816 Eh/a0  converged?    E=F G=F D=F
   time step     :     1.0443120 fs     power     :   0.4163091E-09
   step length   :     0.0261704 a0     speed     :   0.6061707E-03

........................................................................
.............................. CYCLE   63 ..............................
........................................................................

 iter      E             dE          RMSdq      gap      omega  full diag
   1  -5198.6382526 -0.519864E+04  0.605E-04    4.01       0.0  T
   2  -5198.6382526 -0.666387E-08  0.358E-04    4.01       4.5  T
   3  -5198.6382526  0.298642E-07  0.773E-05    4.01      20.8  T
     SCC iter.                  ...       10 min, 36.001 sec
     gradient                   ...        4 min, 32.752 sec
 * total energy  : -5104.0848982 Eh     change    :  -0.3875177E-04 Eh
   gradient norm :     0.0014297 Eh/a0  converged?    E=F G=F D=F
   time step     :     1.1487432 fs     power     :   0.4406223E-09
   step length   :     0.0300411 a0     speed     :   0.6325697E-03

........................................................................
.............................. CYCLE   64 ..............................
........................................................................

 iter      E             dE          RMSdq      gap      omega  full diag
   1  -5198.6379441 -0.519864E+04  0.698E-04    4.01       0.0  T
   2  -5198.6379441 -0.960608E-08  0.418E-04    4.01       3.9  T
   3  -5198.6379441  0.729660E-07  0.112E-04    4.01      14.4  T
     SCC iter.                  ...       10 min, 36.164 sec
     gradient                   ...        4 min, 31.534 sec
 * total energy  : -5104.0849421 Eh     change    :  -0.4381406E-04 Eh
   gradient norm :     0.0013950 Eh/a0  converged?    E=F G=F D=F
   time step     :     1.2500000 fs     power     :   0.4529940E-09
   step length   :     0.0343112 a0     speed     :   0.6639585E-03

........................................................................
.............................. CYCLE   65 ..............................
........................................................................

 iter      E             dE          RMSdq      gap      omega  full diag
   1  -5198.6383261 -0.519864E+04  0.719E-04    4.01       0.0  T
   2  -5198.6383261 -0.760883E-08  0.424E-04    4.01       3.8  T
   3  -5198.6383260  0.262517E-07  0.785E-05    4.01      20.5  T
     SCC iter.                  ...       10 min, 36.434 sec
     gradient                   ...        4 min, 32.669 sec
 * total energy  : -5104.0849876 Eh     change    :  -0.4554342E-04 Eh
   gradient norm :     0.0014222 Eh/a0  converged?    E=F G=F D=F
   time step     :     1.2500000 fs     power     :   0.4743859E-09
   step length   :     0.0358891 a0     speed     :   0.6944927E-03

........................................................................
.............................. CYCLE   66 ..............................
........................................................................

 iter      E             dE          RMSdq      gap      omega  full diag
   1  -5198.6389663 -0.519864E+04  0.751E-04    4.01       0.0  T
   2  -5198.6389663 -0.917953E-08  0.447E-04    4.01       3.6  T
   3  -5198.6389663  0.569289E-07  0.100E-04    4.01      16.0  T
     SCC iter.                  ...       10 min, 36.467 sec
     gradient                   ...        4 min, 33.583 sec
 * total energy  : -5104.0850347 Eh     change    :  -0.4712976E-04 Eh
   gradient norm :     0.0013397 Eh/a0  converged?    E=F G=F D=F
   time step     :     1.2500000 fs     power     :   0.4908876E-09
   step length   :     0.0374209 a0     speed     :   0.7241343E-03

........................................................................
.............................. CYCLE   67 ..............................
........................................................................

 iter      E             dE          RMSdq      gap      omega  full diag
   1  -5198.6392135 -0.519864E+04  0.767E-04    4.01       0.0  T
   2  -5198.6392135 -0.822729E-08  0.452E-04    4.01       3.6  T
   3  -5198.6392134  0.389637E-07  0.902E-05    4.01      17.8  T
     SCC iter.                  ...       10 min, 34.459 sec
     gradient                   ...        4 min, 33.761 sec
 * total energy  : -5104.0850831 Eh     change    :  -0.4840959E-04 Eh
   gradient norm :     0.0014133 Eh/a0  converged?    E=F G=F D=F
   time step     :     1.2500000 fs     power     :   0.5053556E-09
   step length   :     0.0390402 a0     speed     :   0.7554693E-03
 * RMSD in coord.:     0.0061308 a0     energy gain  -0.5016482E-03 Eh

........................................................................
.............................. CYCLE   68 ..............................
........................................................................

 iter      E             dE          RMSdq      gap      omega  full diag
   1  -5198.6392825 -0.519864E+04  0.151E-04    4.01       0.0  T
   2  -5198.6392825 -0.367436E-09  0.890E-05    4.01      18.1  T
   3  -5198.6392825  0.108957E-08  0.161E-05    4.01     100.1  T
     SCC iter.                  ...       10 min, 36.496 sec
     gradient                   ...        4 min, 32.723 sec
 * total energy  : -5104.0850929 Eh     change    :  -0.9772531E-05 Eh
   gradient norm :     0.0013787 Eh/a0  converged?    E=F G=F D=F
   time step     :     0.2500000 fs     power     :   0.5171939E-09
   step length   :     0.0077846 a0     speed     :   0.7532028E-03

........................................................................
.............................. CYCLE   69 ..............................
........................................................................

 iter      E             dE          RMSdq      gap      omega  full diag
   1  -5198.6393765 -0.519864E+04  0.157E-04    4.01       0.0  T
   2  -5198.6393765 -0.534783E-09  0.935E-05    4.01      17.2  T
   3  -5198.6393765  0.304044E-08  0.241E-05    4.01      66.6  T
     SCC iter.                  ...       10 min, 38.749 sec
     gradient                   ...        4 min, 31.240 sec
 * total energy  : -5104.0851028 Eh     change    :  -0.9886014E-05 Eh
   gradient norm :     0.0013052 Eh/a0  converged?    E=F G=F D=F
   time step     :     0.2500000 fs     power     :   0.5207177E-09
   step length   :     0.0077946 a0     speed     :   0.7541667E-03

........................................................................
.............................. CYCLE   70 ..............................
........................................................................

 iter      E             dE          RMSdq      gap      omega  full diag
   1  -5198.6394743 -0.519864E+04  0.162E-04    4.01       0.0  T
   2  -5198.6394743 -0.712134E-09  0.979E-05    4.01      16.4  T
   3  -5198.6394743  0.412638E-08  0.282E-05    4.01      57.1  T
     SCC iter.                  ...       10 min, 39.153 sec
     gradient                   ...        4 min, 33.530 sec
 * total energy  : -5104.0851126 Eh     change    :  -0.9806507E-05 Eh
   gradient norm :     0.0012697 Eh/a0  converged?    E=F G=F D=F
   time step     :     0.2500000 fs     power     :   0.5164256E-09
   step length   :     0.0078438 a0     speed     :   0.7589266E-03

........................................................................
.............................. CYCLE   71 ..............................
........................................................................

 iter      E             dE          RMSdq      gap      omega  full diag
   1  -5198.6395536 -0.519864E+04  0.162E-04    4.01       0.0  T
   2  -5198.6395536 -0.732143E-09  0.978E-05    4.01      16.5  T
[...]
  3617   6 C     3618   6 C                                       1.3906934
  3618   6 C     3619   6 C                                       1.3822968
  3619   6 C     3620   6 C                                       1.3845525
  3620   6 C     3621   6 C                                       1.3843870
  3617   6 C     3622   6 C                                       1.3883414
  3621   6 C     3622   6 C                                       1.3846687
  3616   6 C     3623   6 C                                       1.5388892
  3623   6 C     3624   6 C                                       1.5295483
  3625   6 C     3626   6 C                                       1.3894575
  3626   6 C     3627   6 C                                       1.3847359
  3627   6 C     3628   6 C                                       1.3829745
  3628   6 C     3629   6 C                                       1.3846015
  3625   6 C     3630   6 C                                       1.3914803
  3629   6 C     3630   6 C                                       1.3818968
  3631   6 C     3632   6 C                                       1.5378134
  3633   6 C     3634   6 C                                       1.3907138
  3634   6 C     3635   6 C                                       1.3826580
  3635   6 C     3636   6 C                                       1.3851250
  3636   6 C     3637   6 C                                       1.3845717
  3633   6 C     3638   6 C                                       1.3885432
  3637   6 C     3638   6 C                                       1.3853924
  3632   6 C     3639   6 C                                       1.5346124
  3639   6 C     3640   6 C                                       1.5337113
  3641   6 C     3642   6 C                                       1.3908787
  3642   6 C     3643   6 C                                       1.3832812
  3643   6 C     3644   6 C                                       1.3844287
  3644   6 C     3645   6 C                                       1.3840784
  3641   6 C     3646   6 C                                       1.3888066
  3645   6 C     3646   6 C                                       1.3837313
  3640   6 C     3647   6 C                                       1.5342595
  3647   6 C     3648   6 C                                       1.5395424
  3649   6 C     3650   6 C                                       1.3899353
  3650   6 C     3651   6 C                                       1.3840598
  3651   6 C     3652   6 C                                       1.3838741
  3652   6 C     3653   6 C                                       1.3839831
  3649   6 C     3654   6 C                                       1.3903691
  3653   6 C     3654   6 C                                       1.3829273
  3648   6 C     3655   6 C                                       1.5368468
  3655   6 C     3656   6 C                                       1.5369105
  3657   6 C     3658   6 C                                       1.3911377
  3658   6 C     3659   6 C                                       1.3827169
  3659   6 C     3660   6 C                                       1.3847822
  3660   6 C     3661   6 C                                       1.3837630
  3657   6 C     3662   6 C                                       1.3883758
  3661   6 C     3662   6 C                                       1.3844043
  3656   6 C     3663   6 C                                       1.5356964
  3663   6 C     3664   6 C                                       1.5337885
  3665   6 C     3666   6 C                                       1.3902890
  3666   6 C     3667   6 C                                       1.3829611
  3667   6 C     3668   6 C                                       1.3842906
  3668   6 C     3669   6 C                                       1.3836751
  3665   6 C     3670   6 C                                       1.3889598
  3669   6 C     3670   6 C                                       1.3838754
  3664   6 C     3671   6 C                                       1.5380149
  3671   6 C     3672   6 C                                       1.5362772
  3673   6 C     3674   6 C                                       1.3899300
  3674   6 C     3675   6 C                                       1.3832312
  3675   6 C     3676   6 C                                       1.3842018
  3676   6 C     3677   6 C                                       1.3841982
  3673   6 C     3678   6 C                                       1.3892529
  3677   6 C     3678   6 C                                       1.3836086
  3672   6 C     3679   6 C                                       1.5340887
  3679   6 C     3680   6 C                                       1.5337255
  3681   6 C     3682   6 C                                       1.3885588
  3682   6 C     3683   6 C                                       1.3836089
  3683   6 C     3684   6 C                                       1.3832607
  3684   6 C     3685   6 C                                       1.3845498
  3681   6 C     3686   6 C                                       1.3904115
  3685   6 C     3686   6 C                                       1.3826874
  3680   6 C     3687   6 C                                       1.5360042
  3687   6 C     3688   6 C                                       1.5368600
  3549   6 C     3689   1 H                                       1.0957729
  3551   6 C     3690   1 H                                       1.0909861
  3551   6 C     3691   1 H                                       1.0912275
  3552   6 C     3692   1 H                                       1.0960676
  3559   6 C     3693   1 H                                       1.0913768
  3559   6 C     3694   1 H                                       1.0922042
  3560   6 C     3695   1 H                                       1.0960861
  3567   6 C     3696   1 H                                       1.0914564
  3567   6 C     3697   1 H                                       1.0904445
  3568   6 C     3698   1 H                                       1.0955828
  3575   6 C     3699   1 H                                       1.0905727
  3576   6 C     3700   1 H                                       1.0936148
  3583   6 C     3701   1 H                                       1.0921551
  3583   6 C     3702   1 H                                       1.0942774
  3584   6 C     3703   1 H                                       1.0948924
  3591   6 C     3704   1 H                                       1.0908191
  3591   6 C     3705   1 H                                       1.0903441
  3592   6 C     3706   1 H                                       1.0948044
  3599   6 C     3707   1 H                                       1.0923954
  3599   6 C     3708   1 H                                       1.0922906
  3600   6 C     3709   1 H                                       1.0944135
  3608   6 C     3710   1 H                                       1.0953444
  3615   6 C     3711   1 H                                       1.0929180
  3615   6 C     3712   1 H                                       1.0892983
  3616   6 C     3713   1 H                                       1.0947311
  3623   6 C     3714   1 H                                       1.0902964
  3623   6 C     3715   1 H                                       1.0931314
  3624   6 C     3716   1 H                                       1.0960350
  3631   6 C     3717   1 H                                       1.0925404
  3631   6 C     3718   1 H                                       1.0928512
  3632   6 C     3719   1 H                                       1.0939414
  3639   6 C     3720   1 H                                       1.0885415
  3639   6 C     3721   1 H                                       1.0893357
  3640   6 C     3722   1 H                                       1.0964176
  3647   6 C     3723   1 H                                       1.0921442
  3647   6 C     3724   1 H                                       1.0900509
  3648   6 C     3725   1 H                                       1.0932399
  3655   6 C     3726   1 H                                       1.0930543
  3655   6 C     3727   1 H                                       1.0918965
  3656   6 C     3728   1 H                                       1.0949642
  3663   6 C     3729   1 H                                       1.0909358
  3663   6 C     3730   1 H                                       1.0910271
  3664   6 C     3731   1 H                                       1.0942161
  3671   6 C     3732   1 H                                       1.0927559
  3671   6 C     3733   1 H                                       1.0929850
  3672   6 C     3734   1 H                                       1.0940660
  3679   6 C     3735   1 H                                       1.0916964
  3679   6 C     3736   1 H                                       1.0906352
  3543   6 C     3737   1 H                                       1.0810930
  3548   6 C     3738   1 H                                       1.0803578
  3547   6 C     3739   1 H                                       1.0790716
  3546   6 C     3740   1 H                                       1.0804164
  3545   6 C     3741   1 H                                       1.0801724
  3554   6 C     3742   1 H                                       1.0803039
  3555   6 C     3743   1 H                                       1.0804988
  3556   6 C     3744   1 H                                       1.0800507
  3557   6 C     3745   1 H                                       1.0805843
  3558   6 C     3746   1 H                                       1.0811695
  3562   6 C     3747   1 H                                       1.0810947
  3563   6 C     3748   1 H                                       1.0809673
  3564   6 C     3749   1 H                                       1.0810155
  3565   6 C     3750   1 H                                       1.0797993
  3566   6 C     3751   1 H                                       1.0810438
  3570   6 C     3752   1 H                                       1.0801300
  3571   6 C     3753   1 H                                       1.0807343
  3572   6 C     3754   1 H                                       1.0800674
  3573   6 C     3755   1 H                                       1.0806627
  3574   6 C     3756   1 H                                       1.0804697
  3575   6 C     3757   1 H                                       1.0916705
  3578   6 C     3758   1 H                                       1.0816374
  3579   6 C     3759   1 H                                       1.0809416
  3580   6 C     3760   1 H                                       1.0804898
  3581   6 C     3761   1 H                                       1.0808822
  3582   6 C     3762   1 H                                       1.0807952
  3586   6 C     3763   1 H                                       1.0806978
  3587   6 C     3764   1 H                                       1.0803119
  3588   6 C     3765   1 H                                       1.0802084
  3589   6 C     3766   1 H                                       1.0798910
  3590   6 C     3767   1 H                                       1.0795271
  3594   6 C     3768   1 H                                       1.0813640
  3595   6 C     3769   1 H                                       1.0809687
  3596   6 C     3770   1 H                                       1.0803727
  3597   6 C     3771   1 H                                       1.0804722
  3598   6 C     3772   1 H                                       1.0803465
  3602   6 C     3773   1 H                                       1.0809057
  3603   6 C     3774   1 H                                       1.0804179
  3604   6 C     3775   1 H                                       1.0801659
  3605   6 C     3776   1 H                                       1.0807805
  3606   6 C     3777   1 H                                       1.0807146
  3607   6 C     3778   1 H                                       1.0908799
  3607   6 C     3779   1 H                                       1.0917549
  3610   6 C     3780   1 H                                       1.0822259
  3611   6 C     3781   1 H                                       1.0808411
  3612   6 C     3782   1 H                                       1.0802230
  3613   6 C     3783   1 H                                       1.0803188
  3614   6 C     3784   1 H                                       1.0799693
  3618   6 C     3785   1 H                                       1.0801304
  3619   6 C     3786   1 H                                       1.0803878
  3620   6 C     3787   1 H                                       1.0807125
  3621   6 C     3788   1 H                                       1.0810252
  3622   6 C     3789   1 H                                       1.0810706
  3626   6 C     3790   1 H                                       1.0799890
  3627   6 C     3791   1 H                                       1.0805900
  3628   6 C     3792   1 H                                       1.0801227
  3629   6 C     3793   1 H                                       1.0807652
  3630   6 C     3794   1 H                                       1.0820181
  3634   6 C     3795   1 H                                       1.0804706
  3635   6 C     3796   1 H                                       1.0803144
  3636   6 C     3797   1 H                                       1.0807827
  3637   6 C     3798   1 H                                       1.0806118
  3638   6 C     3799   1 H                                       1.0813290
  3642   6 C     3800   1 H                                       1.0802508
  3643   6 C     3801   1 H                                       1.0801871
  3644   6 C     3802   1 H                                       1.0801560
  3645   6 C     3803   1 H                                       1.0805396
  3646   6 C     3804   1 H                                       1.0803011
  3650   6 C     3805   1 H                                       1.0825211
  3651   6 C     3806   1 H                                       1.0810522
  3652   6 C     3807   1 H                                       1.0789690
  3653   6 C     3808   1 H                                       1.0800823
  3654   6 C     3809   1 H                                       1.0803000
  3658   6 C     3810   1 H                                       1.0802354
  3659   6 C     3811   1 H                                       1.0812414
  3660   6 C     3812   1 H                                       1.0802000
  3661   6 C     3813   1 H                                       1.0804652
  3662   6 C     3814   1 H                                       1.0811195
  3666   6 C     3815   1 H                                       1.0804339
  3667   6 C     3816   1 H                                       1.0808940
  3668   6 C     3817   1 H                                       1.0801198
  3669   6 C     3818   1 H                                       1.0805111
  3670   6 C     3819   1 H                                       1.0812204
  3674   6 C     3820   1 H                                       1.0797511
  3675   6 C     3821   1 H                                       1.0802676
  3676   6 C     3822   1 H                                       1.0801699
  3677   6 C     3823   1 H                                       1.0806709
  3678   6 C     3824   1 H                                       1.0810862
  3686   6 C     3825   1 H                                       1.0811308
  3685   6 C     3826   1 H                                       1.0814894
  3684   6 C     3827   1 H                                       1.0792659
  3683   6 C     3828   1 H                                       1.0810801
  3682   6 C     3829   1 H                                       1.0801196
  3550   6 C     3830   1 H                                       1.0882340
  3550   6 C     3831   1 H                                       1.0879792
  3550   6 C     3832   1 H                                       1.0869472
  3680   6 C     3833   1 H                                       1.0950048
  3687   6 C     3834   1 H                                       1.0922514
  3687   6 C     3835   1 H                                       1.0903663
  3688   6 C     3836   6 C                                       1.5356411
  3837   6 C     3838   6 C                                       1.3896634
  3838   6 C     3839   6 C                                       1.3836238
  3839   6 C     3840   6 C                                       1.3830543
  3840   6 C     3841   6 C                                       1.3842475
  3837   6 C     3842   6 C                                       1.3901164
  3841   6 C     3842   6 C                                       1.3830069
  3838   6 C     3843   1 H                                       1.0807646
  3839   6 C     3844   1 H                                       1.0800216
  3840   6 C     3845   1 H                                       1.0801596
  3841   6 C     3846   1 H                                       1.0806457
  3842   6 C     3847   1 H                                       1.0803322
  3836   6 C     3848   6 C                                       1.5351421
  3836   6 C     3849   1 H                                       1.0925699
  3836   6 C     3850   1 H                                       1.0917511
  3851   6 C     3852   6 C                                       1.3901847
  3852   6 C     3853   6 C                                       1.3827168
  3853   6 C     3854   6 C                                       1.3842996
  3854   6 C     3855   6 C                                       1.3830616
  3851   6 C     3856   6 C                                       1.3887852
  3855   6 C     3856   6 C                                       1.3833034
  3852   6 C     3857   1 H                                       1.0806297
  3853   6 C     3858   1 H                                       1.0805220
  3854   6 C     3859   1 H                                       1.0793948
  3855   6 C     3860   1 H                                       1.0799770
  3856   6 C     3861   1 H                                       1.0808537
  3688   6 C     3862   1 H                                       1.0958919
  3848   6 C     3863   1 H                                       1.0937669
  3848   6 C     3864   1 H                                       1.0913574

 * 2 distinct bonds (by element types)

   Z      Z             #   av. dist./Å        max./Å        min./Å
   1 H    6 C        1944     1.0851291     1.0978867     1.0774985
   6 C    6 C        1852     1.4190557     1.5404986     1.3801174


optimized geometry written to: xtbopt.xyz


           -------------------------------------------------
          | TOTAL ENERGY            -5104.092660304874 Eh   |
          | GRADIENT NORM               0.000785139046 Eh/α |
          | HOMO-LUMO GAP               4.004435307250 eV   |
           -------------------------------------------------

------------------------------------------------------------------------
 * finished run on 2024/10/09 at 09:25:04.279     
------------------------------------------------------------------------
 total:
 * wall-time:     4 d, 11 h, 55 min, 19.064 sec
 *  cpu-time:    29 d, 10 h, 53 min, 42.676 sec
 * ratio c/w:     6.550 speedup
 SCF:
 * wall-time:     0 d,  0 h, 47 min, 31.741 sec
 *  cpu-time:     0 d,  5 h, 46 min, 21.456 sec
 * ratio c/w:     7.287 speedup
 ANC optimizer:
 * wall-time:     4 d, 11 h,  6 min, 35.491 sec
 *  cpu-time:    29 d,  5 h,  5 min, 47.660 sec
 * ratio c/w:     6.546 speedup

