3536
 energy: -3716.240635477116 gnorm: 0.000959439972 xtb: 6.6.1 (8d0f1dd)
C           63.89561498627670       69.80452530890133       49.50243911123027
C           63.43574283785079       68.34959541118434       49.54413582498103
C           62.02137254995559       68.26471971414557       50.11603942421662
C           64.37268362982060       67.47877826727084       50.38868045273758
C           65.80719333833845       67.32629166695388       49.87071282252354
C           65.82560297908975       66.71673293984375       48.46903537440576
C           66.63384204639880       66.43832264419281       50.81449959023188
C           66.86961416413966       66.98781637149571       52.22790451901299
C           67.58669199735583       68.33580588586904       52.18342456483310
C           67.68085408548947       65.97211002477056       53.04714488902710
C           67.59123841042495       66.18362165537910       54.56576608552918
C           68.74562109376153       65.46486395106028       55.26368431618547
C           66.24133795283224       65.69499945172855       55.11571851106876
C           65.64921217472630       66.54176080277669       56.25412123793920
C           64.46413681680305       65.78727868625529       56.85382897189425
C           65.24449535229630       67.92365883551177       55.71829674877057
C           64.35195973736110       68.80888744057276       56.60112710748474
C           64.11265817015114       70.12180275949449       55.85253738813047
C           64.95569463040982       69.06764063247793       57.98456978646000
C           64.01186389475188       69.75250951066798       58.98608531396404
C           64.78189056411527       70.03278834498215       60.27745717147538
C           62.74480589937833       68.91814325294352       59.26730575709918
C           61.45520261351646       69.56706920461083       58.74266559246595
C           61.00207801219138       70.66775226619028       59.70249688312468
C           60.31915927602027       68.55023552699831       58.55396570754164
C           60.48755727539286       67.59400207224735       57.36677646581208
C           60.47040580334193       68.34820746080692       56.03574316846750
C           59.36893519948401       66.54353878458983       57.31401591478971
C           59.18347030119180       65.63510868716678       58.53629434038955
C           60.51441183058199       65.08633864775749       59.04928746410814
C           58.28215535630861       64.44100241314079       58.17925962220230
C           56.89863750546541       64.76998387057726       57.61082984558190
C           55.99717832153872       65.37916083764556       58.68294303354875
C           56.22534250806690       63.52512927954437       57.01428974745389
C           56.86233109534738       63.00813852869968       55.70953930112971
C           55.77699307241742       62.73665159556333       54.66723971448803
C           57.70099989529454       61.73792172541124       55.92669493605350
C           58.83915017879056       61.55090465437899       54.90852397862058
C           59.29982352893963       60.09482797361803       54.90813088643982
C           59.99057039126831       62.50540510962699       55.24494752556544
C           61.23041434400782       62.48736146196557       54.34086701469645
C           62.24706527635311       63.46191201450215       54.93495728546173
C           60.88468327698487       62.84513476744367       52.89188395708592
C           62.08412279262341       62.80974657169916       51.92750796111185
C           62.56566346162520       64.21861337910737       51.58283936495067
C           61.74208575072504       62.06478696649783       50.63011909522708
C           61.66961487352816       60.53892200925718       50.78252474283801
C           63.07775524025440       59.95898853066291       50.88718496987092
C           60.88567538361906       59.92346742848248       49.61267718546996
C           60.33802428182778       58.51173922327637       49.87009208408948
C           61.32023313368647       57.42302770592127       49.43955149534904
C           59.01728457671212       58.25813854114696       49.12630372270817
C           57.82460904038875       59.14687583804454       49.49607054544418
C           57.62940160514619       59.23388201479316       51.00967011260175
C           56.52852165057880       58.60990573718531       48.86988911889235
C           56.51381489464620       58.41701824985474       47.34985348216247
C           56.77394961313760       59.73771594652893       46.62621886364943
C           55.16057173471951       57.84809500170946       46.89357715209170
C           54.85322163167454       56.39770606255601       47.29758170442184
C           55.85666091159883       55.43346279940444       46.66792777070894
C           53.42441373805263       56.05215684764290       46.85477688797374
C           52.80806704486222       54.78202160325288       47.46404235877139
C           51.68625201940900       54.29514399101470       46.54656511109486
C           52.28329558829038       55.06525832404294       48.87729578507555
C           51.78017107104714       53.84162646915090       49.65789435954021
C           50.90581321944182       54.30210550467277       50.82360166936181
C           52.94446108724137       52.98508111330165       50.16689624817531
C           52.55219414967787       51.56637349951755       50.60253881895433
C           53.64182596861691       50.98724460756593       51.50142282504586
C           52.32634476788665       50.65329013239387       49.39058699719125
C           51.54760003857619       49.36398457857544       49.71515847393631
C           52.29455549949356       48.13707097877244       49.19203326338386
C           50.13603848410857       49.37879915022531       49.11558035623436
C           49.20021636755336       50.46941271151318       49.65172143283424
C           48.68460233331068       50.10036820263053       51.04073885979877
C           48.02072222417816       50.67354010586166       48.68964864718378
C           48.39844076693880       51.44169220223307       47.41007614554202
C           48.14207764524169       52.93504005556010       47.59094101823059
C           47.62724360129663       50.88272295043017       46.20983045479621
C           48.03300917251092       51.42319870626209       44.83240478682813
C           47.18452018708414       50.72950368572958       43.76541325364284
C           49.54387373346535       51.35072761728921       44.53884223506765
C           50.28077836996496       50.02990562278443       44.81976260453963
C           51.74177648990803       50.33686326649265       45.15645826818386
C           50.21652883437020       49.05424438855703       43.63677248202514
C           50.48234850777373       47.59232814740628       44.02844213502010
C           50.88960987937772       46.79094335657378       42.79328332968466
C           49.24544706263490       46.97907259983915       44.69626144640077
C           49.49455835654125       45.66647560892471       45.44269117110515
C           50.39737202706911       45.82760817366204       46.66016866466463
H           63.97321106425476       70.20871696148768       50.51029790178509
H           64.86494200563610       69.89722406595234       49.01884486772936
H           63.18307714981511       70.41142894108422       48.94701334156527
H           51.41479577057350       46.07038233252172       46.36725415371088
H           50.02743253139919       46.61908057277459       47.30740768142577
H           50.42365052026045       44.90284047172894       47.23231590425817
H           48.83227294111526       47.69505506840175       45.40993058056676
H           48.48443417694222       46.80878708844918       43.92883102161146
H           49.24100138132210       49.10845143873793       43.15485804711901
H           50.95795972392848       49.36528139961912       42.89600249395763
H           49.83169576545720       49.54940446546225       45.69090401792786
H           51.81640432574689       50.92523173543298       46.06829593998854
H           52.30951269018760       49.42091423645930       45.29994742147301
H           52.20556826986219       50.90007671885876       44.34882464125285
H           49.70015275877192       51.62106241531438       43.49071850824649
H           50.02230774143073       52.13119441951338       45.13424040961805
H           47.73409297592602       49.79488165273019       46.19799238979827
H           46.56456521416109       51.09271098175302       46.35531441375385
H           51.31256560640556       47.56823744489205       44.73818272501726
H           51.79735455677184       47.20115534087430       42.35544098339455
H           51.07859762344524       45.75017157284991       43.04513810918689
H           50.10215109570285       46.82268113393616       42.04211047235007
H           47.77295796790334       52.48803941560741       44.79484561050445
H           46.13513178278669       50.99030449550227       43.89460705658139
H           47.48730413398555       51.03834806396916       42.76692199736717
H           47.26729905418069       49.64781281744264       43.83839263202907
H           49.46674267270360       51.30219590758318       47.22694000461969
H           48.64031380746722       53.29627269143376       48.48741372005354
H           48.51855249063848       53.50147708214504       46.74252500351727
H           47.07533420500098       53.12874492866136       47.68621012251605
H           47.61949496782444       49.69008164172211       48.43044892411662
H           47.22489624314108       51.21629836322339       49.20282202796626
H           49.74771510485053       51.41280469378932       49.72610899914848
H           48.06569879168271       50.89757690471239       51.44667047929043
H           48.08270254341107       49.19442118806531       50.98985511920480
H           49.50687825268853       49.92533034370144       51.73041809756941
H           50.23681692177661       49.48623507239140       48.03319449555077
H           49.66590810413605       48.40776104810364       49.29768295776041
H           51.46193513013623       49.26145372569614       50.80163087670772
H           53.29430732843334       48.08689782784166       49.61669796620995
H           51.76691894860459       47.22099005673866       49.45057005579011
H           52.38287394010414       48.18266334327069       48.10790826468656
H           51.79366953953375       51.20492633428214       48.61458262370279
H           53.30348018223753       50.39549962060579       48.97499580173972
H           51.62545262392778       51.61643758379919       51.18239341087915
H           53.40223244925951       49.96775458204775       51.79379295040570
H           54.59508674212032       50.97535799238987       50.97702762797415
H           53.75255062641049       51.58366066271157       52.40417734461314
H           53.70581043709625       52.90284966484427       49.38839274136343
H           53.39883118151304       53.50274921202756       51.01576740728002
H           51.15574869431062       53.23534720456568       48.99592631891392
H           51.48341732015619       54.91269857416421       51.51383860656299
H           50.06440290783772       54.89133435319680       50.46384203895405
H           50.50803493241833       53.45150947064297       51.37274309600720
H           53.07351930673420       55.54338178269379       49.45920524130604
H           51.46298528655266       55.78276535393842       48.79035447670782
H           53.56857147025978       53.99695056566571       47.51303366659976
H           52.08246437499731       54.02359522158451       45.57022781092898
H           51.18955098973657       53.42026206452518       46.95603073546244
H           50.94146709646549       55.07728106253374       46.40942943332142
H           52.76677196670476       56.88984566450723       47.09699420383300
H           53.42881435677803       55.94961198984450       45.76673804213998
H           54.90708782148451       56.30922085020631       48.38565925680888
H           55.89223435486764       55.57632974441196       45.58969578451256
H           56.85746408816939       55.59008810450808       47.06208763110219
H           55.57990517346305       54.40016826935314       46.86114866258828
H           54.36986779241138       58.49556243469327       47.28279425142433
H           55.11689750369420       57.90294695649738       45.80165086623243
H           57.30033972083719       57.71329464851429       47.06484933000919
H           57.76707344829789       60.11672212318393       46.85627421112982
H           56.70839341334019       59.60470482550424       45.54746962072766
H           56.04252137916088       60.48634056001504       46.92154578512790
H           56.30838885900178       57.65018754320977       49.34031593606616
H           55.72042594021161       59.29932137239990       49.12877299118643
H           57.99395702386231       60.16088361845168       49.12018759300354
H           56.70926105347473       59.76680733417767       51.24064469508993
H           57.56786838481910       58.23763307852600       51.44359485249790
H           58.45061574368004       59.76468751089470       51.48268705544896
H           59.21336558979146       58.35796822154091       48.05591130767256
H           58.72609385295185       57.21945652589073       49.30864057481178
H           60.16148789453056       58.40415409683588       50.94414582667926
H           61.48005477646247       57.46044820132735       48.36434676454637
H           62.28201780583949       57.52999066624967       49.92812736640192
H           60.92650980481368       56.44082290437985       49.69283569751509
H           60.04450017772714       60.58344121988988       49.39882901324005
H           61.51760618809529       59.91068484426203       48.72319724152749
H           61.13194573912590       60.31543639988743       51.71162622411213
H           63.04983323317871       58.92501558978800       51.21709873520646
H           63.57965630638737       60.00228538749616       49.92213249847506
H           63.67951941085075       60.51409249631734       51.60238687180436
H           60.78463134178636       62.44333187913720       50.26434182829632
H           62.49654200888530       62.30080040258829       49.87418842493426
H           62.90890173847440       62.28409681759271       52.41812265057164
H           61.80853886829282       64.74763253352671       51.00613377893819
H           62.77478854394050       64.79678718263006       52.47857054154582
H           63.47654218233252       64.17303966814802       50.98672665785702
H           60.12953448300922       62.14263193470633       52.53850510968763
H           60.43245986911415       63.83870477987006       52.87143865280786
H           61.67394067545955       61.48609525685777       54.35791831222627
H           61.84878887222266       64.47574417471748       54.92237182821665
H           62.46555255346480       63.19757604251195       55.96804683205853
H           63.18262902055520       63.45071862439243       54.38470430509438
H           59.60396523575847       63.52817731039123       55.24703342606485
H           60.32368234522345       62.28200279734877       56.26266290166714
H           58.45167039162581       61.78873313771218       53.91232528679713
H           58.46485795121654       59.43567956408538       54.67964331187815
H           60.07179195966458       59.92726066123780       54.16123784192511
H           59.70115381387973       59.82073555725001       55.88206957911046
H           58.13251996274722       61.74192534148611       56.92915208622648
H           57.03150241373229       60.87550788628944       55.87094007029661
H           57.50991790112748       63.79778132253205       55.31404511253339
H           55.06601425411085       62.00566108399666       55.04599052493772
H           55.23660099043067       63.65039710027116       54.42907039455742
H           56.20908888417746       62.34870358981149       53.74764223036518
H           56.21202121626045       62.73103823342826       57.76152959447879
H           55.18605332067003       63.78928425334648       56.80754150534492
H           57.00674448641552       65.49944330471406       56.80167624352385
H           55.85131382427801       64.67974085416029       59.50375254171973
H           56.43344843186880       66.29140459813959       59.08347415343756
H           55.02084577087289       65.62797772206056       58.27117354449141
H           58.82092999592771       63.83759169826586       57.45027442079446
H           58.14792056372691       63.83004635979588       59.07597695581995
H           58.71551402788061       66.20977034117452       59.34280036058072
H           61.15803587036444       65.87905517245825       59.42025014720406
H           60.33908123992570       64.39003264921480       59.86600411915871
H           61.03839988557600       64.56151559917782       58.25318491317304
H           58.43189596253386       67.07318646838597       57.12645975766557
H           59.56414615713045       65.90456962058370       56.44797254467155
H           61.44650714138015       67.07569499587855       57.45201369842720
H           60.55281635604037       67.64890076558285       55.20664145457008
H           59.53707827360503       68.89757351909245       55.92395229338683
H           61.29217109190095       69.05342255832056       55.95809301097545
H           60.22311955911923       67.97403024455073       59.47604093756963
H           59.38331240910486       69.09936720116811       58.41556200932609
H           61.66516047239333       70.03400063149513       57.77710846805744
H           60.13928292064700       71.19885740364847       59.30472896885220
H           60.72685305318750       70.24182465730325       60.66606794938519
H           61.79890150713265       71.38986499663518       59.86606471027032
H           62.86172783032652       67.92993448202066       58.82456241568163
H           62.63832246491865       68.76710298428928       60.34382875796131
H           63.71158536448163       70.72031429949473       58.57225666756640
H           64.14417801897646       70.52730575381214       61.00732936289103
H           65.14803152313154       69.10413415540179       60.70992538825824
H           65.63790490027110       70.67647647965670       60.08242511733336
H           65.27575863818559       68.12163870209191       58.42379367181869
H           65.84954473218505       69.68688395913759       57.86609852095280
H           63.38959274775122       68.30916454162683       56.72360942537197
H           65.04895316078179       70.66154008685129       55.71967608202479
H           63.69129582149164       69.92729229437039       54.86797119474593
H           63.42466478086589       70.76862866763503       56.39085910440105
H           66.15088063328862       68.48824644425120       55.48714914144270
H           64.70997347572751       67.77307116643213       54.77617980706619
H           66.41386086438833       66.66898257902609       57.02925603668773
H           63.65783415588830       65.71649846128776       56.12872855232725
H           64.76340455078500       64.77932528543865       57.13356217414125
H           64.08762760532152       66.28092026087961       57.74515631978258
H           65.50684711047134       65.65998442487994       54.30900177532012
H           66.36765207587601       64.66977768008751       55.47099668705543
H           67.69835254346944       67.25142127048416       54.77190571708949
H           69.70341115864993       65.87976145207048       54.95507969520832
H           68.66543636335962       65.56726192049516       56.34371516666520
H           68.73902114527391       64.40498244395614       55.01523656874569
H           67.33187340489143       64.96148480211554       52.82088919899199
H           68.72674166533146       66.03256556470329       52.73554071486969
H           65.90317043976172       67.12685224705001       52.71930744768687
H           66.94461583016782       69.10701076745005       51.76593371758515
H           67.87655184840781       68.65337503003572       53.18195408637138
H           68.48675872148382       68.26787739785513       51.57476516607816
H           66.13574767102865       65.46821064284312       50.89589922744778
H           67.61117497006282       66.26423804923998       50.35464312862671
H           66.28125990847093       68.30992830598352       49.81612495126543
H           65.26992078293252       65.78192454292929       48.45224436217387
H           65.38137237975933       67.39301755702138       47.74421206654220
H           66.84748281630330       66.51500771682664       48.15339231554580
H           64.40300306365857       67.90452703374709       51.39364951653711
H           63.93320620844854       66.48231297419682       50.46717004963988
H           63.40776313496799       67.96494119588050       48.52073426084785
H           62.00429384581263       68.60587199234007       51.14908953261765
H           61.33569405383334       68.88342359641608       49.54221546634606
H           61.66250684960983       67.23865790653953       50.08929964360578
H           48.52730849357141       45.27653220982334       45.77230441443344
H           49.92451428465388       44.92538460770900       44.76578188845022
C           60.43960860599482       62.92721244267375       38.28834227480799
C           60.42976433231320       63.24866989215327       36.79627762394386
C           60.27234590264204       61.96021057841160       35.99084382449084
C           61.71365031678020       63.98336050230223       36.38937320891863
C           61.73671013403001       65.45691446484504       36.82130735388766
C           60.97638527333828       66.31872392591048       35.81453215874289
C           63.17420855640997       65.97023929822045       36.98508168739749
C           63.28299365298305       67.23761068244805       37.85400198371019
C           64.17917342505103       68.27738352543011       37.17978521090147
C           63.83922281043985       66.92950450730699       39.25133246927276
C           62.99737422062547       65.98004281227189       40.11656163786927
C           61.70615145950536       66.65591845476276       40.56897887207678
C           63.84542799095804       65.53715010823967       41.31783145555371
C           63.21570694049910       64.51796640551957       42.28045360215916
C           64.11686215964831       64.40344205479963       43.50936275267262
C           63.03433174286345       63.15838870764710       41.59449020898892
C           62.24385716518178       62.09576937296130       42.37509790198202
C           62.43131357666131       60.74662445344386       41.67915874464592
C           60.75605503890799       62.46295875927695       42.45901854037098
C           59.91033747065566       61.58294791664646       43.39730350523512
C           58.54098404826460       61.31049618315162       42.77455660869987
C           59.69503115181362       62.21070617013203       44.78082976382515
C           60.92761789003151       62.30981371421422       45.68480778915630
C           61.52360172788063       60.92954275714616       45.95274121198581
C           60.55182774904989       62.96464896578633       47.02335217892351
C           60.46889005087292       64.49474518982936       47.00186350651388
C           61.86986106807605       65.10458661232066       47.01532084915729
C           59.69489632912862       65.02165211501897       48.21841183913239
C           58.17852659618171       64.80276305007571       48.20068356665433
C           57.53609891882734       65.55941664485718       47.03755687114225
C           57.54895273629994       65.27332950267285       49.52164673351419
C           57.92619002503902       64.47545332348668       50.77563495985655
C           57.49482322691493       63.01405433785237       50.66175780418754
C           57.28162223208498       65.07814147157606       52.03384648899358
C           57.66854421246359       66.52032997707410       52.37637194603180
C           59.18168997791386       66.67958967994970       52.51933407032196
C           57.00715482983157       66.97665202806387       53.68522231866066
C           55.47321470031351       67.06311615503374       53.70752567993780
C           54.94829986207539       67.94323120067381       52.57730712548827
C           55.05952824354822       67.61358304961122       55.08009549521220
C           53.55810802899637       67.66627538041993       55.40153667034169
C           53.37905285948492       68.46951271460918       56.69066044917619
C           52.96865164452485       66.25625787218407       55.52445860950338
C           51.47132674425091       66.18174696211778       55.85842209595906
C           51.09664070025116       64.73076529131238       56.16251987392862
C           50.58449904152818       66.75052280663645       54.73294201112213
C           49.61704740089417       67.84184185082343       55.20702487051886
C           48.57613084913257       67.27283805398315       56.17078468880604
C           48.86802564000200       68.50547579100359       54.04331513195893
C           49.71604233857811       69.21302808592517       52.98276880604475
C           50.64731995936050       70.25441833571345       53.60389844712159
C           48.81652692554454       69.91665144301849       51.95589365836010
C           47.80651347044298       69.04301841707967       51.19706709617920
C           48.50198626063413       67.87750726888233       50.49933653017507
C           47.07445542704816       69.94294440933206       50.18990910836241
C           45.85006131192464       69.32484218904966       49.50092593100902
C           45.55068425723750       70.09550535124764       48.21494137085061
C           44.63596748019786       69.33416459382933       50.43634248820774
C           43.48982414129382       68.41262939928465       49.99853548954549
C           42.18562283018991       68.85427086678187       50.66166865771366
C           43.78514004660494       66.94761079720604       50.34273785111519
C           42.92356702165556       65.94975989589784       49.54595092174107
C           42.19748166718387       64.98653910978635       50.48500524077050
C           43.75240338018944       65.14097980324885       48.54078301276750
C           44.43337014264207       65.94592745843518       47.42839899764319
C           43.41175359591679       66.45312053977010       46.41337001062777
C           45.47705077395909       65.06746709759328       46.72287852294071
C           46.80286288282539       64.93430472453218       47.49036809124348
C           47.74494002793483       66.07932434449593       47.12535726540622
C           47.42836891305122       63.56639944346054       47.19134571262561
C           48.79878842554424       63.28067966026573       47.82370668731876
C           49.24656642049177       61.88708106503754       47.38355545896249
C           48.73160843783452       63.38771454820366       49.35115419626821
C           50.04779600835464       63.15792457051254       50.10534276743061
C           49.75398227612158       63.03053938361122       51.59951700941178
C           51.04554928803010       64.29357235397534       49.85290470864950
C           52.47806240613198       63.97418057459294       50.32044152550820
C           52.90672409696220       64.91789940701914       51.44371661554985
C           53.49359268672809       64.06072100359835       49.17277599050819
C           53.30237760201015       63.04046907670281       48.04199311134382
C           53.54982542954251       61.62071394102854       48.54017442268523
C           54.24602687134244       63.38673527026718       46.88228559685892
C           54.02224350041883       62.61438818501745       45.57285128030138
C           55.17482328160197       62.91753229655854       44.61606041778808
C           52.66870913789568       62.98083779611372       44.95567595894138
C           52.29267893883436       62.26177184616836       43.65442190430768
C           50.89697561271124       62.71217155805911       43.22765702593577
C           52.36813230385609       60.73230988202141       43.74172769867774
C           51.50208238938735       60.09376947800167       44.82385674096582
C           51.62528697235270       58.57663023952237       44.80298029356972
H           59.51396326374833       62.43503526368743       38.57481321826400
H           61.26630443293945       62.25921466887159       38.52379117452246
H           60.54350625039980       63.82906118800829       38.88701878595130
H           51.05815191313427       58.13449407688948       45.61810460705850
H           51.24408208611710       58.17496177377651       43.86678150279382
H           52.66509082368600       58.27639787390673       44.90586829277808
H           52.06815665721870       60.32448905902901       42.77131111787834
H           53.40626011898903       60.43816569984899       43.90597976723536
H           51.88063417879295       62.78915280151040       45.68443974487985
H           52.66412688608072       64.05606218384455       44.75402135087512
H           54.03678897934678       61.54307689733827       45.78820551456823
H           55.17849671577657       63.97214651045464       44.34773077631930
H           56.12902868445931       62.68096483319098       45.08242555517194
H           55.09240418554189       62.32935800615532       43.70560899944307
H           54.15305541187184       64.45410667069602       46.66298064454273
H           55.27245383134373       63.21324394161963       47.21684843886375
H           53.44696039257213       65.06847930505896       48.75163137589345
H           54.49696063214434       63.92934109162827       49.58692177530368
H           52.99157312956812       62.57335291502697       42.86956330678653
H           50.60013291718911       62.22567800645471       42.30093764682214
H           50.16254127718885       62.47302968136301       43.99217646871818