      -----------------------------------------------------------      
     |                   =====================                   |     
     |                           x T B                           |     
     |                   =====================                   |     
     |                         S. Grimme                         |     
     |          Mulliken Center for Theoretical Chemistry        |     
     |                    University of Bonn                     |     
      -----------------------------------------------------------      

   * xtb version 6.6.1 (8d0f1dd) compiled by 'stahn@M-Bot' on 2023-08-01

   xtb is free software: you can redistribute it and/or modify it under
   the terms of the GNU Lesser General Public License as published by
   the Free Software Foundation, either version 3 of the License, or
   (at your option) any later version.
   
   xtb is distributed in the hope that it will be useful,
   but WITHOUT ANY WARRANTY; without even the implied warranty of
   MERCHANTABILITY or FITNESS FOR A PARTICULAR PURPOSE.  See the
   GNU Lesser General Public License for more details.
   
   Cite this work as:
   * C. Bannwarth, E. Caldeweyher, S. Ehlert, A. Hansen, P. Pracht,
     J. Seibert, S. Spicher, S. Grimme, WIREs Comput. Mol. Sci., 2020, 11,
     e01493. DOI: 10.1002/wcms.1493
   
   for GFN2-xTB:
   * C. Bannwarth, S. Ehlert and S. Grimme., J. Chem. Theory Comput., 2019,
     15, 1652-1671. DOI: 10.1021/acs.jctc.8b01176
   for GFN1-xTB:
   * S. Grimme, C. Bannwarth, P. Shushkov, J. Chem. Theory Comput., 2017,
     13, 1989-2009. DOI: 10.1021/acs.jctc.7b00118
   for GFN0-xTB:
   * P. Pracht, E. Caldeweyher, S. Ehlert, S. Grimme, ChemRxiv, 2019, preprint.
     DOI: 10.26434/chemrxiv.8326202.v1
   for GFN-FF:
   * S. Spicher and S. Grimme, Angew. Chem. Int. Ed., 2020, 59, 15665-15673.
     DOI: 10.1002/anie.202004239
   
   for ALPB and GBSA implicit solvation:
   * S. Ehlert, M. Stahn, S. Spicher, S. Grimme, J. Chem. Theory Comput.,
     2021, 17, 4250-4261. DOI: 10.1021/acs.jctc.1c00471
   
   for DFT-D4:
   * E. Caldeweyher, C. Bannwarth and S. Grimme, J. Chem. Phys., 2017,
     147, 034112. DOI: 10.1063/1.4993215
   * E. Caldeweyher, S. Ehlert, A. Hansen, H. Neugebauer, S. Spicher,
     C. Bannwarth and S. Grimme, J. Chem. Phys., 2019, 150, 154122.
     DOI: 10.1063/1.5090222
   * E. Caldeweyher, J.-M. Mewes, S. Ehlert and S. Grimme, Phys. Chem. Chem. Phys.
     2020, 22, 8499-8512. DOI: 10.1039/D0CP00502A
   
   for sTDA-xTB:
   * S. Grimme and C. Bannwarth, J. Chem. Phys., 2016, 145, 054103.
     DOI: 10.1063/1.4959605
   
   in the mass-spec context:
   * V. Asgeirsson, C. Bauer and S. Grimme, Chem. Sci., 2017, 8, 4879.
     DOI: 10.1039/c7sc00601b
   * J. Koopman and S. Grimme, ACS Omega 2019, 4, 12, 15120-15133.
     DOI: 10.1021/acsomega.9b02011
   
   for metadynamics refer to:
   * S. Grimme, J. Chem. Theory Comput., 2019, 155, 2847-2862
     DOI: 10.1021/acs.jctc.9b00143
   
   for SPH calculations refer to:
   * S. Spicher and S. Grimme, J. Chem. Theory Comput., 2021, 17, 1701-1714
     DOI: 10.1021/acs.jctc.0c01306
   
   with help from (in alphabetical order)
   P. Atkinson, C. Bannwarth, F. Bohle, G. Brandenburg, E. Caldeweyher
   M. Checinski, S. Dohm, S. Ehlert, S. Ehrlich, I. Gerasimov, C. Hölzer
   A. Katbashev, J. Koopman, C. Lavigne, S. Lehtola, F. März, M. Müller,
   F. Musil, H. Neugebauer, J. Pisarek, C. Plett, P. Pracht, F. Pultar,
   J. Seibert, P. Shushkov, S. Spicher, M. Stahn, M. Steiner, T. Strunk,
   J. Stückrath, T. Rose, and J. Unsleber
   
 * started run on 2024/10/04 at 21:05:23.256     

           -------------------------------------------------
          |                Calculation Setup                |
           -------------------------------------------------

          program call               : /home/abt-grimme/AK-bin/xtb input.xyz --input input.inp --opt
          hostname                   : boar011.thch.uni-bonn.de
          coordinate file            : input.xyz
          omp threads                :                     8

   ID    Z sym.   atoms
    1    6 C      1-146, 294-300, 306, 309-314, 323-468, 616-622, 628,
                  631-636, 645-790, 938-944, 950, 953-958, 967-1112,
                  1260-1266, 1272, 1275-1280, 1289-1434, 1582-1588, 1594,
                  1597-1602, 1611-1756, 1904-1910, 1916, 1919-1924,
                  1933-2078, 2226-2232, 2238, 2241-2246, 2255-2400,
                  2548-2554, 2560, 2563-2568, 2577-2722, 2870-2876, 2882,
                  2885-2890, 2899-3044, 3192-3198, 3204, 3207-3212,
                  3221-3366, 3514-3520, 3526, 3529-3534, 3543-3688,
                  3836-3842, 3848, 3851-3856
    2    1 H      147-293, 301-305, 307, 308, 315-322, 469-615, 623-627, 629,
                  630, 637-644, 791-937, 945-949, 951, 952, 959-966,
                  1113-1259, 1267-1271, 1273, 1274, 1281-1288, 1435-1581,
                  1589-1593, 1595, 1596, 1603-1610, 1757-1903, 1911-1915,
                  1917, 1918, 1925-1932, 2079-2225, 2233-2237, 2239, 2240,
                  2247-2254, 2401-2547, 2555-2559, 2561, 2562, 2569-2576,
                  2723-2869, 2877-2881, 2883, 2884, 2891-2898, 3045-3191,
                  3199-3203, 3205, 3206, 3213-3220, 3367-3513, 3521-3525,
                  3527, 3528, 3535-3542, 3689-3835, 3843-3847, 3849, 3850,
                  3857-3864

molecular fragmentation (1/2 indicates fragments):
111111111111111111111111111111111111111111111111111111111111111111111111
111111111111111111111111111111111111111111111111111111111111111111111111
111111111111111111111111111111111111111111111111111111111111111111111111
111111111111111111111111111111111111111111111111111111111111111111111111
111111111111111111111111111111111122222222222222222222222222222222222222
222222222222222222222222222222222222222222222222222222222222222222222222
222222222222222222222222222222222222222222222222222222222222222222222222
222222222222222222222222222222222222222222222222222222222222222222222222
222222222222222222222222222222222222222222222222222222222222222222222222
222222222222222222222222222222222222222222222222222222222222222222222222
222222222222222222222222222222222222222222222222222222222222222222222222
222222222222222222222222222222222222222222222222222222222222222222222222
222222222222222222222222222222222222222222222222222222222222222222222222
222222222222222222222222222222222222222222222222222222222222222222222222
222222222222222222222222222222222222222222222222222222222222222222222222
222222222222222222222222222222222222222222222222222222222222222222222222
222222222222222222222222222222222222222222222222222222222222222222222222
222222222222222222222222222222222222222222222222222222222222222222222222
222222222222222222222222222222222222222222222222222222222222222222222222
222222222222222222222222222222222222222222222222222222222222222222222222
222222222222222222222222222222222222222222222222222222222222222222222222
222222222222222222222222222222222222222222222222222222222222222222222222
222222222222222222222222222222222222222222222222222222222222222222222222
222222222222222222222222222222222222222222222222222222222222222222222222
222222222222222222222222222222222222222222222222222222222222222222222222
222222222222222222222222222222222222222222222222222222222222222222222222
222222222222222222222222222222222222222222222222222222222222222222222222
222222222222222222222222222222222222222222222222222222222222222222222222
222222222222222222222222222222222222222222222222222222222222222222222222
222222222222222222222222222222222222222222222222222222222222222222222222
222222222222222222222222222222222222222222222222222222222222222222222222
222222222222222222222222222222222222222222222222222222222222222222222222
222222222222222222222222222222222222222222222222222222222222222222222222
222222222222222222222222222222222222222222222222222222222222222222222222
222222222222222222222222222222222222222222222222222222222222222222222222
222222222222222222222222222222222222222222222222222222222222222222222222
222222222222222222222222222222222222222222222222222222222222222222222222
222222222222222222222222222222222222222222222222222222222222222222222222
222222222222222222222222222222222222222222222222222222222222222222222222
222222222222222222222222222222222222222222222222222222222222222222222222
222222222222222222222222222222222222222222222222222222222222222222222222
222222222222222222222222222222222222222222222222222222222222222222222222
222222222222222222222222222222222222222222222222222222222222222222222222
222222222222222222222222222222222222222222222222222222222222222222222222
222222222222222222222222222222222222222222222222222222222222222222222222
222222222222222222222222222222222222222222222222222222222222222222222222
222222222222222222222222222222222222222222222222222222222222222222222222
222222222222222222222222222222222222222222222222222222222222222222222222
222222222222222222222222222222222222222222222222222222222222222222222222
222222222222222222222222222222222222222222222222222222222222222222222222
222222222222222222222222222222222222222222222222222222222222222222222222
222222222222222222222222222222222222222222222222222222222222222222222222
222222222222222222222222222222222222222222222222222222222222222222222222
222222222222222222222222222222222222222222222222
# atoms in fragment 1/2:   322  3542
 fragment masses (1/2) :     2085.00    22935.05
CMA distance (Bohr)    :  24.388
constraining FC (au)   :  0.0500

           -------------------------------------------------
          |                 G F N 2 - x T B                 |
           -------------------------------------------------

        Reference                      10.1021/acs.jctc.8b01176
      * Hamiltonian:
        H0-scaling (s, p, d)           1.850000    2.230000    2.230000
        zeta-weighting                 0.500000
      * Dispersion:
        s8                             2.700000
        a1                             0.520000
        a2                             5.000000
        s9                             5.000000
      * Repulsion:
        kExp                           1.500000    1.000000
        rExp                           1.000000
      * Coulomb:
        alpha                          2.000000
        third order                    shell-resolved
        anisotropic                    true
        a3                             3.000000
        a5                             4.000000
        cn-shift                       1.200000
        cn-exp                         4.000000
        max-rad                        5.000000


          ...................................................
          :                      SETUP                      :
          :.................................................:
          :  # basis functions                9624          :
          :  # atomic orbitals                9624          :
          :  # shells                         5784          :
          :  # electrons                      9624          :
          :  max. iterations                   250          :
          :  Hamiltonian                  GFN2-xTB          :
          :  restarted?                      false          :
          :  GBSA solvation                  false          :
          :  PC potential                    false          :
          :  electronic temp.          300.0000000     K    :
          :  accuracy                    1.0000000          :
          :  -> integral cutoff          0.2500000E+02      :
          :  -> integral neglect         0.1000000E-07      :
          :  -> SCF convergence          0.1000000E-05 Eh   :
          :  -> wf. convergence          0.1000000E-03 e    :
          :  Broyden damping             0.4000000          :
          ...................................................

 iter      E             dE          RMSdq      gap      omega  full diag
   1  -5195.7327527 -0.519573E+04  0.370E+00    4.33       0.0  T
   2  -5198.3307651 -0.259801E+01  0.218E+00    4.25       1.0  T
   3  -5198.2541117  0.766534E-01  0.496E-01    4.08       1.0  T
   4  -5198.4563753 -0.202264E+00  0.244E-01    3.92       1.0  T
   5  -5198.6165886 -0.160213E+00  0.472E-02    4.03       1.0  T
   6  -5198.6190349 -0.244636E-02  0.294E-02    4.01       1.0  T
   7  -5198.6204275 -0.139256E-02  0.113E-02    4.03       1.0  T
   8  -5198.6207315 -0.304043E-03  0.295E-03    4.03       1.0  T
   9  -5198.6207492 -0.176518E-04  0.127E-03    4.03       1.3  T
  10  -5198.6207508 -0.160032E-05  0.566E-04    4.03       2.8  T
  11  -5198.6207512 -0.393940E-06  0.298E-04    4.03       5.4  T
  12  -5198.6207514 -0.190877E-06  0.103E-04    4.03      15.7  T

   *** convergence criteria satisfied after 12 iterations ***

         #    Occupation            Energy/Eh            Energy/eV
      -------------------------------------------------------------
         1        2.0000           -0.6544018             -17.8072
       ...           ...                  ...                  ...
      4806        2.0000           -0.3815835             -10.3834
      4807        2.0000           -0.3814340             -10.3793
      4808        2.0000           -0.3811659             -10.3721
      4809        2.0000           -0.3810804             -10.3697
      4810        2.0000           -0.3809339             -10.3657
      4811        2.0000           -0.3808351             -10.3631
      4812        2.0000           -0.3791910             -10.3183 (HOMO)
      4813                         -0.2312446              -6.2925 (LUMO)
      4814                         -0.2310449              -6.2871
      4815                         -0.2297821              -6.2527
      4816                         -0.2292366              -6.2378
      4817                         -0.2292304              -6.2377
       ...                                ...                  ...
      9624                          0.6833679              18.5954
      -------------------------------------------------------------
                  HL-Gap            0.1479464 Eh            4.0258 eV
             Fermi-level           -0.3052178 Eh           -8.3054 eV

 SCC (total)                   0 d,  0 h, 47 min, 42.965 sec
 SCC setup                      ...        0 min,  0.697 sec (  0.024%)
 Dispersion                     ...        0 min,  6.797 sec (  0.237%)
 classical contributions        ...        0 min,  0.154 sec (  0.005%)
 integral evaluation            ...        0 min, 11.550 sec (  0.403%)
 iterations                     ...       42 min,  4.110 sec ( 88.164%)
 molecular gradient             ...        4 min, 52.580 sec ( 10.219%)
 printout                       ...        0 min, 27.077 sec (  0.946%)

         :::::::::::::::::::::::::::::::::::::::::::::::::::::
         ::                     SUMMARY                     ::
         :::::::::::::::::::::::::::::::::::::::::::::::::::::
         :: total energy           -5104.094835414102 Eh    ::
         :: gradient norm              0.024635150571 Eh/a0 ::
         :: HOMO-LUMO gap              4.025826188811 eV    ::
         ::.................................................::
         :: SCC energy             -5198.620751361258 Eh    ::
         :: -> isotropic ES            0.265472063131 Eh    ::
         :: -> anisotropic ES          0.793272307598 Eh    ::
         :: -> anisotropic XC          3.250902924256 Eh    ::
         :: -> dispersion             -6.985833121260 Eh    ::
         :: repulsion energy          93.394043383258 Eh    ::
         :: add. restraining           0.000000000000 Eh    ::
         :: total charge              -0.000000000033 e     ::
         :::::::::::::::::::::::::::::::::::::::::::::::::::::

      ----------------------------------------------------------- 
     |              Fast Inertial Relaxation Engine              |
      ----------------------------------------------------------- 

          ...................................................
          :                      SETUP                      :
          :.................................................:
          :   energy convergence        0.5000000E-05 Eh    :
          :   grad. convergence         0.1000000E-02 Eh/a0 :
          :   optimization log               true           :
          :   writing optlog all                1     steps :
          :   Hessian reset                    20     steps :
          :   time step scaling                 5     steps :
          :   maximium step len.        1.0000000     a0    :
          :   initial time step         0.2500000     fs    :
          :   maximum time step         1.2500000     fs    :
          :   power reset thr           0.0000000     au    :
          :   alpha parameter           0.1000000           :
          :   BFGS update                   false           :
          :   preconditioning               false           :
          ...................................................

........................................................................
.............................. CYCLE    1 ..............................
........................................................................

 iter      E             dE          RMSdq      gap      omega  full diag
   1  -5198.6218178 -0.519862E+04  0.342E-04    4.03       0.0  T
   2  -5198.6218178 -0.174650E-07  0.210E-04    4.03       7.7  T
   3  -5198.6218178  0.357559E-07  0.923E-05    4.03      17.4  T
     SCC iter.                  ...       10 min, 33.815 sec
     gradient                   ...        4 min, 50.196 sec
 * total energy  : -5104.0949044 Eh     change    :  -0.6893872E-04 Eh
   gradient norm :     0.0231312 Eh/a0  converged?    E=F G=F D=F
   time step     :     0.2500000 fs     power     :   0.3541844E-08
   step length   :     0.0028872 a0     speed     :   0.2793509E-03

........................................................................
.............................. CYCLE    2 ..............................
........................................................................

 iter      E             dE          RMSdq      gap      omega  full diag
   1  -5198.6234007 -0.519862E+04  0.501E-04    4.03       0.0  T
   2  -5198.6234007 -0.337477E-07  0.306E-04    4.03       5.3  T
   3  -5198.6234007  0.469818E-07  0.109E-04    4.03      14.8  T
     SCC iter.                  ...       10 min, 35.041 sec
     gradient                   ...        4 min, 50.146 sec
 * total energy  : -5104.0949977 Eh     change    :  -0.9337114E-04 Eh
   gradient norm :     0.0210055 Eh/a0  converged?    E=F G=F D=F
   time step     :     0.2500000 fs     power     :   0.4709214E-08
   step length   :     0.0042418 a0     speed     :   0.4104189E-03

........................................................................
.............................. CYCLE    3 ..............................
........................................................................

 iter      E             dE          RMSdq      gap      omega  full diag
   1  -5198.6254927 -0.519863E+04  0.645E-04    4.03       0.0  T
   2  -5198.6254928 -0.518567E-07  0.394E-04    4.03       4.1  T
   3  -5198.6254927  0.712116E-07  0.131E-04    4.03      12.3  T
     SCC iter.                  ...       10 min, 39.245 sec
     gradient                   ...        5 min,  3.727 sec
 * total energy  : -5104.0951048 Eh     change    :  -0.1070434E-03 Eh
   gradient norm :     0.0184689 Eh/a0  converged?    E=F G=F D=F
   time step     :     0.2500000 fs     power     :   0.5285498E-08
   step length   :     0.0054678 a0     speed     :   0.5290395E-03

........................................................................
.............................. CYCLE    4 ..............................
........................................................................

 iter      E             dE          RMSdq      gap      omega  full diag
   1  -5198.6280892 -0.519863E+04  0.770E-04    4.03       0.0  T
   2  -5198.6280893 -0.688360E-07  0.471E-04    4.03       3.4  T
   3  -5198.6280892  0.109679E-06  0.156E-04    4.03      10.3  T
     SCC iter.                  ...       10 min, 35.455 sec
     gradient                   ...        4 min, 51.584 sec
 * total energy  : -5104.0952142 Eh     change    :  -0.1094425E-03 Eh
   gradient norm :     0.0158000 Eh/a0  converged?    E=F G=F D=F
   time step     :     0.2500000 fs     power     :   0.5272507E-08
   step length   :     0.0065330 a0     speed     :   0.6321045E-03

........................................................................
.............................. CYCLE    5 ..............................
........................................................................

 iter      E             dE          RMSdq      gap      omega  full diag
   1  -5198.6311862 -0.519863E+04  0.872E-04    4.03       0.0  T
   2  -5198.6311863 -0.809459E-07  0.536E-04    4.03       3.0  T
   3  -5198.6311862  0.164347E-06  0.183E-04    4.03       8.8  T
     SCC iter.                  ...       10 min, 33.050 sec
     gradient                   ...        4 min, 55.343 sec
 * total energy  : -5104.0953162 Eh     change    :  -0.1020300E-03 Eh
   gradient norm :     0.0133412 Eh/a0  converged?    E=F G=F D=F
   time step     :     0.2500000 fs     power     :   0.4777165E-08
   step length   :     0.0074119 a0     speed     :   0.7171373E-03

........................................................................
.............................. CYCLE    6 ..............................
........................................................................

 iter      E             dE          RMSdq      gap      omega  full diag
   1  -5198.6351753 -0.519864E+04  0.105E-03    4.03       0.0  T
   2  -5198.6351754 -0.107738E-06  0.652E-04    4.03       2.5  T
   3  -5198.6351751  0.325906E-06  0.245E-04    4.03       6.6  T
     SCC iter.                  ...       10 min, 35.964 sec
     gradient                   ...        4 min, 49.880 sec
 * total energy  : -5104.0954125 Eh     change    :  -0.9626960E-04 Eh
   gradient norm :     0.0112771 Eh/a0  converged?    E=F G=F D=F
   time step     :     0.2750000 fs     power     :   0.3884347E-08
   step length   :     0.0089705 a0     speed     :   0.7890432E-03

........................................................................
.............................. CYCLE    7 ..............................
........................................................................

 iter      E             dE          RMSdq      gap      omega  full diag
   1  -5198.6401888 -0.519864E+04  0.122E-03    4.03       0.0  T
   2  -5198.6401889 -0.129770E-06  0.767E-04    4.03       2.1  T
   3  -5198.6401883  0.590231E-06  0.321E-04    4.03       5.0  T
     SCC iter.                  ...       10 min, 35.126 sec
     gradient                   ...        4 min, 51.730 sec
 * total energy  : -5104.0954947 Eh     change    :  -0.8222057E-04 Eh
   gradient norm :     0.0100383 Eh/a0  converged?    E=F G=F D=F
   time step     :     0.3025000 fs     power     :   0.2785974E-08
   step length   :     0.0105042 a0     speed     :   0.8399473E-03

........................................................................
.............................. CYCLE    8 ..............................
........................................................................

 iter      E             dE          RMSdq      gap      omega  full diag
   1  -5198.6462424 -0.519865E+04  0.137E-03    4.03       0.0  T
   2  -5198.6462425 -0.149544E-06  0.869E-04    4.03       1.9  T
   3  -5198.6462416  0.925691E-06  0.400E-04    4.03       4.0  T
     SCC iter.                  ...       10 min, 35.688 sec
     gradient                   ...        4 min, 51.458 sec
 * total energy  : -5104.0955583 Eh     change    :  -0.6354534E-04 Eh
   gradient norm :     0.0095519 Eh/a0  converged?    E=F G=F D=F
   time step     :     0.3327500 fs     power     :   0.1737534E-08
   step length   :     0.0118596 a0     speed     :   0.8621212E-03

........................................................................
.............................. CYCLE    9 ..............................
........................................................................

 iter      E             dE          RMSdq      gap      omega  full diag
   1  -5198.6531409 -0.519865E+04  0.148E-03    4.03       0.0  T
   2  -5198.6531410 -0.175256E-06  0.944E-04    4.03       1.7  T
   3  -5198.6531399  0.114156E-05  0.455E-04    4.03       3.5  T
   4  -5198.6531412 -0.134003E-05  0.528E-05    4.03      30.5  T
   5  -5198.6531413 -0.781529E-08  0.241E-05    4.03      66.7  T
     SCC iter.                  ...       17 min, 41.499 sec
     gradient                   ...        4 min, 51.495 sec
 * total energy  : -5104.0956046 Eh     change    :  -0.4628446E-04 Eh
   gradient norm :     0.0092623 Eh/a0  converged?    E=F G=F D=F
   time step     :     0.3660250 fs     power     :   0.8700457E-09
   step length   :     0.0129300 a0     speed     :   0.8544830E-03

........................................................................
.............................. CYCLE   10 ..............................
........................................................................

 iter      E             dE          RMSdq      gap      omega  full diag
   1  -5198.6603719 -0.519866E+04  0.155E-03    4.03       0.0  T
   2  -5198.6603721 -0.203621E-06  0.980E-04    4.03       1.6  T
   3  -5198.6603709  0.125935E-05  0.497E-04    4.03       3.2  T
   4  -5198.6603724 -0.151816E-05  0.556E-05    4.03      28.9  T
   5  -5198.6603724 -0.103146E-07  0.234E-05    4.03      68.7  T
     SCC iter.                  ...       17 min, 38.094 sec
     gradient                   ...        4 min, 52.677 sec
 * total energy  : -5104.0956322 Eh     change    :  -0.2767923E-04 Eh
   gradient norm :     0.0090053 Eh/a0  converged?    E=F G=F D=F
   time step     :     0.4026275 fs     power     :   0.1904389E-09
   step length   :     0.0136852 a0     speed     :   0.8221742E-03

........................................................................
.............................. CYCLE   11 ..............................
........................................................................

 iter      E             dE          RMSdq      gap      omega  full diag
   1  -5198.6672095 -0.519867E+04  0.156E-03    4.03       0.0  T
   2  -5198.6672097 -0.215495E-06  0.968E-04    4.03       1.7  T
   3  -5198.6672086  0.109332E-05  0.476E-04    4.03       3.4  T
   4  -5198.6672099 -0.130822E-05  0.602E-05    4.03      26.7  T
   5  -5198.6672099 -0.139389E-07  0.226E-05    4.03      71.3  T
     SCC iter.                  ...       17 min, 32.364 sec
     gradient                   ...        4 min, 49.987 sec
 * total energy  : -5104.0956437 Eh     change    :  -0.1146443E-04 Eh
   gradient norm :     0.0091723 Eh/a0  converged?    E=F G=F D=F
   time step     :     0.4428903 fs     power     :  -0.3195061E-09
   step length   :     0.0141082 a0     speed     :   0.7705327E-03

........................................................................
.............................. CYCLE   12 ..............................
........................................................................
 * reset velocities

 iter      E             dE          RMSdq      gap      omega  full diag
   1  -5198.6670582 -0.519867E+04  0.389E-05    4.03       0.0  T
   2  -5198.6670582 -0.514774E-09  0.294E-05    4.03      54.7  T
   3  -5198.6670582 -0.909495E-11  0.147E-05    4.03     109.5  T
     SCC iter.                  ...       10 min, 36.194 sec
     gradient                   ...        4 min, 51.196 sec
 * total energy  : -5104.0956475 Eh     change    :  -0.3828969E-05 Eh
   gradient norm :     0.0089885 Eh/a0  converged?    E=T G=F D=T
   time step     :     0.2214451 fs     power     :   0.2271295E-09
   step length   :     0.0004217 a0     speed     :   0.4606486E-04

........................................................................
.............................. CYCLE   13 ..............................
........................................................................

 iter      E             dE          RMSdq      gap      omega  full diag
   1  -5198.6667555 -0.519867E+04  0.779E-05    4.03       0.0  T
   2  -5198.6667555 -0.172258E-08  0.555E-05    4.03      29.0  T
   3  -5198.6667555  0.235559E-08  0.242E-05    4.03      66.4  T
     SCC iter.                  ...       10 min, 39.529 sec
     gradient                   ...        4 min, 53.846 sec
 * total energy  : -5104.0956549 Eh     change    :  -0.7349448E-05 Eh
   gradient norm :     0.0086289 Eh/a0  converged?    E=F G=F D=T
   time step     :     0.2214451 fs     power     :   0.4315815E-09
   step length   :     0.0008350 a0     speed     :   0.9120539E-04

........................................................................
.............................. CYCLE   14 ..............................
........................................................................

 iter      E             dE          RMSdq      gap      omega  full diag
   1  -5198.6663035 -0.519867E+04  0.116E-04    4.03       0.0  T
   2  -5198.6663035 -0.331966E-08  0.810E-05    4.03      19.9  T
   3  -5198.6663035  0.550881E-08  0.345E-05    4.03      46.7  T
     SCC iter.                  ...       10 min, 37.059 sec
     gradient                   ...        4 min, 51.621 sec
 * total energy  : -5104.0956652 Eh     change    :  -0.1029210E-04 Eh
   gradient norm :     0.0081085 Eh/a0  converged?    E=F G=F D=F
   time step     :     0.2214451 fs     power     :   0.5976413E-09
   step length   :     0.0012316 a0     speed     :   0.1345298E-03

........................................................................
.............................. CYCLE   15 ..............................
........................................................................

 iter      E             dE          RMSdq      gap      omega  full diag
   1  -5198.6657050 -0.519867E+04  0.151E-04    4.03       0.0  T
   2  -5198.6657051 -0.504224E-08  0.105E-04    4.03      15.3  T
   3  -5198.6657050  0.928594E-08  0.443E-05    4.03      36.3  T
     SCC iter.                  ...       10 min, 36.010 sec
     gradient                   ...        4 min, 52.787 sec
 * total energy  : -5104.0956776 Eh     change    :  -0.1243571E-04 Eh
   gradient norm :     0.0074516 Eh/a0  converged?    E=F G=F D=F
   time step     :     0.2214451 fs     power     :   0.7135884E-09
   step length   :     0.0016040 a0     speed     :   0.1752039E-03

........................................................................
.............................. CYCLE   16 ..............................
........................................................................

 iter      E             dE          RMSdq      gap      omega  full diag
   1  -5198.6649633 -0.519866E+04  0.183E-04    4.03       0.0  T
   2  -5198.6649633 -0.719774E-08  0.126E-04    4.03      12.7  T
   3  -5198.6649633  0.139007E-07  0.533E-05    4.03      30.2  T
     SCC iter.                  ...       10 min, 35.992 sec
     gradient                   ...        4 min, 51.052 sec
 * total energy  : -5104.0956913 Eh     change    :  -0.1365944E-04 Eh
   gradient norm :     0.0066917 Eh/a0  converged?    E=F G=F D=F
   time step     :     0.2214451 fs     power     :   0.7729895E-09
   step length   :     0.0019452 a0     speed     :   0.2124786E-03

........................................................................
.............................. CYCLE   17 ..............................
........................................................................

 iter      E             dE          RMSdq      gap      omega  full diag
   1  -5198.6640819 -0.519866E+04  0.209E-04    4.03       0.0  T
   2  -5198.6640819 -0.909495E-08  0.145E-04    4.03      11.1  T
   3  -5198.6640818  0.192031E-07  0.613E-05    4.03      26.3  T
     SCC iter.                  ...       10 min, 36.640 sec
     gradient                   ...        4 min, 51.498 sec
 * total energy  : -5104.0957052 Eh     change    :  -0.1393626E-04 Eh
   gradient norm :     0.0058732 Eh/a0  converged?    E=F G=F D=F
   time step     :     0.2214451 fs     power     :   0.7754703E-09
   step length   :     0.0022494 a0     speed     :   0.2457022E-03

........................................................................
.............................. CYCLE   18 ..............................
........................................................................

 iter      E             dE          RMSdq      gap      omega  full diag
   1  -5198.6629494 -0.519866E+04  0.256E-04    4.03       0.0  T
   2  -5198.6629494 -0.132877E-07  0.178E-04    4.03       9.0  T
   3  -5198.6629494  0.311838E-07  0.763E-05    4.03      21.1  T
     SCC iter.                  ...       10 min, 37.364 sec
     gradient                   ...        4 min, 51.307 sec
 * total energy  : -5104.0957198 Eh     change    :  -0.1463459E-04 Eh
   gradient norm :     0.0049698 Eh/a0  converged?    E=F G=F D=F
   time step     :     0.2435896 fs     power     :   0.7189382E-09
   step length   :     0.0027917 a0     speed     :   0.2772210E-03

........................................................................
.............................. CYCLE   19 ..............................
........................................................................

 iter      E             dE          RMSdq      gap      omega  full diag
   1  -5198.6615179 -0.519866E+04  0.304E-04    4.03       0.0  T
   2  -5198.6615180 -0.174550E-07  0.213E-04    4.03       7.6  T
   3  -5198.6615179  0.477585E-07  0.920E-05    4.03      17.5  T
     SCC iter.                  ...       10 min, 35.814 sec
     gradient                   ...        4 min, 52.489 sec
 * total energy  : -5104.0957340 Eh     change    :  -0.1418707E-04 Eh
   gradient norm :     0.0040925 Eh/a0  converged?    E=F G=F D=F
   time step     :     0.2679486 fs     power     :   0.6018835E-09
   step length   :     0.0033800 a0     speed     :   0.3051290E-03

........................................................................
.............................. CYCLE   20 ..............................
........................................................................

 iter      E             dE          RMSdq      gap      omega  full diag
   1  -5198.6597432 -0.519866E+04  0.349E-04    4.03       0.0  T
   2  -5198.6597432 -0.208993E-07  0.244E-04    4.03       6.6  T
   3  -5198.6597432  0.696627E-07  0.108E-04    4.03      15.0  T
     SCC iter.                  ...       10 min, 37.959 sec
     gradient                   ...        4 min, 51.947 sec
 * total energy  : -5104.0957463 Eh     change    :  -0.1228869E-04 Eh
   gradient norm :     0.0034601 Eh/a0  converged?    E=F G=F D=F
   time step     :     0.2947435 fs     power     :   0.4396494E-09
   step length   :     0.0039806 a0     speed     :   0.3266813E-03
 * RMSD in coord.:     0.0013848 a0     energy gain  -0.9109016E-03 Eh

........................................................................
.............................. CYCLE   21 ..............................
........................................................................

 iter      E             dE          RMSdq      gap      omega  full diag
   1  -5198.6581293 -0.519866E+04  0.294E-04    4.03       0.0  T
   2  -5198.6581293 -0.120426E-07  0.203E-04    4.03       7.9  T
   3  -5198.6581292  0.508799E-07  0.897E-05    4.03      17.9  T
     SCC iter.                  ...       10 min, 36.260 sec
     gradient                   ...        4 min, 50.512 sec
 * total energy  : -5104.0957540 Eh     change    :  -0.7649845E-05 Eh
   gradient norm :     0.0032942 Eh/a0  converged?    E=F G=F D=F
   time step     :     0.2500000 fs     power     :   0.3169254E-09
   step length   :     0.0034430 a0     speed     :   0.3331314E-03

........................................................................
.............................. CYCLE   22 ..............................
........................................................................

 iter      E             dE          RMSdq      gap      omega  full diag
   1  -5198.6564721 -0.519866E+04  0.278E-04    4.03       0.0  T
   2  -5198.6564721 -0.903492E-08  0.191E-04    4.03       8.4  T
   3  -5198.6564721  0.496329E-07  0.874E-05    4.03      18.4  T
     SCC iter.                  ...       10 min, 35.115 sec
     gradient                   ...        4 min, 50.583 sec
 * total energy  : -5104.0957597 Eh     change    :  -0.5726514E-05 Eh
   gradient norm :     0.0033774 Eh/a0  converged?    E=F G=F D=F
   time step     :     0.2500000 fs     power     :   0.2342060E-09
   step length   :     0.0034123 a0     speed     :   0.3301607E-03

........................................................................
.............................. CYCLE   23 ..............................
........................................................................

 iter      E             dE          RMSdq      gap      omega  full diag
   1  -5198.6548463 -0.519865E+04  0.261E-04    4.03       0.0  T
   2  -5198.6548463 -0.618456E-08  0.175E-04    4.03       9.2  T
   3  -5198.6548462  0.393675E-07  0.783E-05    4.03      20.5  T
     SCC iter.                  ...       10 min, 35.085 sec
     gradient                   ...        4 min, 52.345 sec
 * total energy  : -5104.0957644 Eh     change    :  -0.4755380E-05 Eh
   gradient norm :     0.0035484 Eh/a0  converged?    E=T G=F D=F
   time step     :     0.2500000 fs     power     :   0.1979443E-09
   step length   :     0.0033151 a0     speed     :   0.3207577E-03

........................................................................
.............................. CYCLE   24 ..............................
........................................................................

 iter      E             dE          RMSdq      gap      omega  full diag
   1  -5198.6533173 -0.519865E+04  0.245E-04    4.03       0.0  T
   2  -5198.6533173 -0.405362E-08  0.158E-04    4.03      10.2  T
   3  -5198.6533173  0.230293E-07  0.613E-05    4.03      26.3  T
     SCC iter.                  ...       10 min, 37.256 sec
     gradient                   ...        4 min, 51.872 sec
 * total energy  : -5104.0957690 Eh     change    :  -0.4524110E-05 Eh
   gradient norm :     0.0036906 Eh/a0  converged?    E=T G=F D=F
   time step     :     0.2500000 fs     power     :   0.2000574E-09
   step length   :     0.0031959 a0     speed     :   0.3092168E-03

........................................................................
.............................. CYCLE   25 ..............................
........................................................................

 iter      E             dE          RMSdq      gap      omega  full diag
   1  -5198.6519344 -0.519865E+04  0.235E-04    4.03       0.0  T
   2  -5198.6519344 -0.283853E-08  0.145E-04    4.03      11.1  T
   3  -5198.6519344  0.698856E-08  0.369E-05    4.03      43.6  T
     SCC iter.                  ...       10 min, 37.829 sec
     gradient                   ...        4 min, 49.349 sec
 * total energy  : -5104.0957738 Eh     change    :  -0.4810432E-05 Eh
   gradient norm :     0.0037496 Eh/a0  converged?    E=T G=F D=F
   time step     :     0.2500000 fs     power     :   0.2260290E-09
   step length   :     0.0030895 a0     speed     :   0.2989280E-03

........................................................................
.............................. CYCLE   26 ..............................
........................................................................

 iter      E             dE          RMSdq      gap      omega  full diag
   1  -5198.6506133 -0.519865E+04  0.254E-04    4.03       0.0  T
   2  -5198.6506133 -0.272848E-08  0.151E-04    4.03      10.6  T
   3  -5198.6506133  0.164073E-08  0.247E-05    4.03      65.1  T
     SCC iter.                  ...       10 min, 36.699 sec
     gradient                   ...        4 min, 50.517 sec
 * total energy  : -5104.0957797 Eh     change    :  -0.5941125E-05 Eh
   gradient norm :     0.0037028 Eh/a0  converged?    E=F G=F D=F
   time step     :     0.2750000 fs     power     :   0.2606221E-09
   step length   :     0.0033293 a0     speed     :   0.2928422E-03

........................................................................
.............................. CYCLE   27 ..............................
........................................................................

 iter      E             dE          RMSdq      gap      omega  full diag
   1  -5198.6494175 -0.519865E+04  0.281E-04    4.03       0.0  T
   2  -5198.6494175 -0.301861E-08  0.166E-04    4.03       9.7  T
   3  -5198.6494175  0.348246E-08  0.311E-05    4.03      51.8  T
     SCC iter.                  ...       10 min, 34.993 sec
     gradient                   ...        4 min, 51.772 sec
 * total energy  : -5104.0957869 Eh     change    :  -0.7221018E-05 Eh
   gradient norm :     0.0035404 Eh/a0  converged?    E=F G=F D=F
   time step     :     0.3025000 fs     power     :   0.2920732E-09
   step length   :     0.0036493 a0     speed     :   0.2918083E-03

........................................................................
.............................. CYCLE   28 ..............................
........................................................................

 iter      E             dE          RMSdq      gap      omega  full diag
   1  -5198.6484223 -0.519865E+04  0.319E-04    4.03       0.0  T
   2  -5198.6484223 -0.418913E-08  0.188E-04    4.03       8.5  T
   3  -5198.6484223  0.131859E-07  0.529E-05    4.03      30.4  T
     SCC iter.                  ...       10 min, 34.992 sec
     gradient                   ...        4 min, 49.683 sec
 * total energy  : -5104.0957955 Eh     change    :  -0.8515435E-05 Eh
   gradient norm :     0.0032767 Eh/a0  converged?    E=F G=F D=F
   time step     :     0.3327500 fs     power     :   0.3098722E-09
   step length   :     0.0040656 a0     speed     :   0.2955428E-03

........................................................................
.............................. CYCLE   29 ..............................
........................................................................

 iter      E             dE          RMSdq      gap      omega  full diag
   1  -5198.6477162 -0.519865E+04  0.364E-04    4.03       0.0  T
   2  -5198.6477162 -0.600630E-08  0.218E-04    4.03       7.4  T
   3  -5198.6477162  0.358896E-07  0.841E-05    4.03      19.1  T
     SCC iter.                  ...       10 min, 34.326 sec
     gradient                   ...        4 min, 51.935 sec
 * total energy  : -5104.0958049 Eh     change    :  -0.9442946E-05 Eh
   gradient norm :     0.0029554 Eh/a0  converged?    E=F G=F D=F
   time step     :     0.3660250 fs     power     :   0.3068188E-09
   step length   :     0.0045832 a0     speed     :   0.3028785E-03

........................................................................
.............................. CYCLE   30 ..............................
........................................................................

 iter      E             dE          RMSdq      gap      omega  full diag
   1  -5198.6473948 -0.519865E+04  0.412E-04    4.03       0.0  T
   2  -5198.6473948 -0.795899E-08  0.250E-04    4.03       6.4  T
   3  -5198.6473948  0.665987E-07  0.113E-04    4.03      14.2  T
     SCC iter.                  ...       10 min, 36.882 sec
     gradient                   ...        4 min, 52.835 sec
 * total energy  : -5104.0958147 Eh     change    :  -0.9818827E-05 Eh
   gradient norm :     0.0026538 Eh/a0  converged?    E=F G=F D=F
   time step     :     0.4026275 fs     power     :   0.2819568E-09
   step length   :     0.0051919 a0     speed     :   0.3119133E-03

........................................................................
.............................. CYCLE   31 ..............................
........................................................................

 iter      E             dE          RMSdq      gap      omega  full diag
   1  -5198.6475391 -0.519865E+04  0.454E-04    4.03       0.0  T
   2  -5198.6475391 -0.977252E-08  0.278E-04    4.03       5.8  T
   3  -5198.6475390  0.910541E-07  0.131E-04    4.03      12.3  T
     SCC iter.                  ...       10 min, 36.914 sec
     gradient                   ...        4 min, 51.683 sec
 * total energy  : -5104.0958243 Eh     change    :  -0.9591582E-05 Eh
   gradient norm :     0.0024554 Eh/a0  converged?    E=F G=F D=F
   time step     :     0.4428903 fs     power     :   0.2428690E-09
   step length   :     0.0058642 a0     speed     :   0.3202775E-03

........................................................................
.............................. CYCLE   32 ..............................
........................................................................

 iter      E             dE          RMSdq      gap      omega  full diag
   1  -5198.6481724 -0.519865E+04  0.484E-04    4.03       0.0  T
   2  -5198.6481724 -0.113459E-07  0.295E-04    4.03       5.4  T
   3  -5198.6481723  0.946375E-07  0.132E-04    4.03      12.2  T
     SCC iter.                  ...       10 min, 36.081 sec
     gradient                   ...        4 min, 53.883 sec
 * total energy  : -5104.0958335 Eh     change    :  -0.9138468E-05 Eh
   gradient norm :     0.0023860 Eh/a0  converged?    E=F G=F D=F
   time step     :     0.4871793 fs     power     :   0.2031937E-09
   step length   :     0.0065624 a0     speed     :   0.3258299E-03

........................................................................
.............................. CYCLE   33 ..............................
........................................................................

 iter      E             dE          RMSdq      gap      omega  full diag
   1  -5198.6492187 -0.519865E+04  0.495E-04    4.03       0.0  T
   2  -5198.6492187 -0.125883E-07  0.298E-04    4.03       5.4  T
   3  -5198.6492187  0.629698E-07  0.108E-04    4.03      14.8  T
     SCC iter.                  ...       10 min, 38.051 sec
     gradient                   ...        4 min, 54.066 sec
 * total energy  : -5104.0958422 Eh     change    :  -0.8760577E-05 Eh
   gradient norm :     0.0024121 Eh/a0  converged?    E=F G=F D=F
   time step     :     0.5358972 fs     power     :   0.1752285E-09
   step length   :     0.0072651 a0     speed     :   0.3279264E-03

........................................................................
.............................. CYCLE   34 ..............................
........................................................................

 iter      E             dE          RMSdq      gap      omega  full diag
   1  -5198.6504972 -0.519865E+04  0.484E-04    4.03       0.0  T
   2  -5198.6504973 -0.125156E-07  0.289E-04    4.03       5.6  T
   3  -5198.6504972  0.149457E-07  0.611E-05    4.03      26.3  T
     SCC iter.                  ...       10 min, 35.182 sec
     gradient                   ...        4 min, 52.578 sec
 * total energy  : -5104.0958513 Eh     change    :  -0.9066650E-05 Eh
   gradient norm :     0.0024925 Eh/a0  converged?    E=F G=F D=F
   time step     :     0.5894869 fs     power     :   0.1665197E-09
   step length   :     0.0079918 a0     speed     :   0.3279332E-03

........................................................................
.............................. CYCLE   35 ..............................
........................................................................

 iter      E             dE          RMSdq      gap      omega  full diag
   1  -5198.6517550 -0.519865E+04  0.458E-04    4.03       0.0  T
   2  -5198.6517550 -0.960245E-08  0.277E-04    4.03       5.8  T
   3  -5198.6517550  0.150030E-07  0.572E-05    4.03      28.1  T
     SCC iter.                  ...       10 min, 36.871 sec
     gradient                   ...        4 min, 51.415 sec
 * total energy  : -5104.0958615 Eh     change    :  -0.1025952E-04 Eh
   gradient norm :     0.0025242 Eh/a0  converged?    E=F G=F D=F
   time step     :     0.6484356 fs     power     :   0.1786485E-09
   step length   :     0.0088085 a0     speed     :   0.3285866E-03

........................................................................
.............................. CYCLE   36 ..............................
........................................................................

 iter      E             dE          RMSdq      gap      omega  full diag
   1  -5198.6527198 -0.519865E+04  0.440E-04    4.03       0.0  T
   2  -5198.6527198 -0.686305E-08  0.271E-04    4.03       5.9  T
   3  -5198.6527197  0.231084E-07  0.666E-05    4.03      24.2  T
     SCC iter.                  ...       10 min, 37.060 sec
     gradient                   ...        4 min, 52.518 sec
 * total energy  : -5104.0958738 Eh     change    :  -0.1223042E-04 Eh
   gradient norm :     0.0023907 Eh/a0  converged?    E=F G=F D=F
   time step     :     0.7132792 fs     power     :   0.1973479E-09
   step length   :     0.0098181 a0     speed     :   0.3329531E-03

........................................................................
.............................. CYCLE   37 ..............................
........................................................................

 iter      E             dE          RMSdq      gap      omega  full diag
   1  -5198.6531699 -0.519865E+04  0.439E-04    4.03       0.0  T
   2  -5198.6531699 -0.110167E-07  0.280E-04    4.03       5.7  T
   3  -5198.6531699  0.672571E-07  0.105E-04    4.03      15.3  T
     SCC iter.                  ...       10 min, 35.671 sec
     gradient                   ...        4 min, 50.552 sec
 * total energy  : -5104.0958879 Eh     change    :  -0.1408396E-04 Eh
   gradient norm :     0.0022778 Eh/a0  converged?    E=F G=F D=F
   time step     :     0.7846071 fs     power     :   0.2024984E-09
   step length   :     0.0110929 a0     speed     :   0.3419864E-03

........................................................................
.............................. CYCLE   38 ..............................
........................................................................

 iter      E             dE          RMSdq      gap      omega  full diag
   1  -5198.6530237 -0.519865E+04  0.467E-04    4.03       0.0  T
   2  -5198.6530237 -0.166774E-07  0.294E-04    4.03       5.5  T
   3  -5198.6530236  0.604632E-07  0.105E-04    4.03      15.4  T
     SCC iter.                  ...       10 min, 36.891 sec
     gradient                   ...        4 min, 51.984 sec
 * total energy  : -5104.0959038 Eh     change    :  -0.1598737E-04 Eh
   gradient norm :     0.0024065 Eh/a0  converged?    E=F G=F D=F
   time step     :     0.8630678 fs     power     :   0.2128036E-09
   step length   :     0.0126085 a0     speed     :   0.3533744E-03

........................................................................
.............................. CYCLE   39 ..............................
........................................................................

 iter      E             dE          RMSdq      gap      omega  full diag
   1  -5198.6525174 -0.519865E+04  0.537E-04    4.03       0.0  T
   2  -5198.6525174 -0.153614E-07  0.324E-04    4.03       5.0  T
   3  -5198.6525174  0.266891E-07  0.773E-05    4.03      20.8  T
     SCC iter.                  ...       10 min, 36.790 sec
     gradient                   ...        4 min, 51.864 sec
 * total energy  : -5104.0959237 Eh     change    :  -0.1986318E-04 Eh
   gradient norm :     0.0023611 Eh/a0  converged?    E=F G=F D=F
   time step     :     0.9493746 fs     power     :   0.2512451E-09
   step length   :     0.0144281 a0     speed     :   0.3676104E-03

........................................................................
.............................. CYCLE   40 ..............................
........................................................................

 iter      E             dE          RMSdq      gap      omega  full diag
   1  -5198.6522559 -0.519865E+04  0.621E-04    4.03       0.0  T
   2  -5198.6522560 -0.164546E-07  0.376E-04    4.03       4.3  T
   3  -5198.6522559  0.426171E-07  0.936E-05    4.03      17.2  T
     SCC iter.                  ...       10 min, 34.600 sec
     gradient                   ...        4 min, 53.337 sec
 * total energy  : -5104.0959478 Eh     change    :  -0.2405751E-04 Eh
   gradient norm :     0.0020794 Eh/a0  converged?    E=F G=F D=F
   time step     :     1.0443120 fs     power     :   0.2716646E-09
   step length   :     0.0168054 a0     speed     :   0.3892540E-03

........................................................................
.............................. CYCLE   41 ..............................
........................................................................

 iter      E             dE          RMSdq      gap      omega  full diag
   1  -5198.6530566 -0.519865E+04  0.667E-04    4.03       0.0  T
   2  -5198.6530567 -0.195651E-07  0.409E-04    4.03       3.9  T
   3  -5198.6530566  0.666969E-07  0.114E-04    4.03      14.1  T
     SCC iter.                  ...       10 min, 36.783 sec
     gradient                   ...        4 min, 53.647 sec
 * total energy  : -5104.0959741 Eh     change    :  -0.2634882E-04 Eh
   gradient norm :     0.0021591 Eh/a0  converged?    E=F G=F D=F
   time step     :     1.1487432 fs     power     :   0.2612756E-09
   step length   :     0.0197196 a0     speed     :   0.4152317E-03

........................................................................
.............................. CYCLE   42 ..............................
........................................................................

 iter      E             dE          RMSdq      gap      omega  full diag
   1  -5198.6549712 -0.519865E+04  0.721E-04    4.03       0.0  T
   2  -5198.6549713 -0.145637E-07  0.429E-04    4.03       3.8  T
   3  -5198.6549712  0.154860E-07  0.665E-05    4.03      24.2  T
     SCC iter.                  ...       10 min, 34.899 sec
     gradient                   ...        4 min, 52.903 sec
 * total energy  : -5104.0960050 Eh     change    :  -0.3087586E-04 Eh
   gradient norm :     0.0022755 Eh/a0  converged?    E=F G=F D=F
   time step     :     1.2500000 fs     power     :   0.3006950E-09
   step length   :     0.0226793 a0     speed     :   0.4388679E-03
 * RMSD in coord.:     0.0025236 a0     energy gain  -0.2586696E-03 Eh

........................................................................
.............................. CYCLE   43 ..............................
........................................................................

 iter      E             dE          RMSdq      gap      omega  full diag
   1  -5198.6553068 -0.519866E+04  0.141E-04    4.03       0.0  T
   2  -5198.6553068 -0.602085E-09  0.826E-05    4.03      19.5  T
   3  -5198.6553068  0.212731E-08  0.229E-05    4.03      70.2  T
     SCC iter.                  ...       10 min, 35.909 sec
     gradient                   ...        4 min, 53.894 sec
 * total energy  : -5104.0960113 Eh     change    :  -0.6364628E-05 Eh
   gradient norm :     0.0022086 Eh/a0  converged?    E=F G=F D=F
   time step     :     0.2500000 fs     power     :   0.3332446E-09
   step length   :     0.0044317 a0     speed     :   0.4287869E-03

........................................................................
.............................. CYCLE   44 ..............................
........................................................................

 iter      E             dE          RMSdq      gap      omega  full diag
   1  -5198.6555801 -0.519866E+04  0.148E-04    4.03       0.0  T
   2  -5198.6555801 -0.994078E-09  0.884E-05    4.03      18.2  T
   3  -5198.6555801  0.314139E-08  0.260E-05    4.03      61.8  T
     SCC iter.                  ...       10 min, 32.288 sec
     gradient                   ...        4 min, 52.690 sec
 * total energy  : -5104.0960181 Eh     change    :  -0.6783218E-05 Eh
   gradient norm :     0.0020159 Eh/a0  converged?    E=F G=F D=F
   time step     :     0.2500000 fs     power     :   0.3524135E-09
   step length   :     0.0043779 a0     speed     :   0.4235824E-03

........................................................................
.............................. CYCLE   45 ..............................
........................................................................

 iter      E             dE          RMSdq      gap      omega  full diag
   1  -5198.6557835 -0.519866E+04  0.163E-04    4.03       0.0  T
   2  -5198.6557835 -0.135697E-08  0.989E-05    4.03      16.3  T
   3  -5198.6557835  0.470391E-08  0.318E-05    4.03      50.7  T
     SCC iter.                  ...       10 min, 35.098 sec
     gradient                   ...        4 min, 54.712 sec
 * total energy  : -5104.0960250 Eh     change    :  -0.6860734E-05 Eh
   gradient norm :     0.0017686 Eh/a0  converged?    E=F G=F D=F
   time step     :     0.2500000 fs     power     :   0.3517596E-09
   step length   :     0.0043737 a0     speed     :   0.4231767E-03

........................................................................
.............................. CYCLE   46 ..............................
........................................................................

 iter      E             dE          RMSdq      gap      omega  full diag
   1  -5198.6559162 -0.519866E+04  0.177E-04    4.03       0.0  T
   2  -5198.6559162 -0.172349E-08  0.108E-04    4.03      14.9  T
   3  -5198.6559162  0.589534E-08  0.346E-05    4.03      46.5  T
     SCC iter.                  ...       10 min, 34.332 sec
     gradient                   ...        4 min, 51.812 sec
 * total energy  : -5104.0960316 Eh     change    :  -0.6608511E-05 Eh
   gradient norm :     0.0015693 Eh/a0  converged?    E=F G=F D=F
   time step     :     0.2500000 fs     power     :   0.3341914E-09
   step length   :     0.0044086 a0     speed     :   0.4265603E-03

........................................................................
.............................. CYCLE   47 ..............................
........................................................................

 iter      E             dE          RMSdq      gap      omega  full diag
   1  -5198.6559863 -0.519866E+04  0.183E-04    4.03       0.0  T
   2  -5198.6559863 -0.166074E-08  0.112E-04    4.03      14.4  T
   3  -5198.6559863  0.570890E-08  0.337E-05    4.03      47.8  T
     SCC iter.                  ...       10 min, 36.547 sec
     gradient                   ...        4 min, 50.653 sec
 * total energy  : -5104.0960378 Eh     change    :  -0.6170261E-05 Eh
   gradient norm :     0.0015047 Eh/a0  converged?    E=F G=F D=F
   time step     :     0.2500000 fs     power     :   0.3108351E-09
   step length   :     0.0044582 a0     speed     :   0.4313509E-03

........................................................................
.............................. CYCLE   48 ..............................
........................................................................

 iter      E             dE          RMSdq      gap      omega  full diag
   1  -5198.6560134 -0.519866E+04  0.195E-04    4.03       0.0  T
   2  -5198.6560134 -0.163618E-08  0.118E-04    4.03      13.6  T
   3  -5198.6560134  0.541786E-08  0.321E-05    4.03      50.2  T
     SCC iter.                  ...       10 min, 36.801 sec
     gradient                   ...        4 min, 52.597 sec
 * total energy  : -5104.0960441 Eh     change    :  -0.6357247E-05 Eh
   gradient norm :     0.0015751 Eh/a0  converged?    E=F G=F D=F
   time step     :     0.2750000 fs     power     :   0.2929297E-09
   step length   :     0.0049434 a0     speed     :   0.4348192E-03

........................................................................
.............................. CYCLE   49 ..............................
........................................................................

 iter      E             dE          RMSdq      gap      omega  full diag
   1  -5198.6560133 -0.519866E+04  0.195E-04    4.03       0.0  T
   2  -5198.6560133 -0.125237E-08  0.117E-04    4.03      13.8  T
   3  -5198.6560133  0.304317E-08  0.253E-05    4.03      63.6  T
     SCC iter.                  ...       10 min, 36.054 sec
     gradient                   ...        4 min, 50.901 sec
 * total energy  : -5104.0960510 Eh     change    :  -0.6843306E-05 Eh
   gradient norm :     0.0016982 Eh/a0  converged?    E=F G=F D=F
   time step     :     0.3025000 fs     power     :   0.2900074E-09
   step length   :     0.0054409 a0     speed     :   0.4350674E-03

........................................................................
.............................. CYCLE   50 ..............................
........................................................................

 iter      E             dE          RMSdq      gap      omega  full diag
   1  -5198.6559984 -0.519866E+04  0.190E-04    4.03       0.0  T
   2  -5198.6559984 -0.105410E-08  0.113E-04    4.03      14.3  T
   3  -5198.6559984  0.120326E-08  0.171E-05    4.03      94.0  T
     SCC iter.                  ...       10 min, 37.002 sec
     gradient                   ...        4 min, 50.293 sec
 * total energy  : -5104.0960587 Eh     change    :  -0.7705235E-05 Eh
   gradient norm :     0.0017693 Eh/a0  converged?    E=F G=F D=F
   time step     :     0.3327500 fs     power     :   0.3013841E-09
   step length   :     0.0059681 a0     speed     :   0.4338399E-03

........................................................................
.............................. CYCLE   51 ..............................
........................................................................

 iter      E             dE          RMSdq      gap      omega  full diag
   1  -5198.6559688 -0.519866E+04  0.191E-04    4.03       0.0  T
   2  -5198.6559688 -0.673936E-09  0.113E-04    4.03      14.3  T
   3  -5198.6559688  0.879481E-09  0.162E-05    4.03      99.1  T
     SCC iter.                  ...       10 min, 34.848 sec
     gradient                   ...        4 min, 53.333 sec
 * total energy  : -5104.0960676 Eh     change    :  -0.8966115E-05 Eh
   gradient norm :     0.0017278 Eh/a0  converged?    E=F G=F D=F
   time step     :     0.3660250 fs     power     :   0.3175914E-09
   step length   :     0.0065703 a0     speed     :   0.4342000E-03

........................................................................
.............................. CYCLE   52 ..............................
........................................................................

 iter      E             dE          RMSdq      gap      omega  full diag
   1  -5198.6559051 -0.519866E+04  0.207E-04    4.03       0.0  T
   2  -5198.6559051 -0.116142E-08  0.124E-04    4.03      13.0  T
   3  -5198.6559051  0.324690E-08  0.262E-05    4.03      61.4  T
     SCC iter.                  ...       10 min, 34.644 sec
     gradient                   ...        4 min, 54.173 sec
 * total energy  : -5104.0960778 Eh     change    :  -0.1012551E-04 Eh
   gradient norm :     0.0015879 Eh/a0  converged?    E=F G=F D=F
   time step     :     0.4026275 fs     power     :   0.3264841E-09
   step length   :     0.0072969 a0     speed     :   0.4383797E-03

........................................................................
.............................. CYCLE   53 ..............................
........................................................................

 iter      E             dE          RMSdq      gap      omega  full diag
   1  -5198.6557639 -0.519866E+04  0.236E-04    4.03       0.0  T
   2  -5198.6557639 -0.205273E-08  0.144E-04    4.03      11.2  T
   3  -5198.6557639  0.793261E-08  0.396E-05    4.03      40.6  T
     SCC iter.                  ...       10 min, 33.997 sec
     gradient                   ...        4 min, 51.316 sec
 * total energy  : -5104.0960889 Eh     change    :  -0.1114267E-04 Eh
   gradient norm :     0.0014669 Eh/a0  converged?    E=F G=F D=F
   time step     :     0.4428903 fs     power     :   0.3222992E-09
   step length   :     0.0081839 a0     speed     :   0.4469697E-03

........................................................................
.............................. CYCLE   54 ..............................
........................................................................

 iter      E             dE          RMSdq      gap      omega  full diag
   1  -5198.6554917 -0.519866E+04  0.264E-04    4.03       0.0  T
   2  -5198.6554917 -0.247201E-08  0.161E-04    4.03      10.0  T
   3  -5198.6554917  0.986711E-08  0.439E-05    4.03      36.6  T
     SCC iter.                  ...       10 min, 34.694 sec
     gradient                   ...        4 min, 51.148 sec
 * total energy  : -5104.0961009 Eh     change    :  -0.1200966E-04 Eh
   gradient norm :     0.0015018 Eh/a0  converged?    E=F G=F D=F
   time step     :     0.4871793 fs     power     :   0.3137940E-09
   step length   :     0.0092214 a0     speed     :   0.4578503E-03

........................................................................
.............................. CYCLE   55 ..............................
........................................................................

 iter      E             dE          RMSdq      gap      omega  full diag
   1  -5198.6550644 -0.519866E+04  0.283E-04    4.03       0.0  T
   2  -5198.6550644 -0.218279E-08  0.170E-04    4.03       9.5  T
   3  -5198.6550644  0.584896E-08  0.351E-05    4.03      45.8  T
     SCC iter.                  ...       10 min, 38.105 sec
     gradient                   ...        4 min, 51.025 sec
 * total energy  : -5104.0961140 Eh     change    :  -0.1306108E-04 Eh
   gradient norm :     0.0015706 Eh/a0  converged?    E=F G=F D=F
   time step     :     0.5358972 fs     power     :   0.3153911E-09
   step length   :     0.0103481 a0     speed     :   0.4670852E-03

........................................................................
.............................. CYCLE   56 ..............................
........................................................................

 iter      E             dE          RMSdq      gap      omega  full diag
   1  -5198.6545841 -0.519865E+04  0.298E-04    4.03       0.0  T
   2  -5198.6545841 -0.189902E-08  0.176E-04    4.03       9.2  T
   3  -5198.6545841  0.256750E-08  0.272E-05    4.03      59.2  T
     SCC iter.                  ...       10 min, 37.053 sec
     gradient                   ...        4 min, 52.982 sec
 * total energy  : -5104.0961289 Eh     change    :  -0.1492575E-04 Eh
   gradient norm :     0.0015946 Eh/a0  converged?    E=F G=F D=F
   time step     :     0.5894869 fs     power     :   0.3290832E-09
   step length   :     0.0115974 a0     speed     :   0.4758859E-03

........................................................................
.............................. CYCLE   57 ..............................
........................................................................

 iter      E             dE          RMSdq      gap      omega  full diag
   1  -5198.6542396 -0.519865E+04  0.325E-04    4.03       0.0  T
   2  -5198.6542396 -0.222553E-08  0.193E-04    4.03       8.3  T
   3  -5198.6542396  0.911223E-08  0.425E-05    4.03      37.8  T
     SCC iter.                  ...       10 min, 36.560 sec
     gradient                   ...        4 min, 51.159 sec
 * total energy  : -5104.0961461 Eh     change    :  -0.1719460E-04 Eh
   gradient norm :     0.0015198 Eh/a0  converged?    E=F G=F D=F
   time step     :     0.6484356 fs     power     :   0.3439809E-09
   step length   :     0.0130563 a0     speed     :   0.4870441E-03

........................................................................
.............................. CYCLE   58 ..............................
........................................................................

 iter      E             dE          RMSdq      gap      omega  full diag
   1  -5198.6542800 -0.519865E+04  0.373E-04    4.03       0.0  T
   2  -5198.6542800 -0.362070E-08  0.225E-04    4.03       7.1  T
   3  -5198.6542800  0.237969E-07  0.651E-05    4.03      24.7  T
     SCC iter.                  ...       10 min, 36.028 sec
     gradient                   ...        4 min, 52.853 sec
 * total energy  : -5104.0961654 Eh     change    :  -0.1929425E-04 Eh
   gradient norm :     0.0014295 Eh/a0  converged?    E=F G=F D=F
   time step     :     0.7132792 fs     power     :   0.3491670E-09
   step length   :     0.0148165 a0     speed     :   0.5024611E-03

........................................................................
.............................. CYCLE   59 ..............................
........................................................................

 iter      E             dE          RMSdq      gap      omega  full diag
   1  -5198.6548547 -0.519865E+04  0.415E-04    4.03       0.0  T
   2  -5198.6548548 -0.375439E-08  0.249E-04    4.03       6.5  T
   3  -5198.6548547  0.178898E-07  0.587E-05    4.03      27.4  T
     SCC iter.                  ...       10 min, 34.740 sec
     gradient                   ...        4 min, 52.756 sec
 * total energy  : -5104.0961869 Eh     change    :  -0.2146253E-04 Eh
   gradient norm :     0.0014974 Eh/a0  converged?    E=F G=F D=F
   time step     :     0.7846071 fs     power     :   0.3525390E-09
   step length   :     0.0168964 a0     speed     :   0.5209036E-03

........................................................................
.............................. CYCLE   60 ..............................
........................................................................

 iter      E             dE          RMSdq      gap      omega  full diag
   1  -5198.6557739 -0.519866E+04  0.444E-04    4.03       0.0  T
   2  -5198.6557739 -0.334512E-08  0.262E-04    4.03       6.1  T
   3  -5198.6557739  0.103009E-07  0.473E-05    4.03      34.0  T
     SCC iter.                  ...       10 min, 34.348 sec
     gradient                   ...        4 min, 52.034 sec
 * total energy  : -5104.0962113 Eh     change    :  -0.2448772E-04 Eh
   gradient norm :     0.0015013 Eh/a0  converged?    E=F G=F D=F
   time step     :     0.8630678 fs     power     :   0.3699950E-09
   step length   :     0.0192182 a0     speed     :   0.5386213E-03

........................................................................
.............................. CYCLE   61 ..............................
........................................................................

 iter      E             dE          RMSdq      gap      omega  full diag
   1  -5198.6565885 -0.519866E+04  0.503E-04    4.03       0.0  T
   2  -5198.6565885 -0.536602E-08  0.299E-04    4.03       5.4  T
   3  -5198.6565885  0.257924E-07  0.699E-05    4.03      23.0  T
     SCC iter.                  ...       10 min, 38.489 sec
     gradient                   ...        4 min, 51.525 sec
 * total energy  : -5104.0962394 Eh     change    :  -0.2808143E-04 Eh
   gradient norm :     0.0014120 Eh/a0  converged?    E=F G=F D=F
   time step     :     0.9493746 fs     power     :   0.3836192E-09
   step length   :     0.0219581 a0     speed     :   0.5594645E-03

........................................................................
.............................. CYCLE   62 ..............................
........................................................................

 iter      E             dE          RMSdq      gap      omega  full diag
   1  -5198.6568637 -0.519866E+04  0.567E-04    4.03       0.0  T
   2  -5198.6568637 -0.691307E-08  0.337E-04    4.03       4.8  T
   3  -5198.6568637  0.196078E-07  0.637E-05    4.03      25.2  T
     SCC iter.                  ...       10 min, 34.049 sec
     gradient                   ...        4 min, 51.035 sec
 * total energy  : -5104.0962711 Eh     change    :  -0.3165420E-04 Eh
   gradient norm :     0.0014674 Eh/a0  converged?    E=F G=F D=F
   time step     :     1.0443120 fs     power     :   0.3911115E-09
   step length   :     0.0252450 a0     speed     :   0.5847354E-03

........................................................................
.............................. CYCLE   63 ..............................
........................................................................

 iter      E             dE          RMSdq      gap      omega  full diag
   1  -5198.6565838 -0.519866E+04  0.620E-04    4.03       0.0  T
   2  -5198.6565839 -0.741056E-08  0.367E-04    4.03       4.4  T
   3  -5198.6565838  0.298769E-07  0.783E-05    4.03      20.5  T
     SCC iter.                  ...       10 min, 35.705 sec
     gradient                   ...        4 min, 50.390 sec
 * total energy  : -5104.0963075 Eh     change    :  -0.3642814E-04 Eh
   gradient norm :     0.0014463 Eh/a0  converged?    E=F G=F D=F
   time step     :     1.1487432 fs     power     :   0.4140765E-09
   step length   :     0.0289687 a0     speed     :   0.6099875E-03

........................................................................
.............................. CYCLE   64 ..............................
........................................................................

 iter      E             dE          RMSdq      gap      omega  full diag
   1  -5198.6561956 -0.519866E+04  0.716E-04    4.03       0.0  T
   2  -5198.6561956 -0.102355E-07  0.428E-04    4.03       3.8  T
   3  -5198.6561955  0.692116E-07  0.110E-04    4.03      14.6  T
     SCC iter.                  ...       10 min, 33.938 sec
     gradient                   ...        4 min, 51.772 sec
 * total energy  : -5104.0963489 Eh     change    :  -0.4142759E-04 Eh
   gradient norm :     0.0013691 Eh/a0  converged?    E=F G=F D=F
   time step     :     1.2500000 fs     power     :   0.4269981E-09
   step length   :     0.0330410 a0     speed     :   0.6393794E-03

........................................................................
.............................. CYCLE   65 ..............................
........................................................................

 iter      E             dE          RMSdq      gap      omega  full diag
   1  -5198.6565212 -0.519866E+04  0.740E-04    4.03       0.0  T
   2  -5198.6565212 -0.106565E-07  0.438E-04    4.03       3.7  T
   3  -5198.6565212  0.350801E-07  0.904E-05    4.03      17.8  T
     SCC iter.                  ...       10 min, 35.328 sec
     gradient                   ...        4 min, 52.020 sec
 * total energy  : -5104.0963915 Eh     change    :  -0.4259547E-04 Eh
   gradient norm :     0.0014520 Eh/a0  converged?    E=F G=F D=F
   time step     :     1.2500000 fs     power     :   0.4417117E-09
   step length   :     0.0345853 a0     speed     :   0.6692631E-03

........................................................................
.............................. CYCLE   66 ..............................
........................................................................

 iter      E             dE          RMSdq      gap      omega  full diag
   1  -5198.6571812 -0.519866E+04  0.779E-04    4.03       0.0  T
   2  -5198.6571812 -0.109085E-07  0.463E-04    4.03       3.5  T
   3  -5198.6571812  0.743585E-07  0.115E-04    4.03      14.0  T
     SCC iter.                  ...       10 min, 39.281 sec
     gradient                   ...        4 min, 51.388 sec
 * total energy  : -5104.0964357 Eh     change    :  -0.4415425E-04 Eh
   gradient norm :     0.0013906 Eh/a0  converged?    E=F G=F D=F
   time step     :     1.2500000 fs     power     :   0.4577407E-09
   step length   :     0.0359627 a0     speed     :   0.6959178E-03

........................................................................
.............................. CYCLE   67 ..............................
........................................................................

 iter      E             dE          RMSdq      gap      omega  full diag
   1  -5198.6573749 -0.519866E+04  0.793E-04    4.03       0.0  T
   2  -5198.6573749 -0.158725E-07  0.468E-04    4.03       3.4  T
   3  -5198.6573749  0.543496E-07  0.116E-04    4.03      13.8  T
     SCC iter.                  ...       10 min, 35.040 sec
     gradient                   ...        4 min, 53.124 sec
 * total energy  : -5104.0964805 Eh     change    :  -0.4483182E-04 Eh
   gradient norm :     0.0016084 Eh/a0  converged?    E=F G=F D=F
   time step     :     1.2500000 fs     power     :   0.4586068E-09
   step length   :     0.0373961 a0     speed     :   0.7236551E-03
 * RMSD in coord.:     0.0059186 a0     energy gain  -0.4755359E-03 Eh

........................................................................
.............................. CYCLE   68 ..............................
........................................................................

 iter      E             dE          RMSdq      gap      omega  full diag
   1  -5198.6574253 -0.519866E+04  0.156E-04    4.03       0.0  T
   2  -5198.6574253 -0.516593E-09  0.916E-05    4.03      17.6  T
   3  -5198.6574253  0.333512E-08  0.271E-05    4.03      59.3  T
     SCC iter.                  ...       10 min, 38.560 sec
     gradient                   ...        4 min, 50.036 sec
 * total energy  : -5104.0964897 Eh     change    :  -0.9135185E-05 Eh
   gradient norm :     0.0014801 Eh/a0  converged?    E=F G=F D=F
   time step     :     0.2500000 fs     power     :   0.4794638E-09
   step length   :     0.0073595 a0     speed     :   0.7120753E-03

........................................................................
.............................. CYCLE   69 ..............................
........................................................................

 iter      E             dE          RMSdq      gap      omega  full diag
   1  -5198.6574968 -0.519866E+04  0.167E-04    4.03       0.0  T
   2  -5198.6574968 -0.231739E-08  0.992E-05    4.03      16.2  T
   3  -5198.6574968  0.313048E-08  0.354E-05    4.03      45.5  T
     SCC iter.                  ...       10 min, 34.512 sec
     gradient                   ...        4 min, 50.474 sec
 * total energy  : -5104.0964989 Eh     change    :  -0.9211470E-05 Eh
   gradient norm :     0.0013082 Eh/a0  converged?    E=F G=F D=F
   time step     :     0.2500000 fs     power     :   0.4744139E-09
   step length   :     0.0073203 a0     speed     :   0.7082741E-03

........................................................................
.............................. CYCLE   70 ..............................
........................................................................

 iter      E             dE          RMSdq      gap      omega  full diag
   1  -5198.6575734 -0.519866E+04  0.169E-04    4.03       0.0  T
   2  -5198.6575734 -0.178534E-08  0.101E-04    4.03      15.9  T
   3  -5198.6575734  0.304590E-08  0.317E-05    4.03      50.8  T
     SCC iter.                  ...       10 min, 36.447 sec
     gradient                   ...        4 min, 51.219 sec
 * total energy  : -5104.0965078 Eh     change    :  -0.8886660E-05 Eh
   gradient norm :     0.0013649 Eh/a0  converged?    E=F G=F D=F
   time step     :     0.2500000 fs     power     :   0.4613637E-09
   step length   :     0.0073488 a0     speed     :   0.7110327E-03

........................................................................
[...]
  3618   6 C     3619   6 C                                       1.3825224
  3619   6 C     3620   6 C                                       1.3840812
  3620   6 C     3621   6 C                                       1.3837887
  3617   6 C     3622   6 C                                       1.3887768
  3621   6 C     3622   6 C                                       1.3837041
  3616   6 C     3623   6 C                                       1.5362436
  3623   6 C     3624   6 C                                       1.5353678
  3625   6 C     3626   6 C                                       1.3883724
  3626   6 C     3627   6 C                                       1.3832394
  3627   6 C     3628   6 C                                       1.3819002
  3628   6 C     3629   6 C                                       1.3837171
  3625   6 C     3630   6 C                                       1.3904475
  3629   6 C     3630   6 C                                       1.3822906
  3624   6 C     3631   6 C                                       1.5399541
  3631   6 C     3632   6 C                                       1.5358880
  3633   6 C     3634   6 C                                       1.3889575
  3634   6 C     3635   6 C                                       1.3837046
  3635   6 C     3636   6 C                                       1.3837768
  3636   6 C     3637   6 C                                       1.3842060
  3633   6 C     3638   6 C                                       1.3899147
  3637   6 C     3638   6 C                                       1.3830651
  3632   6 C     3639   6 C                                       1.5364664
  3639   6 C     3640   6 C                                       1.5350805
  3641   6 C     3642   6 C                                       1.3896593
  3642   6 C     3643   6 C                                       1.3839696
  3643   6 C     3644   6 C                                       1.3841902
  3644   6 C     3645   6 C                                       1.3837319
  3641   6 C     3646   6 C                                       1.3896096
  3645   6 C     3646   6 C                                       1.3821976
  3640   6 C     3647   6 C                                       1.5341171
  3647   6 C     3648   6 C                                       1.5350797
  3649   6 C     3650   6 C                                       1.3887683
  3650   6 C     3651   6 C                                       1.3836702
  3651   6 C     3652   6 C                                       1.3837807
  3652   6 C     3653   6 C                                       1.3841273
  3649   6 C     3654   6 C                                       1.3897808
  3653   6 C     3654   6 C                                       1.3826409
  3648   6 C     3655   6 C                                       1.5348262
  3655   6 C     3656   6 C                                       1.5349731
  3657   6 C     3658   6 C                                       1.3895259
  3658   6 C     3659   6 C                                       1.3833708
  3659   6 C     3660   6 C                                       1.3837387
  3660   6 C     3661   6 C                                       1.3838841
  3657   6 C     3662   6 C                                       1.3897279
  3661   6 C     3662   6 C                                       1.3839736
  3656   6 C     3663   6 C                                       1.5335633
  3663   6 C     3664   6 C                                       1.5362942
  3665   6 C     3666   6 C                                       1.3902266
  3666   6 C     3667   6 C                                       1.3826707
  3667   6 C     3668   6 C                                       1.3841274
  3668   6 C     3669   6 C                                       1.3840844
  3665   6 C     3670   6 C                                       1.3892526
  3669   6 C     3670   6 C                                       1.3836915
  3664   6 C     3671   6 C                                       1.5348142
  3671   6 C     3672   6 C                                       1.5305563
  3673   6 C     3674   6 C                                       1.3898347
  3674   6 C     3675   6 C                                       1.3816083
  3675   6 C     3676   6 C                                       1.3840901
  3676   6 C     3677   6 C                                       1.3828899
  3673   6 C     3678   6 C                                       1.3884769
  3677   6 C     3678   6 C                                       1.3841522
  3672   6 C     3679   6 C                                       1.5402827
  3679   6 C     3680   6 C                                       1.5381159
  3681   6 C     3682   6 C                                       1.3900580
  3682   6 C     3683   6 C                                       1.3835622
  3683   6 C     3684   6 C                                       1.3834669
  3684   6 C     3685   6 C                                       1.3844086
  3681   6 C     3686   6 C                                       1.3898529
  3685   6 C     3686   6 C                                       1.3834366
  3680   6 C     3687   6 C                                       1.5336496
  3687   6 C     3688   6 C                                       1.5332720
  3549   6 C     3689   1 H                                       1.0946756
  3551   6 C     3690   1 H                                       1.0923466
  3551   6 C     3691   1 H                                       1.0921427
  3552   6 C     3692   1 H                                       1.0957849
  3559   6 C     3693   1 H                                       1.0900539
  3559   6 C     3694   1 H                                       1.0918874
  3560   6 C     3695   1 H                                       1.0956738
  3567   6 C     3696   1 H                                       1.0910592
  3567   6 C     3697   1 H                                       1.0916296
  3568   6 C     3698   1 H                                       1.0945856
  3575   6 C     3699   1 H                                       1.0923475
  3576   6 C     3700   1 H                                       1.0941465
  3583   6 C     3701   1 H                                       1.0900546
  3583   6 C     3702   1 H                                       1.0877641
  3584   6 C     3703   1 H                                       1.0946477
  3591   6 C     3704   1 H                                       1.0900063
  3591   6 C     3705   1 H                                       1.0937738
  3592   6 C     3706   1 H                                       1.0971269
  3599   6 C     3707   1 H                                       1.0944447
  3599   6 C     3708   1 H                                       1.0902515
  3600   6 C     3709   1 H                                       1.0944703
  3608   6 C     3710   1 H                                       1.0950188
  3615   6 C     3711   1 H                                       1.0899048
  3615   6 C     3712   1 H                                       1.0904372
  3616   6 C     3713   1 H                                       1.0956006
  3623   6 C     3714   1 H                                       1.0925712
  3623   6 C     3715   1 H                                       1.0911861
  3624   6 C     3716   1 H                                       1.0942974
  3631   6 C     3717   1 H                                       1.0929710
  3631   6 C     3718   1 H                                       1.0922023
  3632   6 C     3719   1 H                                       1.0931758
  3639   6 C     3720   1 H                                       1.0909977
  3639   6 C     3721   1 H                                       1.0917825
  3640   6 C     3722   1 H                                       1.0958696
  3647   6 C     3723   1 H                                       1.0925097
  3647   6 C     3724   1 H                                       1.0916629
  3648   6 C     3725   1 H                                       1.0957967
  3655   6 C     3726   1 H                                       1.0918136
  3655   6 C     3727   1 H                                       1.0926343
  3656   6 C     3728   1 H                                       1.0949002
  3663   6 C     3729   1 H                                       1.0922364
  3663   6 C     3730   1 H                                       1.0926030
  3664   6 C     3731   1 H                                       1.0958801
  3671   6 C     3732   1 H                                       1.0908530
  3671   6 C     3733   1 H                                       1.0919997
  3672   6 C     3734   1 H                                       1.0942605
  3679   6 C     3735   1 H                                       1.0928526
  3679   6 C     3736   1 H                                       1.0927297
  3543   6 C     3737   1 H                                       1.0813260
  3548   6 C     3738   1 H                                       1.0806175
  3547   6 C     3739   1 H                                       1.0801977
  3546   6 C     3740   1 H                                       1.0805636
  3545   6 C     3741   1 H                                       1.0801017
  3554   6 C     3742   1 H                                       1.0786635
  3555   6 C     3743   1 H                                       1.0811297
  3556   6 C     3744   1 H                                       1.0804250
  3557   6 C     3745   1 H                                       1.0812571
  3558   6 C     3746   1 H                                       1.0806681
  3562   6 C     3747   1 H                                       1.0801074
  3563   6 C     3748   1 H                                       1.0807075
  3564   6 C     3749   1 H                                       1.0799759
  3565   6 C     3750   1 H                                       1.0798086
  3566   6 C     3751   1 H                                       1.0802779
  3570   6 C     3752   1 H                                       1.0809538
  3571   6 C     3753   1 H                                       1.0806574
  3572   6 C     3754   1 H                                       1.0798197
  3573   6 C     3755   1 H                                       1.0804538
  3574   6 C     3756   1 H                                       1.0800444
  3575   6 C     3757   1 H                                       1.0929436
  3578   6 C     3758   1 H                                       1.0811421
  3579   6 C     3759   1 H                                       1.0805942
  3580   6 C     3760   1 H                                       1.0804808
  3581   6 C     3761   1 H                                       1.0807293
  3582   6 C     3762   1 H                                       1.0808549
  3586   6 C     3763   1 H                                       1.0811616
  3587   6 C     3764   1 H                                       1.0814729
  3588   6 C     3765   1 H                                       1.0798724
  3589   6 C     3766   1 H                                       1.0805272
  3590   6 C     3767   1 H                                       1.0811089
  3594   6 C     3768   1 H                                       1.0790844
  3595   6 C     3769   1 H                                       1.0808546
  3596   6 C     3770   1 H                                       1.0803744
  3597   6 C     3771   1 H                                       1.0814279
  3598   6 C     3772   1 H                                       1.0812209
  3602   6 C     3773   1 H                                       1.0799251
  3603   6 C     3774   1 H                                       1.0803126
  3604   6 C     3775   1 H                                       1.0802456
  3605   6 C     3776   1 H                                       1.0803638
  3606   6 C     3777   1 H                                       1.0800027
  3607   6 C     3778   1 H                                       1.0921090
  3607   6 C     3779   1 H                                       1.0933899
  3610   6 C     3780   1 H                                       1.0812432
  3611   6 C     3781   1 H                                       1.0806380
  3612   6 C     3782   1 H                                       1.0804659
  3613   6 C     3783   1 H                                       1.0801568
  3614   6 C     3784   1 H                                       1.0789092
  3618   6 C     3785   1 H                                       1.0799753
  3619   6 C     3786   1 H                                       1.0800615
  3620   6 C     3787   1 H                                       1.0801748
  3621   6 C     3788   1 H                                       1.0806482
  3622   6 C     3789   1 H                                       1.0813518
  3626   6 C     3790   1 H                                       1.0820066
  3627   6 C     3791   1 H                                       1.0804115
  3628   6 C     3792   1 H                                       1.0790320
  3629   6 C     3793   1 H                                       1.0803138
  3630   6 C     3794   1 H                                       1.0798623
  3634   6 C     3795   1 H                                       1.0808915
  3635   6 C     3796   1 H                                       1.0804749
  3636   6 C     3797   1 H                                       1.0801068
  3637   6 C     3798   1 H                                       1.0807000
  3638   6 C     3799   1 H                                       1.0795310
  3642   6 C     3800   1 H                                       1.0809335
  3643   6 C     3801   1 H                                       1.0804323
  3644   6 C     3802   1 H                                       1.0804399
  3645   6 C     3803   1 H                                       1.0797456
  3646   6 C     3804   1 H                                       1.0803231
  3650   6 C     3805   1 H                                       1.0808841
  3651   6 C     3806   1 H                                       1.0805598
  3652   6 C     3807   1 H                                       1.0801190
  3653   6 C     3808   1 H                                       1.0807314
  3654   6 C     3809   1 H                                       1.0796001
  3658   6 C     3810   1 H                                       1.0807023
  3659   6 C     3811   1 H                                       1.0804528
  3660   6 C     3812   1 H                                       1.0801243
  3661   6 C     3813   1 H                                       1.0812598
  3662   6 C     3814   1 H                                       1.0807937
  3666   6 C     3815   1 H                                       1.0802610
  3667   6 C     3816   1 H                                       1.0798476
  3668   6 C     3817   1 H                                       1.0802855
  3669   6 C     3818   1 H                                       1.0806061
  3670   6 C     3819   1 H                                       1.0810843
  3674   6 C     3820   1 H                                       1.0798920
  3675   6 C     3821   1 H                                       1.0791930
  3676   6 C     3822   1 H                                       1.0789918
  3677   6 C     3823   1 H                                       1.0807254
  3678   6 C     3824   1 H                                       1.0813686
  3686   6 C     3825   1 H                                       1.0786521
  3685   6 C     3826   1 H                                       1.0816142
  3684   6 C     3827   1 H                                       1.0792162
  3683   6 C     3828   1 H                                       1.0799050
  3682   6 C     3829   1 H                                       1.0823358
  3550   6 C     3830   1 H                                       1.0884800
  3550   6 C     3831   1 H                                       1.0875358
  3550   6 C     3832   1 H                                       1.0879110
  3680   6 C     3833   1 H                                       1.0952958
  3687   6 C     3834   1 H                                       1.0910719
  3687   6 C     3835   1 H                                       1.0919285
  3688   6 C     3836   6 C                                       1.5350931
  3837   6 C     3838   6 C                                       1.3896373
  3838   6 C     3839   6 C                                       1.3845708
  3839   6 C     3840   6 C                                       1.3843897
  3840   6 C     3841   6 C                                       1.3843012
  3837   6 C     3842   6 C                                       1.3902096
  3841   6 C     3842   6 C                                       1.3833656
  3838   6 C     3843   1 H                                       1.0817470
  3839   6 C     3844   1 H                                       1.0809234
  3840   6 C     3845   1 H                                       1.0803847
  3841   6 C     3846   1 H                                       1.0801635
  3842   6 C     3847   1 H                                       1.0802820
  3836   6 C     3848   6 C                                       1.5302758
  3836   6 C     3849   1 H                                       1.0914136
  3836   6 C     3850   1 H                                       1.0920251
  3851   6 C     3852   6 C                                       1.3898759
  3852   6 C     3853   6 C                                       1.3823971
  3853   6 C     3854   6 C                                       1.3851001
  3854   6 C     3855   6 C                                       1.3839581
  3851   6 C     3856   6 C                                       1.3882529
  3855   6 C     3856   6 C                                       1.3841732
  3852   6 C     3857   1 H                                       1.0806952
  3853   6 C     3858   1 H                                       1.0808119
  3854   6 C     3859   1 H                                       1.0801970
  3855   6 C     3860   1 H                                       1.0804014
  3856   6 C     3861   1 H                                       1.0809386
  3688   6 C     3862   1 H                                       1.0967200
  3848   6 C     3863   1 H                                       1.0939105
  3848   6 C     3864   1 H                                       1.0912049

 * 2 distinct bonds (by element types)

   Z      Z             #   av. dist./Å        max./Å        min./Å
   1 H    6 C        1944     1.0851176     1.0991479     1.0774428
   6 C    6 C        1874     1.4203945     1.5407816     1.3807403


optimized geometry written to: xtbopt.xyz


           -------------------------------------------------
          | TOTAL ENERGY            -5104.102794005739 Eh   |
          | GRADIENT NORM               0.000745764587 Eh/α |
          | HOMO-LUMO GAP               4.035735089468 eV   |
           -------------------------------------------------

------------------------------------------------------------------------
 * finished run on 2024/10/09 at 00:36:59.644     
------------------------------------------------------------------------
 total:
 * wall-time:     4 d,  3 h, 31 min, 36.386 sec
 *  cpu-time:    26 d, 14 h,  6 min, 54.828 sec
 * ratio c/w:     6.411 speedup
 SCF:
 * wall-time:     0 d,  0 h, 47 min, 43.147 sec
 *  cpu-time:     0 d,  5 h, 45 min, 26.760 sec
 * ratio c/w:     7.239 speedup
 ANC optimizer:
 * wall-time:     4 d,  2 h, 42 min, 42.804 sec
 *  cpu-time:    26 d,  8 h, 19 min, 56.376 sec
 * ratio c/w:     6.406 speedup

