3864
 energy: -5104.102794005739 gnorm: 0.000745764587 xtb: 6.6.1 (8d0f1dd)
C           73.64099950844013       53.39512626054035       38.59350541572401
C           72.39731987831006       53.47224460617279       37.98095718811031
C           72.07506759975337       52.52882767734076       37.01280363889701
C           72.96922220844147       51.53154053484285       36.67074261370130
C           74.20692303986273       51.46522670115101       37.28715081481820
C           74.54071723662653       52.40138355170129       38.24999746801569
C           71.43278178172007       54.57084928580598       38.34985254997775
C           71.27964762251956       55.54698462854164       37.18054971985763
C           70.06777978347677       54.01202723209736       38.77091660807754
C           70.17958690915130       53.01009994500934       39.92744453331458
C           70.87482794381050       53.63721295077550       41.10861048380732
C           70.38471166324990       54.79603573904553       41.70031503806585
C           71.04966968584576       55.38489231914009       42.75964714087803
C           72.20741779857119       54.81395687061149       43.25933171790919
C           72.69636360790597       53.65164191454829       42.68877439871773
C           72.03665806982750       53.07232453117164       41.61920648181304
C           68.79207647989351       52.48800219177935       40.32429232252117
C           68.88128205515501       51.42210529266988       41.42061072633754
C           69.63590600093731       50.19452835213935       40.97042086075245
C           70.62090869208565       49.64870731477888       41.78439188610558
C           71.28164021277803       48.48832426169669       41.42266537835130
C           70.96452616059119       47.85113997604499       40.23527093150850
C           69.98783749247653       48.38606837610449       39.41307695436551
C           69.33026418235437       49.54646107958648       39.77938719400063
C           67.49482348512264       50.97524810540777       41.91300628822243
C           66.70186964265422       52.09759397399457       42.61193012434140
C           65.67154840769470       52.67628318675759       41.67736307691025
C           65.69956440915838       54.01520008829532       41.30856526267597
C           64.78065161234193       54.52235562016518       40.40620548874707
C           63.81217339714082       53.69392660561770       39.86305043944957
C           63.76511877994511       52.36167788711124       40.23618571323269
C           64.68383771567703       51.85909462511960       41.13786713532897
C           66.04109819516235       51.60640822149222       43.91197497447755
C           65.66980605762188       52.77097461882635       44.84135925570042
C           66.89213703801656       53.61756893439560       45.11615224515849
C           66.88459942757643       54.97408884790044       44.81797673660267
C           68.01351269839304       55.75294521618340       45.00455067897596
C           69.17447964737532       55.18103320065737       45.49291598177381
C           69.18851310768127       53.83555464283138       45.81679325545912
C           68.05599042341899       53.06315465476659       45.63857600040760
C           65.07943522590352       52.27981691097109       46.17394449106254
C           63.65500743817513       51.69906890995187       46.08724751436299
C           63.36670821889380       50.91209421521052       47.34496014350388
C           63.22646904439047       49.53000381951622       47.29635323752285
C           62.96804092139188       48.79462591166958       48.44000635064895
C           62.84750381491129       49.43375928380781       49.66153717327452
C           62.98695226053628       50.80970655014829       49.72793000890818
C           63.24711601658773       51.53850714152706       48.58049087732668
C           62.60927269457495       52.80263885750745       45.87109358446745
C           61.17079587206518       52.26615201442718       45.85105424333502
C           60.95531124939917       51.32065740378880       44.70040436331150
C           60.61599768153497       49.99519405269642       44.93975755927823
C           60.38071223577730       49.12169716043280       43.89309192897312
C           60.47375736006411       49.56829338139092       42.58665991335136
C           60.81630643761290       50.88557572972815       42.33751089500195
C           61.06111091730946       51.75254068873016       43.38509187498333
C           60.16490003760480       53.42689293081018       45.80239101046056
C           58.69921859824787       52.94105796747751       45.73360295249987
C           58.12145436724899       53.08699545776999       44.34819100542619
C           57.97560981863641       54.34349210997419       43.77051289626391
C           57.42278946179477       54.48865710355267       42.51107414344775
C           56.98759895585930       53.37717854864434       41.80986466840555
C           57.12281483011831       52.12396964660337       42.37845668354434
C           57.69131361324034       51.97899111440137       43.63114000409855
C           57.84447744900923       53.70730599869251       46.75370151905387
C           56.35920846727868       53.29836904266008       46.78475769727370
C           55.60184953620217       54.38932725819873       47.50115965415144
C           54.64586711500177       55.14679297338908       46.83655916147396
C           54.01020647721499       56.20024315189684       47.47197297424417
C           54.32685469815254       56.51678257220483       48.78105186456430
C           55.29059108773394       55.78120555858030       49.44971893413818
C           55.91281382359179       54.72109653556450       48.81604186692206
C           56.17542680680512       51.92898236989853       47.45064284836972
C           54.76463442975933       51.34349496622514       47.28889575750664
C           54.42711227256363       51.10698439302548       45.83774311640170
C           53.36728816483302       51.77614669188199       45.24058550890825
C           53.02610183744997       51.53735512384456       43.92108754462031
C           53.74348647941939       50.61621386724437       43.17919726582303
C           54.79648472455831       49.93416140073469       43.76335475855421
C           55.13415852482619       50.17962773873224       45.08109889820540
C           54.64166849392702       50.01349459754892       48.05617232890185
C           54.36692321578326       50.18677561249984       49.56421537832655
C           52.87713586582739       50.14600933466695       49.81005937053358
C           52.14761212696511       51.32565066422405       49.89143564437386
C           50.77683196322303       51.30460572163665       50.07956348622033
C           50.10723403188104       50.09825062317599       50.18107010646240
C           50.81867629416443       48.91473990365789       50.09129578116394
C           52.18956715220062       48.94180269912947       49.90887781081240
C           55.11882592759927       49.12317850575731       50.37770104774042
C           56.64666591183085       49.34732927758907       50.36391997725762
C           57.38837675547429       48.22629987894847       49.67853919959050
C           57.24360987015333       46.90876370772770       50.09982811739791
C           57.96134062639126       45.88909901800731       49.50220809004379
C           58.84907817311595       46.17362546986666       48.47869829427294
C           58.99955994893042       47.47888743829620       48.04561756552335
C           58.27151204770128       48.49482998551107       48.63946218518391
C           57.19895334650374       49.51927797960634       51.78630314129191
C           58.66277655320691       49.96935833774828       51.77082804923364
C           58.82920028254965       51.35306450555487       51.18820079154987
C           58.14235553895476       52.44121666391064       51.71571305933772
C           58.37274034996977       53.72133914746784       51.24647127890633
C           59.30775768001705       53.94070230267723       50.24845628053104
C           59.99254110151837       52.86464738283514       49.71186403703848
C           59.74840655552622       51.58287063799389       50.17291657001175
C           59.27882693607218       50.00756638155363       53.17707528072528
C           59.53377149418565       48.64181708661818       53.83877596320551
C           59.70495372621522       48.90986308402022       55.31589211539020
C           60.71484853826459       49.75498828695371       55.76499521342640
C           60.79584621004589       50.11847777638904       57.09682650827572
C           59.87553118735352       49.63562301450028       58.01040309503844
C           58.88499932891424       48.77069779736397       57.58266730522489
C           58.80188146706656       48.41374934236246       56.24833348727775
C           60.73744600305521       47.92157054631886       53.20383150366912
C           60.52347217007435       46.40628337041048       53.06067360216970
C           61.60868236054756       45.77791716436776       52.22238364129221
C           61.27942874440745       45.05652208947129       51.08173867931202
C           62.25678464562362       44.43142805823051       50.32881057959752
C           63.58560007251806       44.52778067302306       50.70128860284464
C           63.93010493037573       45.26287721837379       51.82223565729003
C           62.94876547807480       45.87995778703426       52.57733174563843
C           60.45196777093027       45.73156307075551       54.43561567601654
C           60.03851308864043       44.25350297095860       54.38747999643987
C           58.76030419240232       44.04792054134772       53.61305585768940
C           57.57312360371989       44.66069652916953       53.99814502719245
C           56.40001651173802       44.43876288480075       53.30024805324118
C           56.39316746297504       43.59634401938679       52.20273016368078
C           57.56792939388166       42.98216147951695       51.80675220815070
C           58.74012297696766       43.20767303048856       52.50623312724606
C           59.87273967336138       43.74879962059612       55.82882457039265
C           59.48056233842118       42.26719367069028       55.90584231680365
C           60.66337149046886       41.36875006322600       55.65529239396225
C           60.62656692415062       40.42926127579191       54.63370043908545
C           61.70368731166509       39.59322707631711       54.39385391650209
C           62.83936028728446       39.68700946300262       55.17909534888181
C           62.88589497711750       40.61516252914281       56.20549294290016
C           61.80677785791664       41.44655186939600       56.44289183494423
C           58.82611640848139       41.94738218625168       57.25865221579748
C           57.96789457853099       40.67417153478046       57.22501763076793
C           56.90786866353243       40.78530622978766       56.15649990450097
C           55.95198394819140       41.79416527392230       56.19513564671673
C           54.99534777255182       41.89937336028425       55.20201747513007
C           54.97214998354718       40.99336785386274       54.15650377543662
C           55.91019246136067       39.97797139148063       54.11135099611729
C           56.87000427821281       39.87989284289431       55.10321767988886
C           57.34725607752897       40.42130421421966       58.61964602717231
C           57.91921037413646       39.18702246116655       59.33939486322038
H           71.85078540090134       55.12065240398394       39.20071523437318
H           69.42762703570340       54.84511338730861       39.06971104575396
H           69.59177510864492       53.51708237254881       37.92298207133508
H           70.77893312052331       52.15883285480241       39.58540463958471
H           68.18508500897184       53.31916092899403       40.68270325336689
H           68.29637660963543       52.07894369613565       39.44205449184878
H           69.41498834904668       51.85981956446830       42.27340614091069
H           66.92960948117960       50.58361819322248       41.06691118599312
H           67.63821699147199       50.14406740939236       42.60632801552001
H           67.41000751111513       52.88632449484304       42.88696050119788
H           66.73460572930721       50.94952192911564       44.43715873158030
H           64.92894482173803       53.39675216795713       44.33255343889239
H           65.74629760377370       51.51903322395710       46.58815181488050
H           65.07412518536641       53.11825297988456       46.87536100061276
H           63.60611592879746       51.01151068271136       45.23712764532502
H           62.69099410111399       53.53843049975750       46.67259227192384
H           62.81403013536966       53.31724565757050       44.93106323121686
H           61.00112442947692       51.71392093231097       46.78336633722135
H           60.30360834779733       54.03592618373241       46.69896392498626
H           60.38669202547484       54.06358055437859       44.94558731071774
H           58.68051499543320       51.87945864267549       45.99795284906886
H           55.99267039002203       53.23325785620299       45.75416607550432
H           56.88981949486093       51.23037995130070       47.01242511713204
H           56.40768191815383       52.01935797520569       48.51423327007749
H           54.03913621682045       52.05509000651332       47.69751032254725
H           53.82931404162122       49.42847166715048       47.61693452734035
H           55.56125297542193       49.44236805288142       47.91895307873338
H           54.72759447087542       51.17007496772110       49.88350074921639
H           54.74751408707311       49.14885593977750       51.40476283048485
H           54.89784374341587       48.13622746932310       49.96926502797621
H           56.86027755717897       50.27420888093361       49.82315573849079
H           56.58977042897943       50.25159863582137       52.31890440104560
H           57.11708159348086       48.56727426559498       52.31204366810469
H           59.22966249403316       49.26285463257706       51.15522553080502
H           60.23112529999649       50.53804720390379       53.11059086338356
H           58.62381477735368       50.59385466121546       53.82651272898269
H           58.64805450957650       48.01406496385935       53.69955461954790
H           60.91049334829716       48.32834094508348       52.20497858943336
H           61.63365472955449       48.11330578803692       53.79680722658668
H           59.56832361991641       46.24986080195921       52.54524773825864
H           61.42833056850147       45.79912925003376       54.91781777099207
H           59.74138710102733       46.27488202900190       55.05820456767761
H           60.83500616779575       43.68031229760405       53.90000298153495
H           60.80212128747166       43.92199698195316       56.37332436893392
H           59.09179121807835       44.34061108182809       56.31088485354530
H           58.72974623356736       42.08363447709569       55.12932335265102
H           59.59515495628296       41.83784333286199       58.02696231170206
H           58.18244668027960       42.78375578422651       57.53789530533091
H           73.90529894469006       54.11966379501927       39.35141304214400
H           75.50478966083443       52.35755221205186       38.73609276652957
H           74.90732985936864       50.68815748470993       37.01800578788868
H           72.70038398888522       50.80207103291005       35.92012127037403
H           71.11334662370135       52.56892936002299       36.52402622969364
H           69.47974589872402       55.25417041973535       41.32723919462699
H           70.66334709862771       56.29612670997842       43.19182103899792
H           72.72811954506641       55.27344822006702       44.08699628855197
H           73.59939910930449       53.19864234867389       43.07254351983899
H           72.42756786409674       52.17107851160829       41.16757516972160
H           70.87390519193411       50.14400708890616       42.71172889354595
H           72.04503442099302       48.07982913632348       42.06946628554877
H           71.48082438871089       46.94541883038597       39.95116283161600
H           69.72951356067739       47.90200824150841       38.48180849152281
H           68.57562794151426       49.94494965183419       39.11915393539064
H           66.45255985639307       54.66928753536383       41.72902832107116
H           64.82656373687689       55.56315612650425       40.11952228703983
H           63.09152444819635       54.08890740977647       39.16244266744340
H           63.01197307181140       51.70896066431077       39.81705995593410
H           64.63679900467410       50.81794072571834       41.42189046732704
H           65.15234141497710       51.02143284146524       43.67173225414446
H           65.97865184039679       55.42005296981684       44.43223694853214
H           67.98896119282793       56.80720082003666       44.76445190077194
H           70.06101172270178       55.78094674662816       45.63072796605223
H           70.08659414335767       53.38369945532603       46.21123990985807
H           68.08920594783093       52.01735287680277       45.90423148732337
H           63.31643531066733       49.02450593881190       46.34584231883947
H           62.85883028386764       47.72097314732788       48.38256816331580
H           62.64593960752079       48.85757132425987       50.55346191766682
H           62.88721288730490       51.32321845019705       50.67371186388986
H           63.34892519350753       52.61150801760764       48.65202571935095
H           60.53782753741748       49.64698880132664       45.96150781965196
H           60.11957567277294       48.09182453629611       44.08994241956825
H           60.27046096044037       48.88755609106983       41.77411382317479
H           60.88840368140220       51.25094935639028       41.32328225897227
H           61.32716331277000       52.77651225293975       43.17346625973919
H           58.29014113864387       55.22197485418448       44.31480864742193
H           57.32627019592453       55.47433796704271       42.07867908565549
H           56.53972089084775       53.48649635298788       40.83226806334650
H           56.76860135863226       51.25434858688098       41.84582343773565
H           57.79806427421244       50.99250190923792       44.05771457259476
H           58.27384022455517       53.55879139204793       47.74659242221551
H           57.90140424491725       54.77429835646291       46.52514019479054
H           54.40476572122516       54.91004182774127       45.80888589129935
H           53.28051029245308       56.79330881050778       46.93940453514220
H           53.82711320452782       57.33292202646543       49.28412983686066
H           55.56931808909190       56.04632731957991       50.46095447418216
H           56.66299909562417       54.15726876892381       49.34982784507188
H           52.79677796140999       52.48659145710018       45.82272535250874
H           52.19511390099904       52.06583405555013       43.47652001214092
H           53.47909071100558       50.42691122930190       42.14871194716657
H           55.35513544743433       49.20332162978040       43.19590107036606
H           55.95094897362092       49.63200323315493       45.52839013712791
H           52.65869539755631       52.27457536972509       49.81393246544184
H           50.22717078253048       52.23304795258714       50.14601353029764
H           49.03665535526646       50.08075349502828       50.31830378979586
H           50.30408607483399       47.96566548149911       50.15588240207516
H           52.72899263316367       48.00857357671421       49.83857574804242
H           56.56707612624543       46.66952703563770       50.90828807117520
H           57.82682899086491       44.87215735214148       49.84281236580092
H           59.42442352692954       45.38212800108452       48.02352335981141
H           59.68986033852707       47.70534404923804       47.24538249444476
H           58.39755251890453       49.51494108935934       48.30195810840755
H           57.42604251775585       52.29765743161000       52.51103720359527
H           57.82320731387158       54.55173954192765       51.66711389442020
H           59.50101601116136       54.94155566888938       49.89213947954772
H           60.72732511424479       53.02366073443501       48.93717702568902
H           60.29279333135095       50.75050134620831       49.74921750736976
H           61.43700284377104       50.15129251782112       55.06663184114966
H           61.57525725717873       50.79225888710150       57.42273033958816
H           59.92634343961844       49.93769675336098       59.04496159353234
H           58.16749392904136       48.38125843810019       58.28842345876977
H           58.01050517157941       47.74926154452351       55.92797251432440
H           60.24318829000634       44.97973880441027       50.78710945898806
H           61.98261905497615       43.85514191334698       49.45713836871862
H           64.34486921873369       44.02245117317738       50.12236581945606
H           64.96668812764656       45.35095586830002       52.11704324527761
H           63.23428091321058       46.44428809818937       53.45396737925990
H           57.55794156692623       45.31547114472792       54.85740695933758
H           55.48652309475661       44.92025597793663       53.62084135381163
H           55.48337831935225       43.41626865780277       51.65073697808101
H           57.56650077418737       42.32391365820942       50.94906510470955
H           59.65601305084613       42.72970712485784       52.18953516245209
H           59.73812936757115       40.35592472729213       54.02186126122838
H           61.65915115569950       38.87153301415482       53.59028735887337
H           63.68311007204818       39.03859328627212       54.99277903798662
H           63.76630793944264       40.69451534940136       56.82660252886497
H           61.86532872925522       42.16312820328081       57.25020642902679
H           57.60056603498532       39.08466169125450       55.05638408177444
H           55.89370792759720       39.25820767649778       53.30693569775437
H           54.22709417464161       41.07396360747959       53.37838852825077
H           54.26527364780870       42.69356562540472       55.24541100602835
H           55.95140796595010       42.50442710808765       57.00885803398400
H           72.24641279627028       55.96447218046396       36.90715516302914
H           70.86822659277246       55.04010760140956       36.31054783349494
H           70.61645783983572       56.36480809327323       37.45548888956961
H           58.62145449005591       39.83647268532152       56.96123928350112
H           57.52257680453225       41.30072597223599       59.24345515848636
H           56.26504804212234       40.31606691387503       58.52159015814305
C           57.00794065787927       37.95469246984168       59.21198053480853
C           58.13125712116413       39.41898998793355       60.81668780460232
C           59.27349717498223       38.92994637337679       61.43812077231194
C           59.45416010078331       39.06289879466829       62.80379788871442
C           58.49095059375153       39.69468304236654       63.57095962883633
C           57.35270787609728       40.19514509595996       62.96298459665931
C           57.17290216212218       40.05311644942376       61.59883329095589
H           60.03068594956594       38.43585615368742       60.84490702064280
H           60.34913751311429       38.67368629494896       63.26776330245195
H           58.62410863142142       39.80422113743241       64.63694921733014
H           56.60804172702723       40.69939488534054       63.55897805541385
H           56.27712429580033       40.44382529377167       61.13736656262181
C           56.74289557545023       37.49975488975414       57.77348159160606
H           57.46907364875275       37.12845905669936       59.76076214328394
H           56.05348251624753       38.17103986439081       59.69626495799412
C           55.93314513134416       36.23404199470498       57.79408383152949
C           56.51359497485709       35.00960491503993       57.49089585028053
C           55.78114904866095       33.83830394746889       57.57448603670467
C           54.45752274990941       33.87502155678604       57.97743587142236
C           53.86721626517172       35.08979107241472       58.28127904193369
C           54.59811633766509       36.25936725814398       58.18074387718141
H           57.55056591473395       34.97243018423655       57.18664747342285
H           56.24750064400816       32.89422092287417       57.33160086379658
H           53.88826656158567       32.96028221333177       58.05453152046010
H           52.83640146326665       35.12936100358389       58.60099682222899
H           54.12350373047801       37.20229250297560       58.41227045029513
H           58.89091189883430       38.94092180692857       58.89706494124940
H           56.20407405364465       38.27904993356711       57.23144956633876
H           57.69316896570687       37.32460421855514       57.26537173043452
C           45.68677723482521       45.69672326781148       45.70149555824982
C           45.82563800359831       47.06826408891680       45.86731289492651
C           46.16095907623146       47.84027789322100       44.76109587120754
C           46.31936049916808       47.26295596955017       43.51543986495548
C           46.15534181038628       45.89788392752197       43.35919826001782
C           45.85174878137939       45.11289691290619       44.45701306127027
C           45.58095062737886       47.71285429350866       47.20932961356758
C           46.85221824295729       48.39566991194356       47.71449695342483
C           44.39956463686894       48.68953434928222       47.07852125063476
C           43.85748509168813       49.21233874601759       48.41615789930544
C           43.03307669105541       50.45906821844402       48.20695991516967
C           43.32603967731428       51.61838116772288       48.91187249529309
C           42.54681566663895       52.75306091041302       48.77598152436199
C           41.45289005727665       52.74294592850364       47.92916605751969
C           41.16159154297112       51.60082976744349       47.20434677085307
C           41.94798025152188       50.47166910569364       47.33835013257045
C           43.01342077638590       48.15540091171017       49.14299666617381
C           42.81978522638778       48.50353162239045       50.62621088443918
C           44.11338720351076       48.34957320359651       51.38659638462144
C           44.72830149206182       47.10911388390780       51.51370322507975
C           45.87511500938161       46.95749070810653       52.27108817042161
C           46.44177533507240       48.05080032472582       52.90079363825579
C           45.85919366022419       49.29655656997233       52.75455155839054
C           44.70374723962646       49.44359539755417       52.00701865690952
C           41.71863464374612       47.62130387835365       51.23728583360968
C           41.59934444411115       47.78194376441776       52.76038218528274
C           41.42164181631873       49.23398016621972       53.13833302520067
C           42.30493822860703       49.85200145067382       54.01392765512885
C           42.17543138490045       51.19639996785327       54.31792824742945
C           41.15749640677956       51.94508384938138       53.75512820935060
C           40.25030371059275       51.33077190007394       52.90878869954508
C           40.37971755284185       49.98725875987040       52.60875467830474
C           40.43471936672749       46.96877842405587       53.34945174374398
C           40.34012045684842       45.50166217247603       52.90109765340409
C           39.11300039348779       44.88969551816364       53.53010016188497
C           39.02492572621072       44.70360145384408       54.90477292303206
C           37.88641794902259       44.16361896952890       55.47311057708175
C           36.81086274026437       43.81080606559345       54.67725472626632
C           36.88559262263774       43.98930440319049       53.30831733086516
C           38.03078600173367       44.51920677232651       52.74285943183347
C           41.59170473950083       44.67636570067739       53.22462755424048
C           41.51185475885531       43.28461116834242       52.58353358736765
C           41.39859944649789       43.38261946792692       51.08091504004292
C           42.43630479440746       43.91228922042171       50.32201448705537
C           42.36045425846542       43.95726342876365       48.94191400845458
C           41.23616946791861       43.47656866343806       48.29338677229867
C           40.18699713177159       42.96570316415803       49.03639531717650
C           40.27148123366403       42.91293699243204       50.41741013816278
C           42.72864260527402       42.41355913092458       52.93397771556230
C           42.66614518573565       41.73960794290108       54.31321697872223
C           43.15839927527421       42.61370368669510       55.43762426295857
C           42.32557892753616       42.94060844179231       56.50030021312561
C           42.81175192614149       43.61972514856036       57.60513813794299
C           44.14278909718843       43.99160937894603       57.66046910242816
C           44.97786727252814       43.69939486164923       56.59508420645925
C           44.48817457600620       43.02049556060355       55.49509313666330
C           43.49736819107153       40.44164861905704       54.24945010119323
C           43.79659909833871       39.79520147436262       55.61145420504561
C           44.82311296263835       38.71036178423974       55.40436626844673
C           44.54398369274434       37.58402558914544       54.63938776170291
C           45.52011780233197       36.63334769022212       54.39860449946463