3258
 energy: -3427.635917750257 gnorm: 0.000928752334 xtb: 6.6.1 (8d0f1dd)
C           94.26983133531643      121.51406270656911       97.55812706581700
C           95.59866738935419      120.83193796967343       97.86004134541149
C           95.44986858251340      119.31611971993172       97.97016289933198
C           96.76586140730181      118.63200214418244       98.33244658938582
C           96.62837777064213      117.11218664427045       98.39985905479536
C           97.92354298783142      116.43866590219670       98.84742847145034
C           97.81783918723011      114.91533137414712       98.85570622979192
C           99.09108262827186      114.25854618785829       99.38412310021496
C           99.02404365785765      112.73397732933527       99.33450727458238
C          100.26984862878911      112.08663006747379       99.93521549316628
C          100.24352380020991      110.56430539608914       99.82103914841366
C          101.47980360503175      109.92004275145165      100.44417203762060
C          101.48170728578992      108.40099034679984      100.29110348148461
C          102.70737288056947      107.76053380403208      100.93864755266553
C          102.74585563413703      106.24716339412988      100.74026220210534
C          103.95936125209417      105.61168402643638      101.41480166479978
C          104.04779286276050      104.10883950874766      101.15984764472437
C          105.25837868370456      103.48331017315664      101.84919159123451
C          105.40054566354020      101.99442071590890      101.54251990522000
C          106.62783579521863      101.39051191088737      102.22074766360093
C          106.84554433162232       99.92706457095717      101.84496206244799
C          108.12934454377931       99.36908183658475      102.45485433782699
C          108.45719594639564       97.96707823117819      101.94736776574393
C          109.82214731425437       97.49352077247075      102.44107774720302
C          110.16222037228441       96.06018671426229      102.03340518356882
C          110.21568795348790       95.80750165561919      100.52550930921817
C          111.28955880888228       96.61413397375267       99.79578869396123
C          111.42975230770428       96.15449984696197       98.34479017733187
C          112.60647198224864       96.78809948758233       97.59920425785849
C          112.36840917716611       98.22337747192428       97.12919708043192
C          113.58870305317787       98.73657188749887       96.36545585943250
C          113.46435477133049      100.17263126691665       95.85038081513905
C          113.71249916604037      101.22469651616858       96.92871571684456
C          113.66855755735720      102.64423800855914       96.36736905832559
C          113.89716210670645      103.70682801316659       97.44038671544230
C          113.85030493401774      105.11904800113389       96.86209703012926
C          113.98911028884206      106.20617788146113       97.92616989511660
C          114.02296532381540      107.60593774428214       97.31359951142028
C          113.97612756654408      108.71136567788989       98.36606764634452
C          114.08946792542947      110.10267195960115       97.74572739491197
C          113.84607276655741      111.22019975669978       98.75960936012802
C          114.16866349855543      112.59054107137756       98.16992194101657
C          113.88863480247937      113.76001092506112       99.11471388438648
C          112.40283934037036      114.08703023960710       99.24201998554695
C          112.13261968444155      115.38174816946741      100.00973212029504
C          112.50098598201876      115.28986142052680      101.48757251963094
C          112.08956472418608      116.53137056502085      102.27563893886143
C          112.36539805675554      116.35366366498607      103.76583973273762
C          111.95958419305742      117.56132938144621      104.60602035783511
C          112.13901431236597      117.28094430555880      106.09582521736584
C          111.76472353352528      118.46753791880164      106.97842457642777
C          111.90801142282034      118.13428553929089      108.46157568605801
C          111.53516838806561      119.30953871375516      109.35955167510848
C          111.72025121132809      118.99571068260643      110.84267236995044
C          111.25237802624486      120.15267808820840      111.71964346589699
C          111.50092874752363      119.93394611330173      113.21084360091609
C          110.90573567620226      121.08592894823163      114.01567244404129
C          111.10695617790164      120.99880074645881      115.52796188292244
C          112.48922750707457      121.44331273094861      116.00057404491596
C          112.50141532974858      121.72363852269069      117.50239785656325
C          113.86363900992913      122.20609309831158      117.99088170550982
C          113.86170247616444      122.58208291700765      119.47019577987014
C          115.26416734526893      122.91633950165502      119.97217280661513
C          115.26594535279528      123.42550947316433      121.41128099099946
C          116.68236990189304      123.56186371676212      121.96455822520717
C          116.70827046547733      124.23642245729607      123.33527773182414
C          118.08919218643614      124.18369581062659      124.00441106923549
C          118.20958329550155      123.11088592289842      125.08931467320177
C          117.97586583348314      121.69156703920726      124.58032046923249
C          118.24730292086034      120.64070578001531      125.65478978372744
C          117.86184563402094      119.24055916215310      125.18388303514152
C          118.15597118756513      118.17419692189965      126.23662756242440
C          117.73728096538251      116.76669283707456      125.80549906071577
C          116.22285404993775      116.62148657181758      125.67829785583638
C          115.77878313368102      115.18499435023197      125.41336820663851
C          114.28818430256446      115.07707547804168      125.08330174139819
C          113.38335617418790      115.51620274309673      126.23218269024146
C          111.90208020915988      115.39487483852277      125.87893521328091
C          110.97498309170237      115.75894593081877      127.04131193277365
C          111.08780509153736      117.22264823125664      127.46287935230716
C          110.12750843143262      117.58256827222220      128.59511353843024
C          110.38390527630534      118.97697466514386      129.17322003065900
C          110.01908503369673      120.10594349965473      128.21274765397553
C          110.31587069504626      121.48796221354868      128.79353057546629
C          109.89719453265255      122.58860565186413      127.82297315008114
C          110.25290734925944      123.99873862502366      128.28760739653094
C          109.78606016405288      125.03070132497197      127.26296936425314
C          110.27140391054618      126.44917786894736      127.55268290262455
C          109.98537209421451      127.37341922908196      126.37023013907746
C          110.62457914750345      128.75781983470819      126.50449648592547
C          110.89014268417419      129.40909551436764      125.14262504532870
C          112.09124849284230      128.77868140978859      124.43953387263927
C          112.31925692640800      129.29105942206570      123.01970714393094
C          113.48515898770783      128.54676647363897      122.37064191226804
C          113.84277892231550      129.03217976818024      120.96572418076749
C          112.74313816450447      128.85163277891411      119.91732162162579
C          112.26885944311312      127.40686907003507      119.76858758302777
C          111.41678211381560      127.21362234049728      118.51524934663817
C          110.77076643420840      125.83186242768998      118.48082838803386
C          109.85932174116628      125.60853655827627      117.27542857046009
C          110.60911409710830      125.50554678178443      115.95048964123251
C          109.70006272441151      125.02637737336400      114.82170018639496
C          110.43489715684292      124.97078806672214      113.48605472192534
C          109.59555927379151      124.33416537675200      112.38226980080772
C          110.38305864038499      124.20287537795687      111.08195605896940
C          109.58335946178582      123.51685700662711      109.97928211014933
C          110.41477930714960      123.30741535203472      108.71654584677579
C          109.60895993036809      122.64445139660782      107.60382108859208
C          110.44903261718888      122.36356642033938      106.36129339123406
C          109.60981335580587      121.77353580564170      105.23145610705454
C          110.45027833580900      121.38661919065606      104.01842449906191
C          109.59279423714491      120.86334956057672      102.86904320011867
C          110.43649969768329      120.36065675967492      101.70132717853265
C          109.58456895187929      119.87067531281008      100.53327556096230
C          110.43471545020604      119.26965493483065       99.41697455053782
C          109.59604185893994      118.76236002806073       98.24739809331444
C          110.45366910546028      118.08210019241380       97.18336113676810
C          109.62204599926056      117.56414001535722       96.01262416662924
C          110.47001594790902      116.81321142705434       94.98888808514978
C          109.61686024316157      116.20429299133042       93.88273971064935
H          111.20262355119327      117.49641553519581       94.55263106228401
H          111.02444688613443      116.01860917198090       95.49480555896420
H          108.84685670118009      116.89257904997334       96.39082103808801
H          109.11772341250892      118.40093668421113       95.52277339138983
H          111.20122060275678      118.78800837880682       96.81231839212775
H          110.98874504349978      117.24523634860805       97.63939529852148
H          108.85848227058150      118.04703662308563       98.61945659351090
H          109.04830055828367      119.59519626676858       97.79942208588299
H          111.13778694244530      120.02147760453070       99.05205971852982
H          111.01731376782017      118.43783386276094       99.82102723367325
H          108.88256036522463      119.11567931263980      100.89544940213024
H          108.99478976469129      120.70082597725391      100.13707738374427
H          111.09335872446863      121.16313791162946      101.35755342400378
H          111.06866180550796      119.53994628578870      102.04919675873444
H          108.96644542485095      120.04590421016411      103.23490901108906
H          108.92509982654745      121.65613815877590      102.52284078291773
H          111.02108791332954      122.25463881596794      103.67856610300460
H          111.16618239701877      120.61605093627728      104.31280329533320
H          109.08895803083763      120.88647883387918      105.60123059548695
H          108.84856530392268      122.49764907879555      104.93063778882993
H          110.91604600958162      123.29130051263914      106.01944141677923
H          111.25047824453394      121.66774522103729      106.61942179208542
H          109.19601735423581      121.70278135577226      107.97459803145399
H          108.76813486865400      123.28816022823464      107.33444053591944
H          110.79197488882248      124.27204093979532      108.36549841426033
H          111.28039261721756      122.68490385652115      108.95590555078087
H          109.23563094655371      122.54639583053607      110.34170510886047
H          108.70201452447682      124.11712009259828      109.74176640526818
H          110.69507500646527      125.19459683698375      110.74160641737740
H          111.28998938373748      123.62374230698065      111.27487589336698
H          109.27508966861674      123.34120350795496      112.70484748383701
H          108.69720544981615      124.93169005412193      112.21384076057271
H          110.72678900868139      125.98149845303006      113.18661169521805
H          111.35532675736414      124.39358258722868      113.61122889718936
H          109.32686028431266      124.02811010395673      115.06377417631722
H          108.83653942523132      125.69018692449580      114.73883104808671
H          111.03144141797878      126.47731420536084      115.68485758653142
H          111.43949068546574      124.80297329226993      116.06068273969809
H          109.30297807171587      124.68043465869010      117.42938318990589
H          109.12864986663767      126.41800806413231      117.21709268443381
H          111.55469369155401      125.06928366086966      118.48540470234218
H          110.18022316586375      125.70560417148825      119.39235357659119
H          110.63184039946935      127.97212140191859      118.49245360956401
H          112.04194064655140      127.35695770032855      117.63142035915257
H          113.13593588851860      126.74278342475304      119.72016374581919
H          111.68067562523753      127.12264025896550      120.64361117972908
H          111.89158961009690      129.48962986874702      120.16299577314643
H          113.13615067759075      129.19518999843925      118.95614239004051
H          114.10759275865952      130.09181031163195      121.01353652714630
H          114.73143673213944      128.48772980676708      120.63402529648312
H          114.36792326160069      128.66583979092010      123.00545395757597
H          113.25219183502253      127.48071495551203      122.33867284026306
H          111.41057137587157      129.14157873733163      122.43391904643093
H          112.52995204598044      130.36303637743177      123.03882128385321
H          112.98921941331629      128.96704546401787      125.03427199847611
H          111.95621373120935      127.69720803935977      124.38747584710173
H          110.00072570858971      129.30917966071590      124.51682032766676
H          111.07851487058041      130.47638414106817      125.28119886116615
H          109.97467923421297      129.40320838730244      127.09935209377078
H          111.57231100430977      128.67224792245352      127.04181544247371
H          110.36757883754764      126.89141331050837      125.46906552230494
H          108.90611041357396      127.47958192443595      126.24209395149225
H          109.79588904550178      126.83462754460241      128.45753440113583
H          111.34888292910443      126.42491059224399      127.73255628447652
H          110.16057715229239      124.73258037508337      126.28110980907864
H          108.69489037071989      125.02057182350430      127.21152958891284
H          109.79248100295499      124.19936243321952      129.25776525136695
H          111.33595648839596      124.07700282656427      128.41453480198902
H          110.38210608660442      122.40756135463546      126.85976783754271
H          108.81865582188072      122.52952644259706      127.66276090464119
H          109.78446763144258      121.61203600332263      129.74030670455016
H          111.38537519708196      121.56993351968414      129.00266587560651
H          110.57719102212401      119.99218030438284      127.28220971961929
H          108.95590417391104      120.03906556539346      127.96990703751860
H          109.79871629789584      119.09299671849448      130.08931104658757
H          111.43882036085391      119.06183337791860      129.44687931055509
H          109.09648812498187      117.52010422340622      128.23840208994812
H          110.24241473302669      116.84786506907975      129.39657612827239
H          112.10565214695272      117.42101779527511      127.80230845230859
H          110.88825315453373      117.85439059670287      126.59546575056017
H          109.94229053924508      115.55440550877354      126.74628181843748
H          111.20443914889061      115.11864450463617      127.89712542979495
H          111.68366279209646      116.04281619415394      125.02656750489845
H          111.69111408710714      114.36678187567979      125.57257402414409
H          113.59601106084692      114.90543588449255      127.11355231599480
H          113.60261126139842      116.55381375570424      126.47973592290084
H          114.06947558243391      115.68705524014231      124.20318417951015
H          114.05967288898314      114.04018938030997      124.82824396070833
H          116.35419868743368      114.78924908053503      124.57222358595004
H          116.00442783969714      114.56622586477934      126.28573543980876
H          115.76269109260048      116.98026499858035      126.60091340336581
H          115.86825994529976      117.24851211397363      124.85850060122628
H          118.20888622245047      116.52362367553944      124.85074388793763
H          118.10086868806542      116.04962870237206      126.54681624901127
H          119.22835900488379      118.17571111637373      126.45194189823461
H          117.63878342497755      118.43253563777341      127.16482238213040
H          116.79768093671056      119.23895640203561      124.94465596442221
H          118.40613632982488      119.00125946378463      124.26739957725295
H          119.30635384794613      120.66198104418994      125.92551374435411
H          117.67588337103686      120.88522227116133      126.55438857354518
H          116.94348779731732      121.58952991153920      124.24078802341626
H          118.62914977358267      121.50590352149668      123.72509329392331
H          119.21061388137963      123.16951251149176      125.52578767261974
H          117.49546340049672      123.32980923009401      125.88831792812263
H          118.85349960081012      124.01052878425141      123.24312583757242
H          118.30729652584647      125.14912149670535      124.46721485828451
H          116.39991786123848      125.27713421903334      123.21080299296241
H          115.97251051931320      123.76274898392862      123.98680796665616
H          117.13077463635214      122.56919546016709      122.03321096361277
H          117.28896331603747      124.14966129946305      121.26976710274482
H          114.76178446046190      124.39424410450835      121.45369438463844
H          114.70027290636455      122.73521978388671      122.04205077365660
H          115.89221743025784      122.02405877172319      119.90570397945777
H          115.70726578216113      123.67625701179537      119.32324956054792
H          113.20668215465761      123.44289679484181      119.62493212183429
H          113.45540083859092      121.75471910538985      120.05792119708778
H          114.60557088385274      121.42119091003154      117.82371564385319
H          114.17032509459864      123.07517272828758      117.40323849577146
H          111.75152027943973      122.48630803884221      117.72702571783894
H          112.21966766339993      120.81798665091644      118.04493723300601
H          113.23260586495171      120.67824327915297      115.76402078444681
H          112.77467656563114      122.35634006120455      115.47004825627245
H          110.36908411512746      121.64716012189230      116.00473247232114
H          110.91680879711630      119.97822252090455      115.86771958412643
H          111.32963990761151      122.02639275882032      113.65581034667696
H          109.83333495172118      121.11374344446658      113.81165873490855
H          111.04267000045851      118.99303765928792      113.52524943128466
H          112.57377575039615      119.85233955357708      113.39914495749053
H          111.76104358014233      121.06808384373436      111.40637120956760
H          110.18217333047140      120.30585060168809      111.55912524648858
H          111.15277859488513      118.09656109801294      111.09603132811145
H          112.77330656899923      118.78236528763712      111.04117892463718
H          112.15265525334642      120.17341037857716      109.09611580100615
H          110.49428378935684      119.58761826284196      109.17668767058976
H          111.26484641712653      117.28278861762522      108.70069783845487
H          112.93848990960041      117.83406199513523      108.66572458969266
H          112.41130679428534      119.31582798699532      106.73551063757162
H          110.73500101679738      118.76860937782411      106.77000493111868
H          111.51950878062455      116.42253948260532      106.37092025426563
H          113.18030979539813      117.00987342135147      106.28590252837145
H          112.56921781121122      118.42361438478969      104.32071984254274
H          110.91511372416306      117.81353313940147      104.40522761821376
H          111.82106214465790      115.47439019407832      104.12151458707739
H          113.43117452158681      116.16134630097901      103.91107695912713
H          112.63882100654592      117.40008810731601      101.90062771524553
H          111.02394942067025      116.72413178206173      102.12381330743675
H          112.01085423879360      114.41458181904396      101.92214731351244
H          113.57851975144267      115.14879825339587      101.58729526974734
H          112.69007903190148      116.20069239857324       99.54544725510209
H          111.06855089729440      115.62243111991133       99.92533298025505
H          111.98226189067046      114.18603541762737       98.23757532856494
H          111.88502585835390      113.26387988944998       99.73923370269658
H          114.30403751825435      113.53293941852881      100.09767664151019
H          114.40107964490166      114.64589715032477       98.73292146104318
H          115.22709475273086      112.60339407552085       97.90012707523509
H          113.59481878058109      112.72955156127063       97.24984704525279
H          112.80352665000412      111.19253274556081       99.08223898533740
H          114.46944411604591      111.05394592932656       99.64079874468807
H          115.08640586239713      110.21853173601198       97.31237573032249
H          113.36766641162565      110.19685245879732       96.92978422747595
H          113.03555891182619      108.63656637899291       98.91898398651348
H          114.78897673871465      108.57018836092426       99.08141884022530
H          114.92991038148928      107.71515112290784       96.71374698393711
H          113.17021771017477      107.72550265384706       96.64014028402221
H          113.14711271156520      106.13549457871954       98.62107888705975
H          114.90364042691378      106.04175760697366       98.50087290407804
H          114.65132744724556      105.23009778920039       96.12742091672499
H          112.90029167239454      105.25287575969176       96.33868558659965
H          113.12781150624100      103.60669607304112       98.21068346091705
H          114.86543033599423      103.53807104362842       97.91805158098028
H          114.43138917060939      102.74833880790631       95.59130162887993
H          112.69573153882104      102.81383086380093       95.89672620848222
H          112.96070071583938      101.12271080402117       97.71239252487864
H          114.69025495472161      101.04680681845062       97.38269069631495
H          114.19456493305320      100.31996643525000       95.04943828191790
H          112.47245122859552      100.31938037598533       95.41548521923706
H          114.46245989671959       98.66829476323475       97.01773390480356
H          113.76084200131871       98.07177445707353       95.51388928112938
H          111.49229992007952       98.24930001600653       96.47570033412053
H          112.16566408434953       98.86915218959693       97.98352540775258
H          113.49097910256792       96.76274711122674       98.24150919727019
H          112.82801501058064       96.17676433591994       96.71956930372993
H          111.56938577366930       95.06957894500329       98.34296219953838
H          110.50272430521639       96.36231591986616       97.80438476514641
H          111.03908113156051       97.67491654209228       99.82235351453180
H          112.24543860306061       96.47885309943932      100.30797182388788
H          110.41822983949127       94.74310898994095      100.37327121005033
H          109.24039909042156       96.01375637347192      100.08061742414451
H          111.13282178232062       95.79849024283332      102.46411509952213
H          109.42021741856763       95.38557355169534      102.46938921144218
H          110.59334039063457       98.17166894893836      102.07109133714363
H          109.83914535332249       97.54731634818819      103.53323133560984
H          107.68538607116557       97.26639364218332      102.27655707106621
H          108.44898280888094       97.98153494248726      100.85589491856352
H          108.95760927021833      100.03670609822615      102.20391413449323
H          108.03715146438661       99.35270605788419      103.54392700371817
H          105.99084193479203       99.32973002266679      102.17258267645865
H          106.90363399333704       99.84402068898913      100.75647376804520
H          107.51059015109897      101.96395903182552      101.92681155347215
H          106.52226210304225      101.47580027911840      103.30539119667709
H          104.50151224444818      101.46491460607356      101.86811573917456
H          105.48460421427430      101.85751798336592      100.46084220794793
H          106.16326773254278      104.00056807618189      101.52005130466769
H          105.17250850042191      103.62378640434325      102.92975552981861
H          103.13420604236435      103.62431973472469      101.51405756721593
H          104.11367086637831      103.93053549710697      100.08293510925047
H          104.86812795926431      106.08977029294121      101.04081454750546
H          103.91116297772597      105.79382957266006      102.49151589148130
H          101.83111557294920      105.80376528514672      101.14252539314306
H          102.77078949222957      106.02532943996201       99.66991699297306
H          103.60985477216150      108.19950584480837      100.50548665417557
H          102.71038794137306      107.98580484707175      102.00799671270629
H          100.57458442829598      107.98886377899217      100.74111168053807
H          101.46182169318736      108.14590252153798       99.22816614100746
H          102.37521062459173      110.32727077014368       99.96811118951035
H          101.52433852363319      110.17708731347884      101.50543091042060
H           99.34562754448280      110.17828971355407      100.31119923901375
H          100.18239119709976      110.28286958819722       98.76606279679977
H          101.15403561270666      112.46797615166827       99.42056463520339
H          100.35215467437052      112.36934300146339      100.98730131001399
H           98.13833063990107      112.39180244634579       99.87658144228945
H           98.91342100448081      112.41192072614243       98.29553156191820
H           99.94357601053228      114.59922313955363       98.79076778933566
H           99.25959874815278      114.57903977669844      100.41502846063062
H           96.96978221140728      114.61363464774489       99.47611918505424
H           97.62054249464191      114.56103919286242       97.84050752617932
H           98.73432444336341      116.73732343752749       98.17818744044845
H           98.17971759983824      116.78661865532642       99.85119453232502
H           95.82599700135214      116.85211681546511       99.09530867408945
H           96.34218644965812      116.73159422231952       97.41583587013980
H           97.52500125964927      118.89198388975431       97.59029607281977
H           97.11200428605558      119.00781047828444       99.29835821526164
H           94.69985394235185      119.08288803091025       98.73030088266914
H           95.08470438998796      118.92025817779377       97.01893419321604
H           96.31582543854574      121.06670599911446       97.06966969427884
H           96.00291629009608      121.22420645520062       98.79598634127100
H           94.39968750776990      122.59127343454969       97.48126881458271
H           93.85830533693543      121.15061814192009       96.61881109014377
H           93.54861003308689      121.31134545938792       98.34704240713324
H          110.23971250484124      115.68291427250904       93.15938813016450
H          108.90715701302260      115.49282817839408       94.29982283795752
H          109.05763705863225      116.97821407747935       93.36117818833662
C          114.46340049387533      127.23579980844390      127.78318377450147
C          115.30324576591244      126.12982863819116      127.15571043776224
C          114.47002168686036      124.95141387479551      126.65292677860516
C          113.57686829167569      125.29990332569966      125.46480203578821
C          112.91662936160438      124.06012990956428      124.86795286456800
C          112.05903804159188      124.38254034933854      123.64720760454232
C          111.48910150863080      123.12600702844513      122.99329953008291
C          110.66300325435019      123.44912766865083      121.75217304257303
C          110.10522113179645      122.19969166753992      121.07458288032279
C          109.24511400980630      122.55563518276496      119.86503547961541
C          108.73699681613844      121.33053278615058      119.10996276964784
C          107.94702918596714      121.71143849967909      117.85858670833454
C          107.64500405267586      120.50666282496600      116.96896330629727
C          107.17115052076545      120.90426932171492      115.57129738992232
C          107.22158136769643      119.73416606230079      114.59068464571607
C          106.97850937395242      120.16510422864829      113.14528669661335
C          107.24502559547740      119.03097985297237      112.15810542843073
C          107.11598645946908      119.46882717234027      110.70048571657104
C          107.47961370505080      118.34156395324749      109.73730700594606
C          107.34576073705028      118.74303323531541      108.26986587690496
C          107.69406234613476      117.58708436079212      107.33458040309571