      -----------------------------------------------------------      
     |                   =====================                   |     
     |                           x T B                           |     
     |                   =====================                   |     
     |                         S. Grimme                         |     
     |          Mulliken Center for Theoretical Chemistry        |     
     |                    University of Bonn                     |     
      -----------------------------------------------------------      

   * xtb version 6.6.1 (8d0f1dd) compiled by 'stahn@M-Bot' on 2023-08-01

   xtb is free software: you can redistribute it and/or modify it under
   the terms of the GNU Lesser General Public License as published by
   the Free Software Foundation, either version 3 of the License, or
   (at your option) any later version.
   
   xtb is distributed in the hope that it will be useful,
   but WITHOUT ANY WARRANTY; without even the implied warranty of
   MERCHANTABILITY or FITNESS FOR A PARTICULAR PURPOSE.  See the
   GNU Lesser General Public License for more details.
   
   Cite this work as:
   * C. Bannwarth, E. Caldeweyher, S. Ehlert, A. Hansen, P. Pracht,
     J. Seibert, S. Spicher, S. Grimme, WIREs Comput. Mol. Sci., 2020, 11,
     e01493. DOI: 10.1002/wcms.1493
   
   for GFN2-xTB:
   * C. Bannwarth, S. Ehlert and S. Grimme., J. Chem. Theory Comput., 2019,
     15, 1652-1671. DOI: 10.1021/acs.jctc.8b01176
   for GFN1-xTB:
   * S. Grimme, C. Bannwarth, P. Shushkov, J. Chem. Theory Comput., 2017,
     13, 1989-2009. DOI: 10.1021/acs.jctc.7b00118
   for GFN0-xTB:
   * P. Pracht, E. Caldeweyher, S. Ehlert, S. Grimme, ChemRxiv, 2019, preprint.
     DOI: 10.26434/chemrxiv.8326202.v1
   for GFN-FF:
   * S. Spicher and S. Grimme, Angew. Chem. Int. Ed., 2020, 59, 15665-15673.
     DOI: 10.1002/anie.202004239
   
   for ALPB and GBSA implicit solvation:
   * S. Ehlert, M. Stahn, S. Spicher, S. Grimme, J. Chem. Theory Comput.,
     2021, 17, 4250-4261. DOI: 10.1021/acs.jctc.1c00471
   
   for DFT-D4:
   * E. Caldeweyher, C. Bannwarth and S. Grimme, J. Chem. Phys., 2017,
     147, 034112. DOI: 10.1063/1.4993215
   * E. Caldeweyher, S. Ehlert, A. Hansen, H. Neugebauer, S. Spicher,
     C. Bannwarth and S. Grimme, J. Chem. Phys., 2019, 150, 154122.
     DOI: 10.1063/1.5090222
   * E. Caldeweyher, J.-M. Mewes, S. Ehlert and S. Grimme, Phys. Chem. Chem. Phys.
     2020, 22, 8499-8512. DOI: 10.1039/D0CP00502A
   
   for sTDA-xTB:
   * S. Grimme and C. Bannwarth, J. Chem. Phys., 2016, 145, 054103.
     DOI: 10.1063/1.4959605
   
   in the mass-spec context:
   * V. Asgeirsson, C. Bauer and S. Grimme, Chem. Sci., 2017, 8, 4879.
     DOI: 10.1039/c7sc00601b
   * J. Koopman and S. Grimme, ACS Omega 2019, 4, 12, 15120-15133.
     DOI: 10.1021/acsomega.9b02011
   
   for metadynamics refer to:
   * S. Grimme, J. Chem. Theory Comput., 2019, 155, 2847-2862
     DOI: 10.1021/acs.jctc.9b00143
   
   for SPH calculations refer to:
   * S. Spicher and S. Grimme, J. Chem. Theory Comput., 2021, 17, 1701-1714
     DOI: 10.1021/acs.jctc.0c01306
   
   with help from (in alphabetical order)
   P. Atkinson, C. Bannwarth, F. Bohle, G. Brandenburg, E. Caldeweyher
   M. Checinski, S. Dohm, S. Ehlert, S. Ehrlich, I. Gerasimov, C. Hölzer
   A. Katbashev, J. Koopman, C. Lavigne, S. Lehtola, F. März, M. Müller,
   F. Musil, H. Neugebauer, J. Pisarek, C. Plett, P. Pracht, F. Pultar,
   J. Seibert, P. Shushkov, S. Spicher, M. Stahn, M. Steiner, T. Strunk,
   J. Stückrath, T. Rose, and J. Unsleber
   
 * started run on 2024/06/17 at 15:18:46.151     

           -------------------------------------------------
          |                Calculation Setup                |
           -------------------------------------------------

          program call               : /home/abt-grimme/AK-bin/xtb input.xyz --input input.inp --opt --gbsa water
          hostname                   : boar031.thch.uni-bonn.de
          coordinate file            : input.xyz
          omp threads                :                     8

   ID    Z sym.   atoms
    1    6 C      1-120, 363-482, 725-844, 1087-1206, 1449-1568, 1811-1930,
                  2173-2292, 2535-2654, 2897-3016
    2    1 H      121-362, 483-724, 845-1086, 1207-1448, 1569-1810,
                  1931-2172, 2293-2534, 2655-2896, 3017-3258

molecular fragmentation (1/2 indicates fragments):
111111111111111111111111111111111111111111111111111111111111111111111111
111111111111111111111111111111111111111111111111111111111111111111111111
111111111111111111111111111111111111111111111111111111111111111111111111
111111111111111111111111111111111111111111111111111111111111111111111111
111111111111111111111111111111111111111111111111111111111111111111111111
112222222222222222222222222222222222222222222222222222222222222222222222
222222222222222222222222222222222222222222222222222222222222222222222222
222222222222222222222222222222222222222222222222222222222222222222222222
222222222222222222222222222222222222222222222222222222222222222222222222
222222222222222222222222222222222222222222222222222222222222222222222222
222222222222222222222222222222222222222222222222222222222222222222222222
222222222222222222222222222222222222222222222222222222222222222222222222
222222222222222222222222222222222222222222222222222222222222222222222222
222222222222222222222222222222222222222222222222222222222222222222222222
222222222222222222222222222222222222222222222222222222222222222222222222
222222222222222222222222222222222222222222222222222222222222222222222222
222222222222222222222222222222222222222222222222222222222222222222222222
222222222222222222222222222222222222222222222222222222222222222222222222
222222222222222222222222222222222222222222222222222222222222222222222222
222222222222222222222222222222222222222222222222222222222222222222222222
222222222222222222222222222222222222222222222222222222222222222222222222
222222222222222222222222222222222222222222222222222222222222222222222222
222222222222222222222222222222222222222222222222222222222222222222222222
222222222222222222222222222222222222222222222222222222222222222222222222
222222222222222222222222222222222222222222222222222222222222222222222222
222222222222222222222222222222222222222222222222222222222222222222222222
222222222222222222222222222222222222222222222222222222222222222222222222
222222222222222222222222222222222222222222222222222222222222222222222222
222222222222222222222222222222222222222222222222222222222222222222222222
222222222222222222222222222222222222222222222222222222222222222222222222
222222222222222222222222222222222222222222222222222222222222222222222222
222222222222222222222222222222222222222222222222222222222222222222222222
222222222222222222222222222222222222222222222222222222222222222222222222
222222222222222222222222222222222222222222222222222222222222222222222222
222222222222222222222222222222222222222222222222222222222222222222222222
222222222222222222222222222222222222222222222222222222222222222222222222
222222222222222222222222222222222222222222222222222222222222222222222222
222222222222222222222222222222222222222222222222222222222222222222222222
222222222222222222222222222222222222222222222222222222222222222222222222
222222222222222222222222222222222222222222222222222222222222222222222222
222222222222222222222222222222222222222222222222222222222222222222222222
222222222222222222222222222222222222222222222222222222222222222222222222
222222222222222222222222222222222222222222222222222222222222222222222222
222222222222222222222222222222222222222222222222222222222222222222222222
222222222222222222222222222222222222222222222222222222222222222222222222
222222222222222222
# atoms in fragment 1/2:   362  2896
 fragment masses (1/2) :     1685.21    13481.68
CMA distance (Bohr)    :   9.807
constraining FC (au)   :  0.0500

           -------------------------------------------------
          |                 G F N 2 - x T B                 |
           -------------------------------------------------

        Reference                      10.1021/acs.jctc.8b01176
      * Hamiltonian:
        H0-scaling (s, p, d)           1.850000    2.230000    2.230000
        zeta-weighting                 0.500000
      * Dispersion:
        s8                             2.700000
        a1                             0.520000
        a2                             5.000000
        s9                             5.000000
      * Repulsion:
        kExp                           1.500000    1.000000
        rExp                           1.000000
      * Coulomb:
        alpha                          2.000000
        third order                    shell-resolved
        anisotropic                    true
        a3                             3.000000
        a5                             4.000000
        cn-shift                       1.200000
        cn-exp                         4.000000
        max-rad                        5.000000

      * Solvation model:               GBSA
        Solvent                        water
        Parameter file                 internal GFN2-xTB/GBSA
        Dielectric constant                8.0200E+01
        Reference state                gsolv [1 M gas/solution]
        Free energy shift                  1.8574E-03 Eh       1.1656E+00 kcal/mol
        Temperature                        2.9815E+02 K
        Density                            1.0000E+00 kg/L
        Solvent mass                       1.8000E+01 g/mol
        Interaction kernel             Still
        Born radius scaling (c1)           1.5524E+00
        Born radii integrator          GBOBC
        Born offset                        2.4628E-02 a0       4.6540E-02 AA
        H-bond correction              true
        Ion screening                  false
        Surface tension                    1.0000E-05 Eh       1.5569E+01 dyn/cm
        Grid points                               230 per atom
q/qsh data taken from xtbrestart
CAMM data taken from xtbrestart

          ...................................................
          :                      SETUP                      :
          :.................................................:
          :  # basis functions                6498          :
          :  # atomic orbitals                6498          :
          :  # shells                         4338          :
          :  # electrons                      6498          :
          :  max. iterations                   250          :
          :  Hamiltonian                  GFN2-xTB          :
          :  restarted?                       true          :
          :  GBSA solvation                   true          :
          :  PC potential                    false          :
          :  electronic temp.          300.0000000     K    :
          :  accuracy                    1.0000000          :
          :  -> integral cutoff          0.2500000E+02      :
          :  -> integral neglect         0.1000000E-07      :
          :  -> SCF convergence          0.1000000E-05 Eh   :
          :  -> wf. convergence          0.1000000E-03 e    :
          :  Broyden damping             0.4000000          :
          ...................................................

 iter      E             dE          RMSdq      gap      omega  full diag
   1  -3472.4150750 -0.347242E+04  0.720E-05   10.30       0.0  T
   2  -3472.4150750 -0.338832E-08  0.558E-05   10.30      31.4  T
   3  -3472.4150750 -0.463615E-08  0.283E-05   10.30      61.8  T

   *** convergence criteria satisfied after 3 iterations ***

         #    Occupation            Energy/Eh            Energy/eV
      -------------------------------------------------------------
         1        2.0000           -0.6161369             -16.7659
       ...           ...                  ...                  ...
      3243        2.0000           -0.3824195             -10.4062
      3244        2.0000           -0.3818584             -10.3909
      3245        2.0000           -0.3814021             -10.3785
      3246        2.0000           -0.3811583             -10.3718
      3247        2.0000           -0.3803848             -10.3508
      3248        2.0000           -0.3780388             -10.2870
      3249        2.0000           -0.3748351             -10.1998 (HOMO)
      3250                          0.0036417               0.0991 (LUMO)
      3251                          0.0116118               0.3160
      3252                          0.0141717               0.3856
      3253                          0.0168163               0.4576
      3254                          0.0174545               0.4750
       ...                                ...                  ...
      6498                          0.4059476              11.0464
      -------------------------------------------------------------
                  HL-Gap            0.3784768 Eh           10.2989 eV
             Fermi-level           -0.1855967 Eh           -5.0503 eV

 SCC (total)                   0 d,  0 h,  7 min, 14.189 sec
 SCC setup                      ...        0 min,  1.653 sec (  0.381%)
 Dispersion                     ...        0 min,  3.608 sec (  0.831%)
 classical contributions        ...        0 min,  0.134 sec (  0.031%)
 integral evaluation            ...        0 min,  5.980 sec (  1.377%)
 iterations                     ...        3 min,  5.066 sec ( 42.623%)
 molecular gradient             ...        3 min, 49.451 sec ( 52.846%)
 printout                       ...        0 min,  8.298 sec (  1.911%)

         :::::::::::::::::::::::::::::::::::::::::::::::::::::
         ::                     SUMMARY                     ::
         :::::::::::::::::::::::::::::::::::::::::::::::::::::
         :: total energy           -3426.890793253003 Eh    ::
         :: total w/o Gsasa/hb     -3426.799445733388 Eh    ::
         :: gradient norm              0.636582753367 Eh/a0 ::
         :: HOMO-LUMO gap             10.298878166616 eV    ::
         ::.................................................::
         :: SCC energy             -3472.415075007899 Eh    ::
         :: -> isotropic ES            0.280435317253 Eh    ::
         :: -> anisotropic ES          1.280665996468 Eh    ::
         :: -> anisotropic XC          2.132642260811 Eh    ::
         :: -> dispersion             -4.335849020899 Eh    ::
         :: -> Gsolv                  -0.029619848773 Eh    ::
         ::    -> Gelec                0.061727670841 Eh    ::
         ::    -> Gsasa               -0.089328643966 Eh    ::
         ::    -> Ghb                 -0.003876318775 Eh    ::
         ::    -> Gshift               0.001857443127 Eh    ::
         :: repulsion energy          44.792327645236 Eh    ::
         :: add. restraining           0.000000000000 Eh    ::
         :: total charge              -0.000000000015 e     ::
         :::::::::::::::::::::::::::::::::::::::::::::::::::::

      ----------------------------------------------------------- 
     |              Fast Inertial Relaxation Engine              |
      ----------------------------------------------------------- 

          ...................................................
          :                      SETUP                      :
          :.................................................:
          :   energy convergence        0.5000000E-05 Eh    :
          :   grad. convergence         0.1000000E-02 Eh/a0 :
          :   optimization log               true           :
          :   writing optlog all                1     steps :
          :   Hessian reset                    20     steps :
          :   time step scaling                 5     steps :
          :   maximium step len.        1.0000000     a0    :
          :   initial time step         0.2500000     fs    :
          :   maximum time step         1.2500000     fs    :
          :   power reset thr           0.0000000     au    :
          :   alpha parameter           0.1000000           :
          :   BFGS update                   false           :
          :   preconditioning               false           :
          ...................................................

........................................................................
.............................. CYCLE    1 ..............................
........................................................................

 iter      E             dE          RMSdq      gap      omega  full diag
   1  -3472.6511316 -0.347265E+04  0.752E-03   10.34       0.0  T
   2  -3472.6511767 -0.450713E-04  0.394E-03   10.34       1.0  T
   3  -3472.6511771 -0.443595E-06  0.184E-03   10.34       1.0  T
   4  -3472.6511773 -0.172239E-06  0.236E-04   10.34       7.4  T
   5  -3472.6511773 -0.441287E-07  0.155E-04   10.34      11.3  T
     SCC iter.                  ...        4 min, 57.496 sec
     gradient                   ...        3 min, 49.033 sec
 * total energy  : -3426.9369487 Eh     change    :  -0.4615541E-01 Eh
   gradient norm :     0.6024079 Eh/a0  converged?    E=F G=F D=F
   time step     :     0.2500000 fs     power     :   0.2381133E-05
   step length   :     0.0746061 a0     speed     :   0.7218545E-02

........................................................................
.............................. CYCLE    2 ..............................
........................................................................

 iter      E             dE          RMSdq      gap      omega  full diag
   1  -3472.9987601 -0.347300E+04  0.110E-02   10.40       0.0  T
   2  -3472.9988562 -0.961630E-04  0.577E-03   10.40       1.0  T
   3  -3472.9988573 -0.102133E-05  0.268E-03   10.40       1.0  T
   4  -3472.9988577 -0.416446E-06  0.363E-04   10.40       4.8  T
   5  -3472.9988578 -0.103325E-06  0.245E-04   10.40       7.1  T
     SCC iter.                  ...        5 min,  1.211 sec
     gradient                   ...        3 min, 48.783 sec
 * total energy  : -3427.0003248 Eh     change    :  -0.6337614E-01 Eh
   gradient norm :     0.5529479 Eh/a0  converged?    E=F G=F D=F
   time step     :     0.2500000 fs     power     :   0.3215127E-05
   step length   :     0.1098587 a0     speed     :   0.1062942E-01

........................................................................
.............................. CYCLE    3 ..............................
........................................................................

 iter      E             dE          RMSdq      gap      omega  full diag
   1  -3473.4487191 -0.347345E+04  0.141E-02   10.47       0.0  T
   2  -3473.4488752 -0.156038E-03  0.738E-03   10.47       1.0  T
   3  -3473.4488769 -0.175753E-05  0.342E-03   10.47       1.0  T
   4  -3473.4488776 -0.708791E-06  0.475E-04   10.47       3.7  T
   5  -3473.4488778 -0.172369E-06  0.322E-04   10.47       5.4  T
     SCC iter.                  ...        4 min, 56.397 sec
     gradient                   ...        3 min, 48.505 sec
 * total energy  : -3427.0742704 Eh     change    :  -0.7394556E-01 Eh
   gradient norm :     0.4913095 Eh/a0  converged?    E=F G=F D=F
   time step     :     0.2500000 fs     power     :   0.3678208E-05
   step length   :     0.1421752 a0     speed     :   0.1375621E-01

........................................................................
.............................. CYCLE    4 ..............................
........................................................................

 iter      E             dE          RMSdq      gap      omega  full diag
   1  -3473.9892951 -0.347399E+04  0.167E-02   10.56       0.0  T
   2  -3473.9895096 -0.214494E-03  0.873E-03   10.56       1.0  T
   3  -3473.9895122 -0.259805E-05  0.400E-03   10.56       1.0  T
   4  -3473.9895132 -0.101199E-05  0.574E-04   10.56       3.1  T
   5  -3473.9895135 -0.239852E-06  0.387E-04   10.56       4.5  T
   6  -3473.9895136 -0.159027E-06  0.183E-04   10.56       9.6  T
     SCC iter.                  ...        5 min, 57.132 sec
     gradient                   ...        3 min, 48.906 sec
 * total energy  : -3427.1513293 Eh     change    :  -0.7705897E-01 Eh
   gradient norm :     0.4222313 Eh/a0  converged?    E=F G=F D=F
   time step     :     0.2500000 fs     power     :   0.3742769E-05
   step length   :     0.1707099 a0     speed     :   0.1651710E-01

........................................................................
.............................. CYCLE    5 ..............................
........................................................................

 iter      E             dE          RMSdq      gap      omega  full diag
   1  -3474.6064469 -0.347461E+04  0.186E-02   10.65       0.0  T
   2  -3474.6067073 -0.260398E-03  0.975E-03   10.65       1.0  T
   3  -3474.6067107 -0.340418E-05  0.440E-03   10.65       1.0  T
   4  -3474.6067119 -0.121464E-05  0.643E-04   10.65       2.7  T
   5  -3474.6067122 -0.280721E-06  0.425E-04   10.65       4.1  T
   6  -3474.6067123 -0.169073E-06  0.191E-04   10.65       9.2  T
     SCC iter.                  ...        5 min, 54.936 sec
     gradient                   ...        3 min, 48.420 sec
 * total energy  : -3427.2243160 Eh     change    :  -0.7298666E-01 Eh
   gradient norm :     0.3522059 Eh/a0  converged?    E=F G=F D=F
   time step     :     0.2500000 fs     power     :   0.3436722E-05
   step length   :     0.1947375 a0     speed     :   0.1884190E-01

........................................................................
.............................. CYCLE    6 ..............................
........................................................................

 iter      E             dE          RMSdq      gap      omega  full diag
   1  -3475.3575650 -0.347536E+04  0.221E-02   10.69       0.0  T
   2  -3475.3579124 -0.347490E-03  0.115E-02   10.69       1.0  T
   3  -3475.3579177 -0.522205E-05  0.507E-03   10.69       1.0  T
   4  -3475.3579194 -0.170068E-05  0.779E-04   10.69       2.2  T
   5  -3475.3579197 -0.366103E-06  0.506E-04   10.69       3.5  T
   6  -3475.3579199 -0.212322E-06  0.213E-04   10.68       8.2  T
     SCC iter.                  ...        5 min, 50.224 sec
     gradient                   ...        3 min, 48.544 sec
 * total energy  : -3427.2933505 Eh     change    :  -0.6903453E-01 Eh
   gradient norm :     0.2855213 Eh/a0  converged?    E=F G=F D=F
   time step     :     0.2750000 fs     power     :   0.2773267E-05
   step length   :     0.2370818 a0     speed     :   0.2085358E-01

........................................................................
.............................. CYCLE    7 ..............................
........................................................................

 iter      E             dE          RMSdq      gap      omega  full diag
   1  -3476.2365920 -0.347624E+04  0.251E-02   10.69       0.0  T
   2  -3476.2369978 -0.405751E-03  0.132E-02   10.69       1.0  T
   3  -3476.2370054 -0.762968E-05  0.549E-03   10.69       1.0  T
   4  -3476.2370076 -0.219462E-05  0.914E-04   10.68       1.9  T
   5  -3476.2370080 -0.418859E-06  0.581E-04   10.68       3.0  T
   6  -3476.2370082 -0.239656E-06  0.224E-04   10.68       7.8  T
     SCC iter.                  ...        5 min, 52.713 sec
     gradient                   ...        3 min, 49.757 sec
 * total energy  : -3427.3502641 Eh     change    :  -0.5691360E-01 Eh
   gradient norm :     0.2427242 Eh/a0  converged?    E=F G=F D=F
   time step     :     0.3025000 fs     power     :   0.1855376E-05
   step length   :     0.2789606 a0     speed     :   0.2230656E-01

........................................................................
.............................. CYCLE    8 ..............................
........................................................................

 iter      E             dE          RMSdq      gap      omega  full diag
   1  -3477.2058271 -0.347721E+04  0.274E-02   10.69       0.0  T
   2  -3477.2062122 -0.385034E-03  0.146E-02   10.68       1.0  T
   3  -3477.2062225 -0.103170E-04  0.539E-03   10.68       1.0  T
   4  -3477.2062249 -0.243588E-05  0.102E-03   10.68       1.7  T
   5  -3477.2062253 -0.380625E-06  0.626E-04   10.68       2.8  T
   6  -3477.2062255 -0.219136E-06  0.207E-04   10.68       8.5  T
     SCC iter.                  ...        5 min, 54.688 sec
     gradient                   ...        3 min, 49.000 sec
 * total energy  : -3427.3897573 Eh     change    :  -0.3949320E-01 Eh
   gradient norm :     0.2386010 Eh/a0  converged?    E=F G=F D=F
   time step     :     0.3327500 fs     power     :   0.9327668E-06
   step length   :     0.3142863 a0     speed     :   0.2284665E-01

........................................................................
.............................. CYCLE    9 ..............................
........................................................................

 iter      E             dE          RMSdq      gap      omega  full diag
   1  -3478.1877488 -0.347819E+04  0.294E-02   10.68       0.0  T
   2  -3478.1880199 -0.271049E-03  0.161E-02   10.68       1.0  T
   3  -3478.1880324 -0.125543E-04  0.449E-03   10.68       1.0  T
   4  -3478.1880346 -0.215517E-05  0.106E-03   10.68       1.6  T
   5  -3478.1880348 -0.241266E-06  0.615E-04   10.68       2.8  T
   6  -3478.1880350 -0.150172E-06  0.159E-04   10.68      11.0  T
     SCC iter.                  ...        5 min, 57.119 sec
     gradient                   ...        3 min, 47.327 sec
 * total energy  : -3427.4126901 Eh     change    :  -0.2293274E-01 Eh
   gradient norm :     0.2528177 Eh/a0  converged?    E=F G=F D=F
   time step     :     0.3660250 fs     power     :   0.2650554E-06
   step length   :     0.3374222 a0     speed     :   0.2229862E-01

........................................................................
.............................. CYCLE   10 ..............................
........................................................................

 iter      E             dE          RMSdq      gap      omega  full diag
   1  -3479.0879304 -0.347909E+04  0.320E-02   10.68       0.0  T
   2  -3479.0880569 -0.126547E-03  0.182E-02   10.67       1.0  T
   3  -3479.0880705 -0.136401E-04  0.283E-03   10.67       1.0  T
   4  -3479.0880721 -0.153306E-05  0.106E-03   10.67       1.7  T
   5  -3479.0880722 -0.769928E-07  0.529E-04   10.67       3.3  T
   6  -3479.0880722 -0.779896E-07  0.871E-05   10.67      20.1  T
     SCC iter.                  ...        5 min, 55.211 sec
     gradient                   ...        3 min, 49.683 sec
 * total energy  : -3427.4238159 Eh     change    :  -0.1112586E-01 Eh
   gradient norm :     0.2514655 Eh/a0  converged?    E=F G=F D=F
   time step     :     0.4026275 fs     power     :  -0.1266647E-06
   step length   :     0.3497363 a0     speed     :   0.2101127E-01

........................................................................
.............................. CYCLE   11 ..............................
........................................................................
 * reset velocities

 iter      E             dE          RMSdq      gap      omega  full diag
   1  -3479.0705999 -0.347907E+04  0.120E-03   10.67       0.0  T
   2  -3479.0706007 -0.788054E-06  0.686E-04   10.67       2.6  T
   3  -3479.0706007 -0.437922E-08  0.266E-04   10.67       6.6  T
     SCC iter.                  ...        2 min, 57.421 sec
     gradient                   ...        3 min, 47.717 sec
 * total energy  : -3427.4261843 Eh     change    :  -0.2368328E-02 Eh
   gradient norm :     0.2442680 Eh/a0  converged?    E=F G=F D=F
   time step     :     0.2013138 fs     power     :   0.1538427E-06
   step length   :     0.0095551 a0     speed     :   0.1148092E-02

........................................................................
.............................. CYCLE   12 ..............................
........................................................................

 iter      E             dE          RMSdq      gap      omega  full diag
   1  -3479.0360986 -0.347904E+04  0.236E-03   10.67       0.0  T
   2  -3479.0361017 -0.304763E-05  0.135E-03   10.67       1.3  T
   3  -3479.0361017 -0.184282E-07  0.523E-04   10.67       3.4  T
   4  -3479.0361017 -0.948285E-08  0.461E-05   10.67      38.0  T
     SCC iter.                  ...        3 min, 56.157 sec
     gradient                   ...        3 min, 48.939 sec
 * total energy  : -3427.4306525 Eh     change    :  -0.4468259E-02 Eh
   gradient norm :     0.2301643 Eh/a0  converged?    E=F G=F D=F
   time step     :     0.2013138 fs     power     :   0.2857467E-06
   step length   :     0.0188366 a0     speed     :   0.2263315E-02

........................................................................
.............................. CYCLE   13 ..............................
........................................................................

 iter      E             dE          RMSdq      gap      omega  full diag
   1  -3478.9854478 -0.347899E+04  0.346E-03   10.67       0.0  T
   2  -3478.9854544 -0.659723E-05  0.198E-03   10.67       1.0  T
   3  -3478.9854544 -0.480541E-07  0.771E-04   10.67       2.3  T
   4  -3478.9854545 -0.269911E-07  0.794E-05   10.67      22.1  T
     SCC iter.                  ...        3 min, 55.899 sec
     gradient                   ...        3 min, 50.027 sec
 * total energy  : -3427.4367166 Eh     change    :  -0.6064043E-02 Eh
   gradient norm :     0.2096115 Eh/a0  converged?    E=F G=F D=F
   time step     :     0.2013138 fs     power     :   0.3809344E-06
   step length   :     0.0275817 a0     speed     :   0.3314079E-02

........................................................................
.............................. CYCLE   14 ..............................
........................................................................

 iter      E             dE          RMSdq      gap      omega  full diag
   1  -3478.9199607 -0.347892E+04  0.444E-03   10.67       0.0  T
   2  -3478.9199716 -0.109725E-04  0.254E-03   10.67       1.0  T
   3  -3478.9199717 -0.854243E-07  0.996E-04   10.67       1.8  T
   4  -3478.9199718 -0.490131E-07  0.107E-04   10.67      16.3  T
     SCC iter.                  ...        3 min, 53.894 sec
     gradient                   ...        3 min, 48.979 sec
 * total energy  : -3427.4436960 Eh     change    :  -0.6979467E-02 Eh
   gradient norm :     0.1833429 Eh/a0  converged?    E=F G=F D=F
   time step     :     0.2013138 fs     power     :   0.4290014E-06
   step length   :     0.0355436 a0     speed     :   0.4270735E-02

........................................................................
.............................. CYCLE   15 ..............................
........................................................................

 iter      E             dE          RMSdq      gap      omega  full diag
   1  -3478.8413789 -0.347884E+04  0.530E-03   10.67       0.0  T
   2  -3478.8413946 -0.156941E-04  0.303E-03   10.67       1.0  T
   3  -3478.8413947 -0.125539E-06  0.119E-03   10.67       1.5  T
   4  -3478.8413948 -0.728351E-07  0.131E-04   10.67      13.4  T
   5  -3478.8413948 -0.199288E-07  0.934E-05   10.67      18.8  T
     SCC iter.                  ...        4 min, 51.760 sec
     gradient                   ...        3 min, 47.053 sec
 * total energy  : -3427.4508157 Eh     change    :  -0.7119696E-02 Eh
   gradient norm :     0.1523425 Eh/a0  converged?    E=F G=F D=F
   time step     :     0.2013138 fs     power     :   0.4251274E-06
   step length   :     0.0425002 a0     speed     :   0.5106606E-02

........................................................................
.............................. CYCLE   16 ..............................
........................................................................

 iter      E             dE          RMSdq      gap      omega  full diag
   1  -3478.7518854 -0.347875E+04  0.598E-03   10.67       0.0  T
   2  -3478.7519056 -0.201844E-04  0.342E-03   10.67       1.0  T
   3  -3478.7519058 -0.145735E-06  0.135E-03   10.67       1.3  T
   4  -3478.7519058 -0.821087E-07  0.138E-04   10.67      12.7  T
   5  -3478.7519059 -0.229156E-07  0.961E-05   10.67      18.2  T
     SCC iter.                  ...        4 min, 58.121 sec
     gradient                   ...        3 min, 49.116 sec
 * total energy  : -3427.4572989 Eh     change    :  -0.6483177E-02 Eh
   gradient norm :     0.1180513 Eh/a0  converged?    E=F G=F D=F
   time step     :     0.2013138 fs     power     :   0.3709547E-06
   step length   :     0.0482582 a0     speed     :   0.5798464E-02

........................................................................
.............................. CYCLE   17 ..............................
........................................................................

 iter      E             dE          RMSdq      gap      omega  full diag
   1  -3478.6434316 -0.347864E+04  0.717E-03   10.67       0.0  T
   2  -3478.6434609 -0.293627E-04  0.410E-03   10.67       1.0  T
   3  -3478.6434612 -0.205094E-06  0.163E-03   10.67       1.1  T
   4  -3478.6434613 -0.114600E-06  0.164E-04   10.67      10.7  T
   5  -3478.6434613 -0.324658E-07  0.112E-04   10.67      15.7  T
     SCC iter.                  ...        4 min, 57.235 sec
     gradient                   ...        3 min, 49.558 sec
 * total energy  : -3427.4629094 Eh     change    :  -0.5610476E-02 Eh
   gradient norm :     0.0790795 Eh/a0  converged?    E=F G=F D=F
   time step     :     0.2214451 fs     power     :   0.2622586E-06
   step length   :     0.0584052 a0     speed     :   0.6379706E-02

........................................................................
.............................. CYCLE   18 ..............................
........................................................................

 iter      E             dE          RMSdq      gap      omega  full diag
   1  -3478.5174257 -0.347852E+04  0.821E-03   10.67       0.0  T
   2  -3478.5174649 -0.392198E-04  0.470E-03   10.67       1.0  T
   3  -3478.5174652 -0.270294E-06  0.188E-03   10.67       1.0  T
   4  -3478.5174653 -0.149473E-06  0.188E-04   10.67       9.3  T
   5  -3478.5174654 -0.431296E-07  0.126E-04   10.67      13.9  T
     SCC iter.                  ...        4 min, 56.582 sec
     gradient                   ...        3 min, 49.380 sec
 * total energy  : -3427.4664722 Eh     change    :  -0.3562796E-02 Eh
   gradient norm :     0.0451632 Eh/a0  converged?    E=F G=F D=F
   time step     :     0.2435896 fs     power     :   0.1051381E-06
   step length   :     0.0681680 a0     speed     :   0.6769195E-02

........................................................................
.............................. CYCLE   19 ..............................
........................................................................

 iter      E             dE          RMSdq      gap      omega  full diag
   1  -3478.3835070 -0.347838E+04  0.858E-03   10.67       0.0  T
   2  -3478.3835509 -0.438320E-04  0.492E-03   10.67       1.0  T
   3  -3478.3835512 -0.303041E-06  0.200E-03   10.67       1.0  T
   4  -3478.3835513 -0.162556E-06  0.197E-04   10.67       8.9  T
   5  -3478.3835514 -0.484624E-07  0.128E-04   10.67      13.7  T
     SCC iter.                  ...        4 min, 52.333 sec
     gradient                   ...        3 min, 50.311 sec
 * total energy  : -3427.4670515 Eh     change    :  -0.5793119E-03 Eh
   gradient norm :     0.0532821 Eh/a0  converged?    E=F G=F D=F
   time step     :     0.2679486 fs     power     :  -0.6106113E-07
   step length   :     0.0745892 a0     speed     :   0.6733481E-02

........................................................................
.............................. CYCLE   20 ..............................
........................................................................
 * reset velocities

 iter      E             dE          RMSdq      gap      omega  full diag
   1  -3478.3846993 -0.347838E+04  0.128E-04   10.67       0.0  T
   2  -3478.3846993 -0.715545E-08  0.846E-05   10.67      20.7  T
   3  -3478.3846993 -0.518594E-08  0.400E-05   10.67      43.8  T
     SCC iter.                  ...        2 min, 59.227 sec
     gradient                   ...        3 min, 51.032 sec
 * total energy  : -3427.4670991 Eh     change    :  -0.4760642E-04 Eh
   gradient norm :     0.0528767 Eh/a0  converged?    E=F G=F D=T
   time step     :     0.1339743 fs     power     :   0.4695928E-08
   step length   :     0.0008967 a0     speed     :   0.1618929E-03
 * RMSD in coord.:     0.0347178 a0     energy gain  -0.5763058E+00 Eh

........................................................................
.............................. CYCLE   21 ..............................
........................................................................

 iter      E             dE          RMSdq      gap      omega  full diag
   1  -3478.3907659 -0.347839E+04  0.565E-04   10.67       0.0  T
   2  -3478.3907660 -0.935734E-07  0.321E-04   10.67       5.5  T
   3  -3478.3907660 -0.931323E-09  0.893E-05   10.67      19.6  T
     SCC iter.                  ...        2 min, 55.049 sec
     gradient                   ...        3 min, 48.568 sec
 * total energy  : -3427.4673466 Eh     change    :  -0.2475324E-03 Eh
   gradient norm :     0.0509158 Eh/a0  converged?    E=F G=F D=F
   time step     :     0.2500000 fs     power     :   0.1288695E-07
   step length   :     0.0047717 a0     speed     :   0.4616888E-03

........................................................................
.............................. CYCLE   22 ..............................
........................................................................

 iter      E             dE          RMSdq      gap      omega  full diag
   1  -3478.4004450 -0.347840E+04  0.920E-04   10.67       0.0  T
   2  -3478.4004452 -0.239289E-06  0.524E-04   10.67       3.3  T
   3  -3478.4004452 -0.421142E-08  0.143E-04   10.67      12.2  T
     SCC iter.                  ...        2 min, 56.943 sec
     gradient                   ...        3 min, 49.870 sec
 * total energy  : -3427.4677293 Eh     change    :  -0.3826244E-03 Eh
   gradient norm :     0.0479280 Eh/a0  converged?    E=F G=F D=F
   time step     :     0.2500000 fs     power     :   0.1966158E-07
   step length   :     0.0077540 a0     speed     :   0.7502448E-03

........................................................................
.............................. CYCLE   23 ..............................
........................................................................

 iter      E             dE          RMSdq      gap      omega  full diag
   1  -3478.4132230 -0.347841E+04  0.123E-03   10.67       0.0  T
   2  -3478.4132234 -0.418377E-06  0.704E-04   10.67       2.5  T
   3  -3478.4132234 -0.995169E-08  0.190E-04   10.67       9.2  T
     SCC iter.                  ...        2 min, 56.893 sec
     gradient                   ...        3 min, 48.515 sec
 * total energy  : -3427.4682132 Eh     change    :  -0.4839452E-03 Eh
   gradient norm :     0.0442724 Eh/a0  converged?    E=F G=F D=F
   time step     :     0.2500000 fs     power     :   0.2454363E-07
   step length   :     0.0105549 a0     speed     :   0.1021240E-02

........................................................................
.............................. CYCLE   24 ..............................
........................................................................

 iter      E             dE          RMSdq      gap      omega  full diag
   1  -3478.4283793 -0.347843E+04  0.150E-03   10.68       0.0  T
   2  -3478.4283799 -0.588549E-06  0.856E-04   10.68       2.0  T
   3  -3478.4283799 -0.168511E-07  0.225E-04   10.67       7.8  T
     SCC iter.                  ...        2 min, 56.208 sec
     gradient                   ...        3 min, 49.228 sec
 * total energy  : -3427.4687607 Eh     change    :  -0.5474973E-03 Eh
   gradient norm :     0.0404681 Eh/a0  converged?    E=F G=F D=F
   time step     :     0.2500000 fs     power     :   0.2742528E-07
   step length   :     0.0131216 a0     speed     :   0.1269586E-02

........................................................................
.............................. CYCLE   25 ..............................
........................................................................

 iter      E             dE          RMSdq      gap      omega  full diag
   1  -3478.4449859 -0.347844E+04  0.170E-03   10.68       0.0  T
   2  -3478.4449866 -0.704612E-06  0.971E-04   10.68       1.8  T
   3  -3478.4449866 -0.237455E-07  0.246E-04   10.68       7.1  T
     SCC iter.                  ...        2 min, 53.502 sec
     gradient                   ...        3 min, 48.238 sec
 * total energy  : -3427.4693378 Eh     change    :  -0.5770689E-03 Eh
   gradient norm :     0.0371510 Eh/a0  converged?    E=F G=F D=F
   time step     :     0.2500000 fs     power     :   0.2861627E-07
   step length   :     0.0154171 a0     speed     :   0.1491691E-02

........................................................................
.............................. CYCLE   26 ..............................
........................................................................

 iter      E             dE          RMSdq      gap      omega  full diag
   1  -3478.4637411 -0.347846E+04  0.203E-03   10.68       0.0  T
   2  -3478.4637420 -0.892107E-06  0.116E-03   10.68       1.5  T
   3  -3478.4637421 -0.349009E-07  0.274E-04   10.68       6.4  T
   4  -3478.4637421 -0.138584E-07  0.684E-05   10.68      25.6  T
     SCC iter.                  ...        3 min, 53.792 sec
     gradient                   ...        3 min, 48.399 sec
 * total energy  : -3427.4699832 Eh     change    :  -0.6454537E-03 Eh
   gradient norm :     0.0347523 Eh/a0  converged?    E=F G=F D=F
   time step     :     0.2750000 fs     power     :   0.2873932E-07
   step length   :     0.0193940 a0     speed     :   0.1705885E-02

........................................................................
.............................. CYCLE   27 ..............................
........................................................................

 iter      E             dE          RMSdq      gap      omega  full diag
   1  -3478.4831871 -0.347848E+04  0.230E-03   10.68       0.0  T
   2  -3478.4831880 -0.956470E-06  0.132E-03   10.68       1.3  T
   3  -3478.4831881 -0.427481E-07  0.279E-04   10.68       6.3  T
   4  -3478.4831881 -0.169393E-07  0.752E-05   10.68      23.3  T
     SCC iter.                  ...        3 min, 54.982 sec
     gradient                   ...        3 min, 47.504 sec
 * total energy  : -3427.4706936 Eh     change    :  -0.7104237E-03 Eh
   gradient norm :     0.0339965 Eh/a0  converged?    E=F G=F D=F
   time step     :     0.3025000 fs     power     :   0.2864760E-07
   step length   :     0.0238421 a0     speed     :   0.1906485E-02

........................................................................
.............................. CYCLE   28 ..............................
........................................................................

 iter      E             dE          RMSdq      gap      omega  full diag
   1  -3478.5009768 -0.347850E+04  0.248E-03   10.68       0.0  T
   2  -3478.5009776 -0.788224E-06  0.143E-03   10.68       1.2  T
   3  -3478.5009777 -0.522991E-07  0.246E-04   10.68       7.1  T
   4  -3478.5009777 -0.189875E-07  0.816E-05   10.68      21.5  T
     SCC iter.                  ...        3 min, 50.138 sec
     gradient                   ...        3 min, 49.448 sec
 * total energy  : -3427.4714936 Eh     change    :  -0.7999182E-03 Eh
   gradient norm :     0.0347591 Eh/a0  converged?    E=F G=F D=F
   time step     :     0.3327500 fs     power     :   0.2966855E-07
   step length   :     0.0287979 a0     speed     :   0.2093430E-02

........................................................................
.............................. CYCLE   29 ..............................
........................................................................

 iter      E             dE          RMSdq      gap      omega  full diag
   1  -3478.5142092 -0.347851E+04  0.257E-03   10.68       0.0  T
   2  -3478.5142096 -0.454761E-06  0.149E-03   10.68       1.2  T
   3  -3478.5142097 -0.582249E-07  0.184E-04   10.68       9.5  T
   4  -3478.5142097 -0.200216E-07  0.843E-05   10.68      20.8  T
     SCC iter.                  ...        3 min, 53.849 sec
     gradient                   ...        3 min, 49.776 sec
 * total energy  : -3427.4724444 Eh     change    :  -0.9508225E-03 Eh
   gradient norm :     0.0357375 Eh/a0  converged?    E=F G=F D=F
   time step     :     0.3660250 fs     power     :   0.3275426E-07
   step length   :     0.0344946 a0     speed     :   0.2279586E-02

........................................................................
.............................. CYCLE   30 ..............................
........................................................................

 iter      E             dE          RMSdq      gap      omega  full diag
   1  -3478.5200730 -0.347852E+04  0.266E-03   10.68       0.0  T
   2  -3478.5200732 -0.235653E-06  0.156E-03   10.68       1.1  T
   3  -3478.5200733 -0.576711E-07  0.144E-04   10.68      12.2  T
   4  -3478.5200733 -0.221280E-07  0.828E-05   10.68      21.2  T
     SCC iter.                  ...        3 min, 51.695 sec
     gradient                   ...        3 min, 48.824 sec
 * total energy  : -3427.4736241 Eh     change    :  -0.1179713E-02 Eh
   gradient norm :     0.0351980 Eh/a0  converged?    E=F G=F D=F
   time step     :     0.4026275 fs     power     :   0.3745302E-07
   step length   :     0.0414145 a0     speed     :   0.2488078E-02

........................................................................
.............................. CYCLE   31 ..............................
........................................................................

 iter      E             dE          RMSdq      gap      omega  full diag
   1  -3478.5167242 -0.347852E+04  0.290E-03   10.68       0.0  T
   2  -3478.5167247 -0.538665E-06  0.171E-03   10.68       1.0  T
   3  -3478.5167248 -0.521131E-07  0.169E-04   10.68      10.4  T
   4  -3478.5167248 -0.255941E-07  0.749E-05   10.68      23.4  T
     SCC iter.                  ...        3 min, 49.949 sec
     gradient                   ...        3 min, 50.377 sec
 * total energy  : -3427.4750728 Eh     change    :  -0.1448671E-02 Eh
   gradient norm :     0.0320342 Eh/a0  converged?    E=F G=F D=F
   time step     :     0.4428903 fs     power     :   0.4152058E-07
   step length   :     0.0501066 a0     speed     :   0.2736616E-02

........................................................................
.............................. CYCLE   32 ..............................
........................................................................

 iter      E             dE          RMSdq      gap      omega  full diag
   1  -3478.5048073 -0.347850E+04  0.335E-03   10.68       0.0  T
   2  -3478.5048088 -0.154667E-05  0.200E-03   10.68       1.0  T
   3  -3478.5048089 -0.566820E-07  0.289E-04   10.68       6.1  T
   4  -3478.5048089 -0.284494E-07  0.748E-05   10.68      23.4  T
     SCC iter.                  ...        4 min,  0.244 sec
     gradient                   ...        3 min, 48.976 sec
 * total energy  : -3427.4767318 Eh     change    :  -0.1659002E-02 Eh
   gradient norm :     0.0270922 Eh/a0  converged?    E=F G=F D=F
   time step     :     0.4871793 fs     power     :   0.4201343E-07
   step length   :     0.0608809 a0     speed     :   0.3022785E-02

........................................................................
.............................. CYCLE   33 ..............................
........................................................................

 iter      E             dE          RMSdq      gap      omega  full diag
   1  -3478.4899341 -0.347849E+04  0.388E-03   10.68       0.0  T
   2  -3478.4899367 -0.252054E-05  0.232E-03   10.68       1.0  T
   3  -3478.4899367 -0.658529E-07  0.379E-04   10.68       4.6  T
   4  -3478.4899368 -0.313175E-07  0.772E-05   10.68      22.7  T
     SCC iter.                  ...        4 min,  0.248 sec
     gradient                   ...        3 min, 49.923 sec
 * total energy  : -3427.4784591 Eh     change    :  -0.1727360E-02 Eh
   gradient norm :     0.0243407 Eh/a0  converged?    E=F G=F D=F
   time step     :     0.5358972 fs     power     :   0.3836005E-07
   step length   :     0.0735429 a0     speed     :   0.3319511E-02

........................................................................
.............................. CYCLE   34 ..............................
........................................................................

 iter      E             dE          RMSdq      gap      omega  full diag
   1  -3478.4849732 -0.347848E+04  0.426E-03   10.68       0.0  T
   2  -3478.4849751 -0.188672E-05  0.256E-03   10.68       1.0  T
   3  -3478.4849752 -0.792779E-07  0.278E-04   10.68       6.3  T
   4  -3478.4849752 -0.316081E-07  0.802E-05   10.68      21.8  T
     SCC iter.                  ...        3 min, 55.004 sec
     gradient                   ...        3 min, 49.075 sec
 * total energy  : -3427.4801986 Eh     change    :  -0.1739521E-02 Eh
   gradient norm :     0.0259452 Eh/a0  converged?    E=F G=F D=F
   time step     :     0.5894869 fs     power     :   0.3505152E-07
   step length   :     0.0870980 a0     speed     :   0.3573954E-02

........................................................................
.............................. CYCLE   35 ..............................
........................................................................

 iter      E             dE          RMSdq      gap      omega  full diag
   1  -3478.5043067 -0.347850E+04  0.473E-03   10.68       0.0  T
   2  -3478.5043071 -0.410289E-06  0.280E-03   10.68       1.0  T
   3  -3478.5043072 -0.111844E-06  0.155E-04   10.68      11.3  T
   4  -3478.5043073 -0.222626E-07  0.898E-05   10.68      19.5  T
     SCC iter.                  ...        4 min,  3.799 sec
     gradient                   ...        3 min, 50.365 sec
 * total energy  : -3427.4820968 Eh     change    :  -0.1898188E-02 Eh
   gradient norm :     0.0260333 Eh/a0  converged?    E=F G=F D=F
   time step     :     0.6484356 fs     power     :   0.3575120E-07
   step length   :     0.1010747 a0     speed     :   0.3770428E-02

........................................................................
.............................. CYCLE   36 ..............................
........................................................................

 iter      E             dE          RMSdq      gap      omega  full diag
   1  -3478.5543397 -0.347855E+04  0.571E-03   10.68       0.0  T
   2  -3478.5543410 -0.132901E-05  0.330E-03   10.68       1.0  T
   3  -3478.5543412 -0.155773E-06  0.254E-04   10.68       6.9  T
   4  -3478.5543412 -0.222021E-07  0.106E-04   10.68      16.5  T
     SCC iter.                  ...        3 min, 54.907 sec
     gradient                   ...        3 min, 49.592 sec
 * total energy  : -3427.4842212 Eh     change    :  -0.2124385E-02 Eh
   gradient norm :     0.0215310 Eh/a0  converged?    E=F G=F D=F
   time step     :     0.7132792 fs     power     :   0.3561323E-07
   step length   :     0.1172585 a0     speed     :   0.3976490E-02

........................................................................
.............................. CYCLE   37 ..............................
........................................................................

 iter      E             dE          RMSdq      gap      omega  full diag
   1  -3478.6239217 -0.347862E+04  0.658E-03   10.69       0.0  T
   2  -3478.6239252 -0.353900E-05  0.375E-03   10.69       1.0  T
   3  -3478.6239254 -0.169982E-06  0.451E-04   10.69       3.9  T
   4  -3478.6239254 -0.344589E-07  0.113E-04   10.69      15.5  T
     SCC iter.                  ...        3 min, 56.910 sec
     gradient                   ...        3 min, 50.564 sec
 * total energy  : -3427.4863425 Eh     change    :  -0.2121244E-02 Eh
   gradient norm :     0.0210472 Eh/a0  converged?    E=F G=F D=F
   time step     :     0.7846071 fs     power     :   0.3056004E-07
   step length   :     0.1365133 a0     speed     :   0.4208600E-02

........................................................................
.............................. CYCLE   38 ..............................
........................................................................

 iter      E             dE          RMSdq      gap      omega  full diag
   1  -3478.6763408 -0.347868E+04  0.611E-03   10.69       0.0  T
   2  -3478.6763419 -0.109020E-05  0.354E-03   10.69       1.0  T
   3  -3478.6763421 -0.136199E-06  0.220E-04   10.69       8.0  T
   4  -3478.6763421 -0.174578E-07  0.868E-05   10.69      20.2  T
     SCC iter.                  ...        4 min,  3.389 sec
     gradient                   ...        3 min, 50.169 sec
 * total energy  : -3427.4885174 Eh     change    :  -0.2174931E-02 Eh
   gradient norm :     0.0239466 Eh/a0  converged?    E=F G=F D=F
   time step     :     0.8630678 fs     power     :   0.2994700E-07
   step length   :     0.1559969 a0     speed     :   0.4372062E-02

........................................................................
.............................. CYCLE   39 ..............................
........................................................................

 iter      E             dE          RMSdq      gap      omega  full diag
   1  -3478.6852045 -0.347869E+04  0.558E-03   10.69       0.0  T
   2  -3478.6852064 -0.183990E-05  0.334E-03   10.69       1.0  T
   3  -3478.6852065 -0.163690E-06  0.230E-04   10.69       7.6  T
   4  -3478.6852066 -0.221585E-07  0.107E-04   10.69      16.4  T
     SCC iter.                  ...        3 min, 54.886 sec
     gradient                   ...        3 min, 50.138 sec
 * total energy  : -3427.4910614 Eh     change    :  -0.2543962E-02 Eh
   gradient norm :     0.0202035 Eh/a0  converged?    E=F G=F D=F
   time step     :     0.9493746 fs     power     :   0.3197521E-07
   step length   :     0.1775150 a0     speed     :   0.4522853E-02

........................................................................
.............................. CYCLE   40 ..............................
........................................................................

 iter      E             dE          RMSdq      gap      omega  full diag
   1  -3478.6661104 -0.347867E+04  0.572E-03   10.70       0.0  T
   2  -3478.6661158 -0.536815E-05  0.344E-03   10.70       1.0  T
   3  -3478.6661160 -0.254806E-06  0.527E-04   10.70       3.3  T
   4  -3478.6661161 -0.562031E-07  0.157E-04   10.70      11.1  T
     SCC iter.                  ...        3 min, 57.224 sec
     gradient                   ...        3 min, 49.937 sec
 * total energy  : -3427.4937555 Eh     change    :  -0.2694162E-02 Eh
   gradient norm :     0.0224979 Eh/a0  converged?    E=F G=F D=F
   time step     :     1.0443120 fs     power     :   0.2959718E-07
   step length   :     0.2043653 a0     speed     :   0.4733604E-02

........................................................................
.............................. CYCLE   41 ..............................
........................................................................

 iter      E             dE          RMSdq      gap      omega  full diag
   1  -3478.6785561 -0.347868E+04  0.635E-03   10.70       0.0  T
   2  -3478.6785569 -0.797460E-06  0.373E-03   10.70       1.0  T
   3  -3478.6785571 -0.237086E-06  0.229E-04   10.71       7.6  T
   4  -3478.6785571 -0.333303E-07  0.138E-04   10.71      12.7  T
     SCC iter.                  ...        3 min, 53.686 sec
     gradient                   ...        3 min, 50.410 sec
 * total energy  : -3427.4969223 Eh     change    :  -0.3166808E-02 Eh
   gradient norm :     0.0207677 Eh/a0  converged?    E=F G=F D=F
   time step     :     1.1487432 fs     power     :   0.3385213E-07
   step length   :     0.2329419 a0     speed     :   0.4905007E-02

........................................................................
.............................. CYCLE   42 ..............................
........................................................................

 iter      E             dE          RMSdq      gap      omega  full diag
   1  -3478.7243512 -0.347872E+04  0.825E-03   10.71       0.0  T
   2  -3478.7243557 -0.441540E-05  0.477E-03   10.71       1.0  T
   3  -3478.7243559 -0.217780E-06  0.451E-04   10.71       3.9  T
   4  -3478.7243559 -0.428454E-07  0.118E-04   10.71      14.8  T
     SCC iter.                  ...        3 min, 53.559 sec
     gradient                   ...        3 min, 48.910 sec
 * total energy  : -3427.5004205 Eh     change    :  -0.3498204E-02 Eh
   gradient norm :     0.0209634 Eh/a0  converged?    E=F G=F D=F
   time step     :     1.2500000 fs     power     :   0.3184337E-07
   step length   :     0.2666273 a0     speed     :   0.5159526E-02
 * RMSD in coord.:     0.0301964 a0     energy gain  -0.3332144E-01 Eh

........................................................................
.............................. CYCLE   43 ..............................
........................................................................

 iter      E             dE          RMSdq      gap      omega  full diag
   1  -3478.7267295 -0.347873E+04  0.129E-03   10.71       0.0  T
   2  -3478.7267295 -0.324740E-07  0.756E-04   10.71       2.3  T
   3  -3478.7267295 -0.912951E-08  0.474E-05   10.71      36.9  T
     SCC iter.                  ...        2 min, 57.670 sec
     gradient                   ...        3 min, 49.110 sec
 * total energy  : -3427.5010880 Eh     change    :  -0.6674818E-03 Eh
   gradient norm :     0.0210992 Eh/a0  converged?    E=F G=F D=F
   time step     :     0.2500000 fs     power     :   0.3489166E-07
   step length   :     0.0518106 a0     speed     :   0.5012956E-02

........................................................................
.............................. CYCLE   44 ..............................
........................................................................

 iter      E             dE          RMSdq      gap      omega  full diag
   1  -3478.7229685 -0.347872E+04  0.121E-03   10.72       0.0  T
   2  -3478.7229687 -0.141870E-06  0.711E-04   10.72       2.5  T
   3  -3478.7229687 -0.103209E-07  0.806E-05   10.72      21.7  T
     SCC iter.                  ...        2 min, 55.128 sec
     gradient                   ...        3 min, 50.530 sec
 * total energy  : -3427.5018023 Eh     change    :  -0.7143193E-03 Eh
   gradient norm :     0.0195940 Eh/a0  converged?    E=F G=F D=F
   time step     :     0.2500000 fs     power     :   0.3723017E-07
   step length   :     0.0507483 a0     speed     :   0.4910175E-02

........................................................................
.............................. CYCLE   45 ..............................
........................................................................

 iter      E             dE          RMSdq      gap      omega  full diag
   1  -3478.7147330 -0.347871E+04  0.134E-03   10.72       0.0  T
   2  -3478.7147334 -0.375202E-06  0.786E-04   10.72       2.2  T
   3  -3478.7147334 -0.130499E-07  0.158E-04   10.72      11.1  T
     SCC iter.                  ...        2 min, 58.518 sec
     gradient                   ...        3 min, 49.597 sec
 * total energy  : -3427.5025333 Eh     change    :  -0.7309717E-03 Eh
   gradient norm :     0.0174297 Eh/a0  converged?    E=F G=F D=F
   time step     :     0.2500000 fs     power     :   0.3760791E-07
   step length   :     0.0502572 a0     speed     :   0.4862651E-02

........................................................................
.............................. CYCLE   46 ..............................
........................................................................

 iter      E             dE          RMSdq      gap      omega  full diag
   1  -3478.7047676 -0.347870E+04  0.149E-03   10.72       0.0  T
   2  -3478.7047681 -0.515088E-06  0.867E-04   10.72       2.0  T
   3  -3478.7047681 -0.148607E-07  0.192E-04   10.72       9.1  T
     SCC iter.                  ...        2 min, 59.131 sec
     gradient                   ...        3 min, 49.583 sec
 * total energy  : -3427.5032475 Eh     change    :  -0.7142205E-03 Eh
   gradient norm :     0.0161630 Eh/a0  converged?    E=F G=F D=F
   time step     :     0.2500000 fs     power     :   0.3636119E-07
   step length   :     0.0502487 a0     speed     :   0.4861831E-02

........................................................................
.............................. CYCLE   47 ..............................
........................................................................

 iter      E             dE          RMSdq      gap      omega  full diag
   1  -3478.6966107 -0.347870E+04  0.151E-03   10.72       0.0  T
   2  -3478.6966111 -0.410245E-06  0.880E-04   10.72       2.0  T
   3  -3478.6966111 -0.137288E-07  0.161E-04   10.72      10.9  T
     SCC iter.                  ...        2 min, 57.238 sec
     gradient                   ...        3 min, 48.813 sec
 * total energy  : -3427.5039347 Eh     change    :  -0.6871789E-03 Eh
   gradient norm :     0.0163969 Eh/a0  converged?    E=F G=F D=F
   time step     :     0.2500000 fs     power     :   0.3508827E-07
   step length   :     0.0503634 a0     speed     :   0.4872926E-02

........................................................................
.............................. CYCLE   48 ..............................
........................................................................

 iter      E             dE          RMSdq      gap      omega  full diag
   1  -3478.6928585 -0.347869E+04  0.159E-03   10.72       0.0  T
   2  -3478.6928587 -0.211111E-06  0.932E-04   10.72       1.9  T
   3  -3478.6928587 -0.124633E-07  0.946E-05   10.72      18.5  T
     SCC iter.                  ...        3 min,  1.917 sec
     gradient                   ...        3 min, 48.936 sec
 * total energy  : -3427.5046778 Eh     change    :  -0.7430807E-03 Eh
   gradient norm :     0.0170245 Eh/a0  converged?    E=F G=F D=F
   time step     :     0.2750000 fs     power     :   0.3482793E-07
   step length   :     0.0553712 a0     speed     :   0.4870417E-02

........................................................................
.............................. CYCLE   49 ..............................
........................................................................

 iter      E             dE          RMSdq      gap      omega  full diag
   1  -3478.6961210 -0.347870E+04  0.173E-03   10.72       0.0  T
   2  -3478.6961211 -0.590662E-07  0.101E-03   10.72       1.7  T
   3  -3478.6961211 -0.130849E-07  0.544E-05   10.72      32.2  T
   4  -3478.6961211 -0.365389E-08  0.262E-05   10.72      66.8  T
     SCC iter.                  ...        3 min, 55.661 sec
     gradient                   ...        3 min, 53.164 sec
 * total energy  : -3427.5055014 Eh     change    :  -0.8236103E-03 Eh
   gradient norm :     0.0165824 Eh/a0  converged?    E=F G=F D=F
   time step     :     0.3025000 fs     power     :   0.3527867E-07
   step length   :     0.0608049 a0     speed     :   0.4862150E-02

........................................................................
.............................. CYCLE   50 ..............................
........................................................................

 iter      E             dE          RMSdq      gap      omega  full diag
   1  -3478.7073254 -0.347871E+04  0.201E-03   10.73       0.0  T
   2  -3478.7073256 -0.180034E-06  0.117E-03   10.72       1.5  T
   3  -3478.7073256 -0.181512E-07  0.888E-05   10.72      19.7  T
   4  -3478.7073256 -0.485079E-08  0.352E-05   10.72      49.8  T
     SCC iter.                  ...        3 min, 56.487 sec
     gradient                   ...        3 min, 47.798 sec
 * total energy  : -3427.5064075 Eh     change    :  -0.9061017E-03 Eh
   gradient norm :     0.0147762 Eh/a0  converged?    E=F G=F D=F
   time step     :     0.3327500 fs     power     :   0.3496934E-07
   step length   :     0.0671177 a0     speed     :   0.4879036E-02

........................................................................
.............................. CYCLE   51 ..............................
........................................................................

 iter      E             dE          RMSdq      gap      omega  full diag
   1  -3478.7245793 -0.347872E+04  0.231E-03   10.73       0.0  T
   2  -3478.7245798 -0.482390E-06  0.134E-03   10.73       1.3  T
   3  -3478.7245798 -0.263603E-07  0.161E-04   10.73      10.9  T
   4  -3478.7245798 -0.691716E-08  0.469E-05   10.73      37.4  T
     SCC iter.                  ...        3 min, 54.858 sec
     gradient                   ...        3 min, 50.273 sec
 * total energy  : -3427.5073653 Eh     change    :  -0.9578172E-03 Eh
   gradient norm :     0.0133870 Eh/a0  converged?    E=F G=F D=F
   time step     :     0.3660250 fs     power     :   0.3303068E-07
   step length   :     0.0747598 a0     speed     :   0.4940521E-02

........................................................................
.............................. CYCLE   52 ..............................
........................................................................

 iter      E             dE          RMSdq      gap      omega  full diag
   1  -3478.7413354 -0.347874E+04  0.237E-03   10.73       0.0  T
   2  -3478.7413359 -0.447892E-06  0.137E-03   10.73       1.3  T
   3  -3478.7413359 -0.293544E-07  0.151E-04   10.73      11.6  T
   4  -3478.7413359 -0.693217E-08  0.483E-05   10.73      36.3  T
     SCC iter.                  ...        4 min,  0.548 sec
     gradient                   ...        3 min, 59.619 sec
 * total energy  : -3427.5083555 Eh     change    :  -0.9902183E-03 Eh
   gradient norm :     0.0141522 Eh/a0  converged?    E=F G=F D=F
   time step     :     0.4026275 fs     power     :   0.3102211E-07
   step length   :     0.0834815 a0     speed     :   0.5015356E-02

........................................................................
.............................. CYCLE   53 ..............................
........................................................................

 iter      E             dE          RMSdq      gap      omega  full diag
   1  -3478.7493751 -0.347875E+04  0.219E-03   10.73       0.0  T
   2  -3478.7493752 -0.110855E-06  0.128E-03   10.73       1.4  T
   3  -3478.7493753 -0.256437E-07  0.743E-05   10.73      23.6  T
   4  -3478.7493753 -0.502314E-08  0.397E-05   10.73      44.1  T
     SCC iter.                  ...        3 min, 56.271 sec
     gradient                   ...        3 min, 47.900 sec
 * total energy  : -3427.5094164 Eh     change    :  -0.1060874E-02 Eh
   gradient norm :     0.0146155 Eh/a0  converged?    E=F G=F D=F
   time step     :     0.4428903 fs     power     :   0.3068474E-07
   step length   :     0.0923824 a0     speed     :   0.5045545E-02

........................................................................
.............................. CYCLE   54 ..............................
........................................................................

 iter      E             dE          RMSdq      gap      omega  full diag
   1  -3478.7447297 -0.347874E+04  0.218E-03   10.73       0.0  T
   2  -3478.7447300 -0.316053E-06  0.128E-03   10.73       1.4  T
   3  -3478.7447300 -0.278751E-07  0.104E-04   10.73      16.8  T
   4  -3478.7447300 -0.572982E-08  0.418E-05   10.73      41.9  T
     SCC iter.                  ...        4 min,  2.612 sec
     gradient                   ...        3 min, 49.718 sec
 * total energy  : -3427.5105797 Eh     change    :  -0.1163288E-02 Eh
   gradient norm :     0.0131141 Eh/a0  converged?    E=F G=F D=F
   time step     :     0.4871793 fs     power     :   0.3046874E-07
   step length   :     0.1021194 a0     speed     :   0.5070312E-02

........................................................................
.............................. CYCLE   55 ..............................
........................................................................

 iter      E             dE          RMSdq      gap      omega  full diag
   1  -3478.7310830 -0.347873E+04  0.231E-03   10.73       0.0  T
   2  -3478.7310839 -0.917868E-06  0.136E-03   10.73       1.3  T
   3  -3478.7310840 -0.397845E-07  0.229E-04   10.73       7.7  T
   4  -3478.7310840 -0.930004E-08  0.583E-05   10.73      30.0  T
     SCC iter.                  ...        3 min, 57.232 sec
     gradient                   ...        3 min, 50.546 sec
 * total energy  : -3427.5118130 Eh     change    :  -0.1233285E-02 Eh
   gradient norm :     0.0127691 Eh/a0  converged?    E=F G=F D=F
   time step     :     0.5358972 fs     power     :   0.2889379E-07
   step length   :     0.1138171 a0     speed     :   0.5137372E-02

........................................................................
.............................. CYCLE   56 ..............................
........................................................................

 iter      E             dE          RMSdq      gap      omega  full diag
   1  -3478.7227210 -0.347872E+04  0.219E-03   10.74       0.0  T
   2  -3478.7227215 -0.494025E-06  0.130E-03   10.74       1.3  T
   3  -3478.7227215 -0.424684E-07  0.149E-04   10.74      11.7  T
   4  -3478.7227215 -0.808041E-08  0.602E-05   10.74      29.1  T
     SCC iter.                  ...        3 min, 59.028 sec
     gradient                   ...        3 min, 48.703 sec
 * total energy  : -3427.5131287 Eh     change    :  -0.1315680E-02 Eh
   gradient norm :     0.0139567 Eh/a0  converged?    E=F G=F D=F
   time step     :     0.5894869 fs     power     :   0.2848227E-07
   step length   :     0.1266090 a0     speed     :   0.5195239E-02

........................................................................
.............................. CYCLE   57 ..............................
........................................................................

 iter      E             dE          RMSdq      gap      omega  full diag
   1  -3478.7311803 -0.347873E+04  0.250E-03   10.74       0.0  T
   2  -3478.7311805 -0.193626E-06  0.146E-03   10.74       1.2  T
   3  -3478.7311805 -0.338437E-07  0.111E-04   10.74      15.8  T
   4  -3478.7311805 -0.787713E-08  0.520E-05   10.74      33.7  T
     SCC iter.                  ...        3 min, 57.737 sec
     gradient                   ...        3 min, 47.872 sec
 * total energy  : -3427.5145978 Eh     change    :  -0.1469141E-02 Eh
   gradient norm :     0.0126700 Eh/a0  converged?    E=F G=F D=F
   time step     :     0.6484356 fs     power     :   0.2904626E-07
   step length   :     0.1401756 a0     speed     :   0.5229026E-02

........................................................................
.............................. CYCLE   58 ..............................
........................................................................

 iter      E             dE          RMSdq      gap      omega  full diag
   1  -3478.7540376 -0.347875E+04  0.312E-03   10.74       0.0  T
   2  -3478.7540383 -0.739812E-06  0.179E-03   10.74       1.0  T
   3  -3478.7540384 -0.320297E-07  0.212E-04   10.74       8.3  T
   4  -3478.7540384 -0.100749E-07  0.499E-05   10.74      35.1  T
     SCC iter.                  ...        3 min, 55.508 sec
     gradient                   ...        3 min, 48.559 sec
 * total energy  : -3427.5161891 Eh     change    :  -0.1591334E-02 Eh
   gradient norm :     0.0126039 Eh/a0  converged?    E=F G=F D=F
   time step     :     0.7132792 fs     power     :   0.2808057E-07
   step length   :     0.1566844 a0     speed     :   0.5313508E-02

........................................................................
.............................. CYCLE   59 ..............................
........................................................................

 iter      E             dE          RMSdq      gap      omega  full diag
   1  -3478.7702704 -0.347877E+04  0.292E-03   10.75       0.0  T
   2  -3478.7702706 -0.180013E-06  0.171E-03   10.75       1.0  T
   3  -3478.7702706 -0.410300E-07  0.110E-04   10.75      16.0  T
   4  -3478.7702706 -0.824639E-08  0.602E-05   10.75      29.1  T
     SCC iter.                  ...        4 min,  1.451 sec
     gradient                   ...        3 min, 48.843 sec
 * total energy  : -3427.5179308 Eh     change    :  -0.1741679E-02 Eh
   gradient norm :     0.0129453 Eh/a0  converged?    E=F G=F D=F
   time step     :     0.7846071 fs     power     :   0.2850724E-07
   step length   :     0.1748903 a0     speed     :   0.5391737E-02

........................................................................
.............................. CYCLE   60 ..............................
........................................................................

 iter      E             dE          RMSdq      gap      omega  full diag
   1  -3478.7708032 -0.347877E+04  0.300E-03   10.75       0.0  T
   2  -3478.7708044 -0.115281E-05  0.182E-03   10.75       1.0  T
   3  -3478.7708045 -0.653358E-07  0.228E-04   10.75       7.7  T
   4  -3478.7708045 -0.168011E-07  0.835E-05   10.75      21.0  T
     SCC iter.                  ...        3 min, 54.651 sec
     gradient                   ...        3 min, 47.991 sec
 * total energy  : -3427.5198617 Eh     change    :  -0.1930860E-02 Eh
   gradient norm :     0.0113938 Eh/a0  converged?    E=F G=F D=F
   time step     :     0.8630678 fs     power     :   0.2819773E-07
   step length   :     0.1955314 a0     speed     :   0.5480078E-02

........................................................................
.............................. CYCLE   61 ..............................
........................................................................

 iter      E             dE          RMSdq      gap      omega  full diag
   1  -3478.7814244 -0.347878E+04  0.335E-03   10.75       0.0  T
   2  -3478.7814250 -0.593600E-06  0.202E-03   10.75       1.0  T
   3  -3478.7814250 -0.548011E-07  0.137E-04   10.75      12.8  T
   4  -3478.7814250 -0.130863E-07  0.697E-05   10.75      25.2  T
     SCC iter.                  ...        3 min, 57.620 sec
     gradient                   ...        3 min, 48.578 sec
 * total energy  : -3427.5219368 Eh     change    :  -0.2075152E-02 Eh
   gradient norm :     0.0120217 Eh/a0  converged?    E=F G=F D=F
   time step     :     0.9493746 fs     power     :   0.2774296E-07
   step length   :     0.2202695 a0     speed     :   0.5612185E-02

........................................................................
.............................. CYCLE   62 ..............................
........................................................................

 iter      E             dE          RMSdq      gap      omega  full diag
   1  -3478.8217215 -0.347882E+04  0.483E-03   10.76       0.0  T
   2  -3478.8217225 -0.986116E-06  0.279E-03   10.76       1.0  T
   3  -3478.8217225 -0.585878E-07  0.222E-04   10.76       7.9  T
   4  -3478.8217225 -0.115469E-07  0.616E-05   10.76      28.4  T
     SCC iter.                  ...        3 min, 55.952 sec
     gradient                   ...        3 min, 47.794 sec
 * total energy  : -3427.5241885 Eh     change    :  -0.2251653E-02 Eh
   gradient norm :     0.0105139 Eh/a0  converged?    E=F G=F D=F
   time step     :     1.0443120 fs     power     :   0.2680148E-07
   step length   :     0.2472263 a0     speed     :   0.5726371E-02

........................................................................
.............................. CYCLE   63 ..............................
........................................................................

 iter      E             dE          RMSdq      gap      omega  full diag
   1  -3478.8441102 -0.347884E+04  0.479E-03   10.77       0.0  T
   2  -3478.8441107 -0.406336E-06  0.281E-03   10.77       1.0  T
   3  -3478.8441107 -0.611426E-07  0.142E-04   10.77      12.3  T
   4  -3478.8441107 -0.192745E-07  0.669E-05   10.77      26.2  T
     SCC iter.                  ...        3 min, 52.632 sec
     gradient                   ...        3 min, 49.032 sec
 * total energy  : -3427.5265648 Eh     change    :  -0.2376324E-02 Eh
   gradient norm :     0.0102729 Eh/a0  converged?    E=F G=F D=F
   time step     :     1.1487432 fs     power     :   0.2598120E-07
   step length   :     0.2789077 a0     speed     :   0.5872899E-02

........................................................................
.............................. CYCLE   64 ..............................
........................................................................

 iter      E             dE          RMSdq      gap      omega  full diag
   1  -3478.8341361 -0.347883E+04  0.456E-03   10.77       0.0  T
   2  -3478.8341387 -0.256936E-05  0.274E-03   10.77       1.0  T
   3  -3478.8341387 -0.602145E-07  0.328E-04   10.77       5.3  T
   4  -3478.8341388 -0.296582E-07  0.749E-05   10.77      23.4  T
     SCC iter.                  ...        3 min, 58.089 sec
     gradient                   ...        3 min, 47.304 sec
 * total energy  : -3427.5290230 Eh     change    :  -0.2458180E-02 Eh
   gradient norm :     0.0114801 Eh/a0  converged?    E=F G=F D=F
   time step     :     1.2500000 fs     power     :   0.2396026E-07
   step length   :     0.3107846 a0     speed     :   0.6014017E-02

........................................................................
.............................. CYCLE   65 ..............................
........................................................................

 iter      E             dE          RMSdq      gap      omega  full diag
   1  -3478.8692820 -0.347887E+04  0.570E-03   10.78       0.0  T
   2  -3478.8692834 -0.142383E-05  0.330E-03   10.78       1.0  T
   3  -3478.8692835 -0.677360E-07  0.266E-04   10.78       6.6  T
   4  -3478.8692835 -0.233349E-07  0.741E-05   10.78      23.6  T
     SCC iter.                  ...        3 min, 53.863 sec
     gradient                   ...        3 min, 46.461 sec
 * total energy  : -3427.5313926 Eh     change    :  -0.2369582E-02 Eh
   gradient norm :     0.0102198 Eh/a0  converged?    E=F G=F D=F
   time step     :     1.2500000 fs     power     :   0.2312539E-07
   step length   :     0.3135743 a0     speed     :   0.6067999E-02

........................................................................
.............................. CYCLE   66 ..............................
........................................................................

 iter      E             dE          RMSdq      gap      omega  full diag
   1  -3478.8788562 -0.347888E+04  0.428E-03   10.79       0.0  T
   2  -3478.8788569 -0.705029E-06  0.254E-03   10.79       1.0  T
   3  -3478.8788570 -0.599312E-07  0.155E-04   10.79      11.3  T
   4  -3478.8788570 -0.200471E-07  0.749E-05   10.79      23.4  T
     SCC iter.                  ...        3 min, 54.346 sec
     gradient                   ...        3 min, 47.965 sec
 * total energy  : -3427.5336874 Eh     change    :  -0.2294871E-02 Eh
   gradient norm :     0.0093310 Eh/a0  converged?    E=F G=F D=F
   time step     :     1.2500000 fs     power     :   0.2306630E-07
[...]
  3011   6 C     3012   6 C                                       1.5264243
  3012   6 C     3013   6 C                                       1.5254480
  3013   6 C     3014   6 C                                       1.5264752
  3014   6 C     3015   6 C                                       1.5256422
  3015   6 C     3016   6 C                                       1.5234670
  3015   6 C     3017   1 H                                       1.0899754
  3015   6 C     3018   1 H                                       1.0912196
  3014   6 C     3019   1 H                                       1.0935553
  3014   6 C     3020   1 H                                       1.0936587
  3013   6 C     3021   1 H                                       1.0919769
  3013   6 C     3022   1 H                                       1.0919492
  3012   6 C     3023   1 H                                       1.0931567
  3012   6 C     3024   1 H                                       1.0937779
  3011   6 C     3025   1 H                                       1.0923550
  3011   6 C     3026   1 H                                       1.0922130
  3010   6 C     3027   1 H                                       1.0930024
  3010   6 C     3028   1 H                                       1.0940107
  3009   6 C     3029   1 H                                       1.0926905
  3009   6 C     3030   1 H                                       1.0914432
  3008   6 C     3031   1 H                                       1.0929672
  3008   6 C     3032   1 H                                       1.0939838
  3007   6 C     3033   1 H                                       1.0923371
  3007   6 C     3034   1 H                                       1.0931642
  3006   6 C     3035   1 H                                       1.0918621
  3006   6 C     3036   1 H                                       1.0933324
  3005   6 C     3037   1 H                                       1.0909444
  3005   6 C     3038   1 H                                       1.0919963
  3004   6 C     3039   1 H                                       1.0935244
  3004   6 C     3040   1 H                                       1.0920947
  3003   6 C     3041   1 H                                       1.0918097
  3003   6 C     3042   1 H                                       1.0920391
  3002   6 C     3043   1 H                                       1.0935661
  3002   6 C     3044   1 H                                       1.0935842
  3001   6 C     3045   1 H                                       1.0915848
  3001   6 C     3046   1 H                                       1.0917272
  3000   6 C     3047   1 H                                       1.0936200
  3000   6 C     3048   1 H                                       1.0923703
  2999   6 C     3049   1 H                                       1.0928890
  2999   6 C     3050   1 H                                       1.0915511
  2998   6 C     3051   1 H                                       1.0915988
  2998   6 C     3052   1 H                                       1.0937062
  2997   6 C     3053   1 H                                       1.0939885
  2997   6 C     3054   1 H                                       1.0933958
  2996   6 C     3055   1 H                                       1.0906392
  2996   6 C     3056   1 H                                       1.0927896
  2995   6 C     3057   1 H                                       1.0940116
  2995   6 C     3058   1 H                                       1.0933671
  2994   6 C     3059   1 H                                       1.0908266
  2994   6 C     3060   1 H                                       1.0923516
  2993   6 C     3061   1 H                                       1.0937912
  2993   6 C     3062   1 H                                       1.0930702
  2992   6 C     3063   1 H                                       1.0917581
  2992   6 C     3064   1 H                                       1.0938832
  2991   6 C     3065   1 H                                       1.0928116
  2991   6 C     3066   1 H                                       1.0914538
  2990   6 C     3067   1 H                                       1.0931843
  2990   6 C     3068   1 H                                       1.0932738
  2989   6 C     3069   1 H                                       1.0926776
  2989   6 C     3070   1 H                                       1.0918873
  2988   6 C     3071   1 H                                       1.0931856
  2988   6 C     3072   1 H                                       1.0930220
  2987   6 C     3073   1 H                                       1.0933437
  2987   6 C     3074   1 H                                       1.0905934
  2986   6 C     3075   1 H                                       1.0928727
  2986   6 C     3076   1 H                                       1.0932084
  2985   6 C     3077   1 H                                       1.0934616
  2985   6 C     3078   1 H                                       1.0929749
  2984   6 C     3079   1 H                                       1.0910037
  2984   6 C     3080   1 H                                       1.0930252
  2983   6 C     3081   1 H                                       1.0933769
  2983   6 C     3082   1 H                                       1.0924944
  2982   6 C     3083   1 H                                       1.0930662
  2982   6 C     3084   1 H                                       1.0933386
  2981   6 C     3085   1 H                                       1.0933472
  2981   6 C     3086   1 H                                       1.0925243
  2980   6 C     3087   1 H                                       1.0917435
  2980   6 C     3088   1 H                                       1.0922288
  2979   6 C     3089   1 H                                       1.0923305
  2979   6 C     3090   1 H                                       1.0931244
  2978   6 C     3091   1 H                                       1.0936254
  2978   6 C     3092   1 H                                       1.0924484
  2977   6 C     3093   1 H                                       1.0926399
  2977   6 C     3094   1 H                                       1.0926875
  2976   6 C     3095   1 H                                       1.0935398
  2976   6 C     3096   1 H                                       1.0915201
  2975   6 C     3097   1 H                                       1.0924989
  2975   6 C     3098   1 H                                       1.0935843
  2974   6 C     3099   1 H                                       1.0938519
  2974   6 C     3100   1 H                                       1.0931497
  2973   6 C     3101   1 H                                       1.0916352
  2973   6 C     3102   1 H                                       1.0929716
  2972   6 C     3103   1 H                                       1.0929946
  2972   6 C     3104   1 H                                       1.0930325
  2971   6 C     3105   1 H                                       1.0921729
  2971   6 C     3106   1 H                                       1.0906640
  2970   6 C     3107   1 H                                       1.0935087
  2970   6 C     3108   1 H                                       1.0940688
  2969   6 C     3109   1 H                                       1.0928676
  2969   6 C     3110   1 H                                       1.0912337
  2968   6 C     3111   1 H                                       1.0912741
  2968   6 C     3112   1 H                                       1.0927613
  2967   6 C     3113   1 H                                       1.0924196
  2967   6 C     3114   1 H                                       1.0923050
  2966   6 C     3115   1 H                                       1.0928712
  2966   6 C     3116   1 H                                       1.0939985
  2965   6 C     3117   1 H                                       1.0924623
  2965   6 C     3118   1 H                                       1.0922125
  2964   6 C     3119   1 H                                       1.0926126
  2964   6 C     3120   1 H                                       1.0939328
  2963   6 C     3121   1 H                                       1.0923421
  2963   6 C     3122   1 H                                       1.0931765
  2962   6 C     3123   1 H                                       1.0924978
  2962   6 C     3124   1 H                                       1.0937220
  2961   6 C     3125   1 H                                       1.0924175
  2961   6 C     3126   1 H                                       1.0917391
  2960   6 C     3127   1 H                                       1.0926294
  2960   6 C     3128   1 H                                       1.0936542
  2959   6 C     3129   1 H                                       1.0923158
  2959   6 C     3130   1 H                                       1.0933106
  2958   6 C     3131   1 H                                       1.0925302
  2958   6 C     3132   1 H                                       1.0935595
  2957   6 C     3133   1 H                                       1.0922393
  2957   6 C     3134   1 H                                       1.0921490
  2956   6 C     3135   1 H                                       1.0929663
  2956   6 C     3136   1 H                                       1.0933653
  2955   6 C     3137   1 H                                       1.0919555
  2955   6 C     3138   1 H                                       1.0934193
  2954   6 C     3139   1 H                                       1.0927092
  2954   6 C     3140   1 H                                       1.0931563
  2953   6 C     3141   1 H                                       1.0921827
  2953   6 C     3142   1 H                                       1.0920718
  2952   6 C     3143   1 H                                       1.0916070
  2952   6 C     3144   1 H                                       1.0930838
  2951   6 C     3145   1 H                                       1.0926620
  2951   6 C     3146   1 H                                       1.0917317
  2950   6 C     3147   1 H                                       1.0917781
  2950   6 C     3148   1 H                                       1.0938483
  2949   6 C     3149   1 H                                       1.0904858
  2949   6 C     3150   1 H                                       1.0930224
  2948   6 C     3151   1 H                                       1.0940095
  2948   6 C     3152   1 H                                       1.0920628
  2947   6 C     3153   1 H                                       1.0934956
  2947   6 C     3154   1 H                                       1.0940142
  2946   6 C     3155   1 H                                       1.0930009
  2946   6 C     3156   1 H                                       1.0901562
  2945   6 C     3157   1 H                                       1.0915072
  2945   6 C     3158   1 H                                       1.0940161
  2944   6 C     3159   1 H                                       1.0935488
  2944   6 C     3160   1 H                                       1.0935362
  2943   6 C     3161   1 H                                       1.0930867
  2943   6 C     3162   1 H                                       1.0907768
  2942   6 C     3163   1 H                                       1.0918123
  2942   6 C     3164   1 H                                       1.0936152
  2941   6 C     3165   1 H                                       1.0929912
  2941   6 C     3166   1 H                                       1.0924990
  2940   6 C     3167   1 H                                       1.0930231
  2940   6 C     3168   1 H                                       1.0936730
  2939   6 C     3169   1 H                                       1.0928880
  2939   6 C     3170   1 H                                       1.0915875
  2938   6 C     3171   1 H                                       1.0929181
  2938   6 C     3172   1 H                                       1.0937740
  2937   6 C     3173   1 H                                       1.0937412
  2937   6 C     3174   1 H                                       1.0930689
  2936   6 C     3175   1 H                                       1.0911558
  2936   6 C     3176   1 H                                       1.0929069
  2935   6 C     3177   1 H                                       1.0936917
  2935   6 C     3178   1 H                                       1.0924310
  2934   6 C     3179   1 H                                       1.0912549
  2934   6 C     3180   1 H                                       1.0935694
  2933   6 C     3181   1 H                                       1.0937042
  2933   6 C     3182   1 H                                       1.0926408
  2932   6 C     3183   1 H                                       1.0932129
  2932   6 C     3184   1 H                                       1.0930863
  2931   6 C     3185   1 H                                       1.0925941
  2931   6 C     3186   1 H                                       1.0908509
  2930   6 C     3187   1 H                                       1.0922695
  2930   6 C     3188   1 H                                       1.0932624
  2929   6 C     3189   1 H                                       1.0917521
  2929   6 C     3190   1 H                                       1.0909514
  2928   6 C     3191   1 H                                       1.0929447
  2928   6 C     3192   1 H                                       1.0936819
  2927   6 C     3193   1 H                                       1.0936093
  2927   6 C     3194   1 H                                       1.0918199
  2926   6 C     3195   1 H                                       1.0902785
  2926   6 C     3196   1 H                                       1.0929287
  2925   6 C     3197   1 H                                       1.0939712
  2925   6 C     3198   1 H                                       1.0933212
  2924   6 C     3199   1 H                                       1.0935543
  2924   6 C     3200   1 H                                       1.0938808
  2923   6 C     3201   1 H                                       1.0922977
  2923   6 C     3202   1 H                                       1.0919940
  2922   6 C     3203   1 H                                       1.0921162
  2922   6 C     3204   1 H                                       1.0932040
  2921   6 C     3205   1 H                                       1.0917128
  2921   6 C     3206   1 H                                       1.0926575
  2920   6 C     3207   1 H                                       1.0927413
  2920   6 C     3208   1 H                                       1.0927873
  2919   6 C     3209   1 H                                       1.0927088
  2919   6 C     3210   1 H                                       1.0926318
  2918   6 C     3211   1 H                                       1.0920868
  2918   6 C     3212   1 H                                       1.0925115
  2917   6 C     3213   1 H                                       1.0934689
  2917   6 C     3214   1 H                                       1.0926040
  2916   6 C     3215   1 H                                       1.0934448
  2916   6 C     3216   1 H                                       1.0925312
  2915   6 C     3217   1 H                                       1.0935473
  2915   6 C     3218   1 H                                       1.0923124
  2914   6 C     3219   1 H                                       1.0927002
  2914   6 C     3220   1 H                                       1.0926586
  2913   6 C     3221   1 H                                       1.0931218
  2913   6 C     3222   1 H                                       1.0928449
  2912   6 C     3223   1 H                                       1.0937544
  2912   6 C     3224   1 H                                       1.0927164
  2911   6 C     3225   1 H                                       1.0926387
  2911   6 C     3226   1 H                                       1.0920267
  2910   6 C     3227   1 H                                       1.0931118
  2910   6 C     3228   1 H                                       1.0934440
  2909   6 C     3229   1 H                                       1.0923199
  2909   6 C     3230   1 H                                       1.0928655
  2908   6 C     3231   1 H                                       1.0936072
  2908   6 C     3232   1 H                                       1.0936845
  2907   6 C     3233   1 H                                       1.0928096
  2907   6 C     3234   1 H                                       1.0925978
  2906   6 C     3235   1 H                                       1.0911490
  2906   6 C     3236   1 H                                       1.0937293
  2905   6 C     3237   1 H                                       1.0925837
  2905   6 C     3238   1 H                                       1.0927375
  2904   6 C     3239   1 H                                       1.0927958
  2904   6 C     3240   1 H                                       1.0926970
  2903   6 C     3241   1 H                                       1.0934183
  2903   6 C     3242   1 H                                       1.0911755
  2902   6 C     3243   1 H                                       1.0926713
  2902   6 C     3244   1 H                                       1.0931204
  2901   6 C     3245   1 H                                       1.0936429
  2901   6 C     3246   1 H                                       1.0929512
  2900   6 C     3247   1 H                                       1.0925480
  2900   6 C     3248   1 H                                       1.0933785
  2899   6 C     3249   1 H                                       1.0932624
  2899   6 C     3250   1 H                                       1.0929952
  2898   6 C     3251   1 H                                       1.0922514
  2898   6 C     3252   1 H                                       1.0932123
  2897   6 C     3253   1 H                                       1.0878291
  2897   6 C     3254   1 H                                       1.0881354
  2897   6 C     3255   1 H                                       1.0880407
  3016   6 C     3256   1 H                                       1.0879479
  3016   6 C     3257   1 H                                       1.0886327
  3016   6 C     3258   1 H                                       1.0886016

 * 2 distinct bonds (by element types)

   Z      Z             #   av. dist./Å        max./Å        min./Å
   1 H    6 C        2178     1.0925977     1.0946950     1.0866024
   6 C    6 C        1071     1.5271238     1.5368401     1.5205636


optimized geometry written to: xtbopt.xyz


           -------------------------------------------------
          | TOTAL ENERGY            -3427.635917750257 Eh   |
          | GRADIENT NORM               0.000928752334 Eh/α |
          | HOMO-LUMO GAP              11.247898219503 eV   |
           -------------------------------------------------

------------------------------------------------------------------------
 * finished run on 2024/06/20 at 20:57:40.176     
------------------------------------------------------------------------
 total:
 * wall-time:     3 d,  5 h, 38 min, 54.022 sec
 *  cpu-time:    16 d, 20 h, 49 min, 38.852 sec
 * ratio c/w:     5.214 speedup
 SCF:
 * wall-time:     0 d,  0 h,  7 min, 14.331 sec
 *  cpu-time:     0 d,  0 h, 37 min, 33.116 sec
 * ratio c/w:     5.188 speedup
 ANC optimizer:
 * wall-time:     3 d,  5 h, 30 min, 57.505 sec
 *  cpu-time:    16 d, 20 h, 11 min,  8.424 sec
 * ratio c/w:     5.214 speedup

