3864
 energy: -5104.203505082735 gnorm: 0.000796730669 xtb: 6.6.1 (8d0f1dd)
C           38.21818427346903       61.00100427991235       51.28736253463253
C           37.13155623776019       60.54389299657218       52.02053784004488
C           35.94635305726371       60.27247665968560       51.34569343804582
C           35.84582969708487       60.47691504129612       49.98165035052140
C           36.92879143857411       60.95769263846150       49.26594758163104
C           38.11859314508264       61.20886521688964       49.92313346587153
C           37.24088606396161       60.37508034540106       53.51759920271724
C           36.17216430194225       61.21862051018012       54.22012445963328
C           37.15137685366658       58.88493476053228       53.88095479617361
C           37.26586215846313       58.58154524218563       55.38304936294767
C           36.87823388124991       57.15007969460842       55.65787249957950
C           35.82851993339790       56.86493203243011       56.52322141441975
C           35.49800744543490       55.55871058702517       56.83515301548682
C           36.20710294916429       54.51207322986649       56.27272323174444
C           37.22618191368216       54.78307334966045       55.37661987310694
C           37.56450466085811       56.08992162422892       55.07841563741183
C           38.67640378923973       58.85560319666838       55.92293005637285
C           38.74677042547928       58.74200803981250       57.44932313014062
C           37.74804094769941       59.65989834468887       58.11102465792820
C           36.83025127631370       59.15582580096832       59.02454292586853
C           35.90927325198135       59.98397015958806       59.64212376149180
C           35.89448827548074       61.33870774199065       59.35767567223952
C           36.81103027138712       61.85573501718740       58.45758896685463
C           37.72923415315921       61.02427635266706       57.84161387714597
C           40.14412919380725       59.07440737269889       58.00123342363364
C           41.28517917686398       58.13310961139794       57.58009382105172
C           42.59380811256139       58.68318546704833       58.10263170612028
C           43.60964302633305       59.05212956865500       57.22924486296200
C           44.81543467017429       59.53815062723781       57.70458282101880
C           45.02317068748406       59.67367196001496       59.06551807322933
C           44.01909081283132       59.31086575586544       59.94663777273109
C           42.82109106698342       58.81324712632276       59.46854229267763
C           41.08443928068039       56.70057925505313       58.08584357609002
C           42.21484670140912       55.76618367145155       57.61673656969359
C           41.94843952687277       55.29014350864961       56.21415434884219
C           40.97867753540087       54.32818991288571       55.95863511628591
C           40.74064994800759       53.89230324618994       54.66884338520176
C           41.45348705093791       54.42725884995565       53.60975012151903
C           42.40600300527240       55.40132175727334       53.84958686032001
C           42.65687887953272       55.82063212724424       55.14409828394109
C           42.38167422039953       54.61396807771705       58.61372916216707
C           43.34308001292256       53.50788302209531       58.15202930552777
C           44.60681625073584       54.04455472199128       57.53200019651281
C           45.06130331312638       53.54209836521787       56.31971435988527
C           46.25092103742286       53.98211463562647       55.76702359146805
C           46.99259621911313       54.96066298021777       56.40600318109179
C           46.53781444342938       55.48772899602904       57.60273237175237
C           45.36466692303555       55.02165332871627       58.16690841101717
C           43.67765350152354       52.62631913441168       59.36430374055742
C           44.38129903572844       51.30786745241595       59.00921599319467
C           43.45058836536678       50.41290807669560       58.23322789925481
C           43.73162973644193       50.08072191016387       56.91378135590879
C           42.87061712428492       49.28422029612425       56.17842003014253
C           41.71145563450372       48.80013057890336       56.75731844109244
C           41.42203219228155       49.11777701385660       58.07432120482051
C           42.28225085193880       49.91922799718012       58.80288647264946
C           44.89114855350635       50.67548738817274       60.31797376518715
C           45.25461188959530       49.18565051743636       60.25547775998972
C           45.62067059664956       48.70769150983921       61.64112970896389
C           44.87936195290574       47.70490389191701       62.25046339999049
C           45.19858732079729       47.24987150712702       63.51787634544950
C           46.26626363660347       47.80054204650845       64.20152288278021
C           47.00909313054169       48.80945567097891       63.61153411732712
C           46.69162688596737       49.25285893186943       62.34129810461430
C           46.38230182020212       48.85745889821950       59.26890350469161
C           46.44612310411057       47.34111810711128       59.02582356974495
C           47.82440853094527       46.86614214989293       58.64493355705890
C           48.32172319374951       45.67689459189440       59.16385097547500
C           49.57206271177867       45.21052771530315       58.79802928281049
C           50.35220308770678       45.93503742138018       57.91562623460756
C           49.87061494488294       47.12188994680162       57.39449652873970
C           48.61569663118666       47.57800667639855       57.75110413067895
C           45.44047517095107       46.92157941981434       57.93585594339832
C           44.96420863699087       45.47871202145998       58.13005235955301
C           44.10766645726568       45.36019100726470       59.36870307171718
C           42.90710258683485       46.05518619900145       59.47738450304641
C           42.11646312389224       45.93281116217673       60.60561409019736
C           42.51099794198455       45.11201201967509       61.64916188701521
C           43.69893387087805       44.40778879047293       61.55060124967117
C           44.48630053502545       44.53329504723409       60.41901873028709
C           44.16432068857574       44.94517338522896       56.93329347014808
C           44.96346796408077       44.78887356454658       55.63104289739322
C           46.27588758687858       44.08146697212077       55.84399906317948
C           46.32755166987246       42.80112831511628       56.38157082645374
C           47.53994151672484       42.16758847621409       56.58440183825238
C           48.71956957621648       42.79682250722976       56.22574674977316
C           48.68241971427481       44.05979782442174       55.66315398227599
C           47.46856947205217       44.69777465179965       55.48466732841709
C           44.09769752022550       44.05196729737636       54.59001768869548
C           43.25627585399128       45.03295179747823       53.74880345095949
C           41.93366870096535       44.40308357882734       53.39407950259340
C           40.74179067770797       45.01872560925242       53.75974085693376
C           39.52233599542227       44.40072644455275       53.54040913633808
C           39.47629308957223       43.15645592010087       52.93437064246665
C           40.65426538119404       42.54321170919140       52.54224144296880
C           41.87136309493609       43.15777794958045       52.77739789539773
C           44.08511217252548       45.47945434717201       52.53438563921667
C           43.66389990880516       46.82515966487085       51.91657165322017
C           44.88804117203663       47.58541717784144       51.46631331100018
C           45.16656819484088       48.85282268439403       51.96104867353133
C           46.27700272543755       49.55934739409347       51.53216805927654
C           47.15124623685183       48.99187371687324       50.62222238880909
C           46.90260649707224       47.71548143971668       50.14789473929313
C           45.77662271443729       47.02521504713239       50.55545681116268
C           42.69278088097258       46.62981892021737       50.74424052219700
C           42.16222231256291       47.96795506349837       50.20753960819984
C           41.26317312472850       48.60177563911792       51.24303606078416
C           40.03085477010811       48.04202400724005       51.56218980575446
C           39.22999741185944       48.59419414196027       52.54566555210060
C           39.65028522641410       49.71776877651274       53.23772654748002
C           40.86945562681940       50.29242470449491       52.92338834803407
C           41.66167807297322       49.74196060460725       51.93034143868767
C           41.40989877420667       47.79306897333802       48.87912756908150
C           42.27476684204942       47.51136340014811       47.63400197632443
C           41.30597837727419       47.13969203924468       46.53618580481750
C           40.66877439505894       48.09395812640000       45.75170613440172
C           39.76376175948490       47.71855090023502       44.77574661248973
C           39.44440452470932       46.38439712890205       44.59794173240652
C           40.04672565352321       45.42660757393642       45.39359424381448
C           40.97941645988716       45.80326868226560       46.34275644633415
C           43.17176419281501       48.70090291031959       47.26880738971427
C           43.84504417881535       48.55277677266023       45.89518087511171
C           44.77106194612232       47.36530789150987       45.83759159286613
C           44.57985366485855       46.37926360999831       44.87750531993095
C           45.44391337708716       45.30289848960240       44.77588381690391
C           46.51724719018203       45.19265443307081       45.64323868656169
C           46.70706067342349       46.15908572929241       46.61598187437511
C           45.84623022809059       47.23771834259095       46.70976546909484
C           44.59033725396601       49.84230685873092       45.50817770569908
C           44.89954497790226       49.89021341473683       44.00845498704235
C           43.64538614675352       49.82554916064849       43.16657790150661
C           42.60698459076976       50.73472785586236       43.33129375453608
C           41.50536102610282       50.71532084929915       42.49487131931596
C           41.42303670820807       49.78940218862598       41.46918892764082
C           42.44571477577107       48.87159955248165       41.30025030151790
C           43.54255159500640       48.89099447705227       42.14349679409029
C           45.65083449611148       51.16849088457851       43.59036091089224
C           47.12021278422264       51.28853375600212       44.02699262521607
C           47.62983292975251       52.66279231978961       43.65478355255367
C           47.58767791192102       53.10786430590698       42.33757190658385
C           48.02857130615303       54.37471013792694       42.00144930444811
C           48.52152625178025       55.22550082797308       42.97449365282110
C           48.57790062909954       54.78895877990895       44.28653701861465
C           48.14153968212800       53.51886640973153       44.62259552689821
C           47.97511822062541       50.19588085429855       43.37842857714348
C           49.46184628232541       50.28160919811172       43.74716341187177
H           38.22709694450259       60.74690977040034       53.81634885405462
H           36.19457295940041       58.49210584691556       53.52565714337499
H           37.94171398007113       58.35937172319051       53.34125363034496
H           36.55935356168527       59.22334689497448       55.91823231049776
H           39.36501323338555       58.13497955153582       55.48411400771349
H           38.99389545172678       59.85312661071514       55.62117181312797
H           38.48998211995030       57.71500857195358       57.72843720306127
H           40.40783036484483       60.09226221821611       57.69941362587809
H           40.07334494703992       59.07331476953663       59.09207459456155
H           41.33967380773743       58.10128360143399       56.48795235714635
H           40.13032671749613       56.30625937033174       57.73277842110796
H           43.14870883646918       56.33779689983686       57.60644253088537
H           42.74715528471731       55.04010728110941       59.55201034070848
H           41.40937434784163       54.15950329463875       58.82281224072445
H           42.82932535441839       52.89308980846585       57.40512131827369
H           44.31739611622181       53.19383077045062       60.04405750039334
H           42.74799755516589       52.39923539735332       59.89069509998497
H           45.24080634385698       51.54350857705609       58.37303284743670
H           45.75544331114924       51.25102014784118       60.65391808507056
H           44.11632924813899       50.78357871524594       61.08257145140899
H           44.36078010824342       48.63793880536797       59.93758575925419
H           46.16611095881726       46.84257675764350       59.96123049135847
H           44.57870145082126       47.59027408631462       57.95056155562668
H           45.92363465580034       47.02187110037087       56.96273875677957
H           45.84801491767242       44.84288536687845       58.25371784925028
H           43.76306260297877       43.96853623699644       57.21899027769506
H           43.31250754211619       45.60061407875141       56.74145578648384
H           45.19033027044590       45.78575933161171       55.24014201254393
H           44.73572188949309       43.46511485478829       53.92573417751469
H           43.43864834617683       43.34700996624029       55.10092806800185
H           43.04596886737109       45.91518352138777       54.36382570446563
H           45.12322855800802       45.57041519844082       52.86576732674889
H           44.04921040389598       44.70118469549036       51.77091417808575
H           43.15375802145066       47.42017667862086       52.68280182584129
H           43.20398960359042       46.09628724515682       49.94090097481089
H           41.85624993022832       46.01131215392302       51.07583209245992
H           43.01703754432481       48.63265837905432       50.04483133127439
H           40.70000749484515       46.96794434291738       48.98151876233099
H           40.83011528300202       48.69815256720582       48.67842317351784
H           42.91266885666751       46.64186717598159       47.82665105594339
H           42.56729285648962       49.60984939418687       47.26205427308216
H           43.93735910377139       48.82003313447398       48.03758372768456
H           43.05640893068343       48.39768343994934       45.15144556112093
H           43.96947554128015       50.70071768069261       45.77027437878516
H           45.52079825140010       49.91431132735886       46.07373175216438
H           45.51145062658357       49.01761156099135       43.76041039940794
H           45.62287095211583       51.21781376558557       42.49875993674730
H           45.10371146930974       52.03585812484175       43.97075850864626
H           39.15381367176726       61.19716202033240       51.78968254303943
H           38.97230577107970       61.57530238316503       49.37255817467284
H           36.84555423745277       61.12735288064050       48.20263515704377
H           34.91474968141945       60.26771318880072       49.47431396049631
H           35.08779558723815       59.90220425099447       51.88864532401450
H           35.27355772708878       57.67984356752445       56.97054409607485
H           34.68836174529174       55.35279343069769       57.52067054512913
H           35.96610335708905       53.49658408367743       56.54749416697557
H           37.76985795513666       53.97563540493969       54.90910206005307
H           38.37684887230612       56.27927799936183       54.39317403715732
H           36.83280052744456       58.09845128417185       59.25216171148872
H           35.20014461002977       59.57207995379482       60.34680429223599
H           35.17527278048549       61.98781660579284       59.83697919852930
H           36.81564890835844       62.91405053695690       58.23721583711193
H           38.44038185880940       61.45307196026231       57.15067788985859
H           43.46049350495904       58.94948768008936       56.16311218701332
H           45.60087411725309       59.81162603031792       57.01423152411328
H           45.96410507285782       60.05520801098501       59.43381852540028
H           44.17208408579718       59.40479573637604       61.01297138467137
H           42.05979490335910       58.51813753906409       60.17644455367338
H           41.05184050285467       56.71174324723035       59.17685630849827
H           40.41235039396098       53.91087041393206       56.77741167411850
H           39.99824424155102       53.12700923634611       54.48825636204432
H           41.27769040873134       54.08078718219281       52.60325813101119
H           42.96455391768766       55.83159528327428       53.03071395384520
H           43.42164513049883       56.56393619138726       55.32167128405860
H           44.47301943511716       52.79819227517875       55.80110661565872
H           46.59773021404440       53.55866131601960       54.83441762371279
H           47.91754046102500       55.31573679464881       55.97333629346467
H           47.10759147680921       56.25951519244310       58.10134786472058
H           45.03074512296363       55.43008800367036       59.10941478763149
H           44.63469016189972       50.45661076702669       56.45322235687033
H           43.10200338730647       49.04267251936737       55.15016287576925
H           41.03140774538065       48.18123646934999       56.19015894606755
H           40.51808977077111       48.73362089383608       58.52675808363777
H           42.04366048135884       50.16569639888660       59.82701182501165
H           44.04169796448467       47.26816845480185       61.72854922515948
H           44.60578144726512       46.46588012630843       63.96580346299749
H           46.51206166298674       47.46119696442971       65.19790210455734
H           47.82819926756567       49.25661943885120       64.15531809754295
H           47.28288446011749       50.03927423794338       61.89514147301698
H           46.20104018618848       49.36763894456194       58.32408954607855
H           47.33688325726122       49.20706560321556       59.66631590895136
H           47.72788182951396       45.11752777535414       59.87554396715608
H           49.94652215593270       44.28657096755269       59.21438039437957
H           51.33537597277847       45.58279308670657       57.64396379861473
H           50.47840452807357       47.70145472632579       56.71372009770669
H           48.25713597605324       48.50516809570400       57.33279235174815
H           42.58039765205945       46.70430852707448       58.67749909993251
H           41.19242085267408       46.48849408808937       60.67583664508730
H           41.89569125044014       45.02251184855612       62.53319137449837
H           44.01630264295920       43.75813835558543       62.35549767378276
H           45.40808351406884       43.97148191433192       60.35493414838390
H           45.41030998747225       42.29479082994571       56.64506004945564
H           47.56382422317868       41.17947773268460       57.02228554206123
H           49.66747829220789       42.30294574225886       56.37720696429542
H           49.60032818488164       44.54436129745236       55.36363736247655
H           47.45022092841803       45.69184392524061       55.05856707873673
H           40.76876850062570       45.99392041816838       54.22777951947899
H           38.60337201421587       44.88396751656669       53.84308525785593
H           38.52442306229751       42.67337056044899       52.76028420673542
H           40.62256285225519       41.57769932783413       52.05753937699750
H           42.78180567359539       42.65212257794472       52.49074134174256
H           44.50596614273626       49.29601016898701       52.69321886670173
H           46.46014309894367       50.55204168690211       51.91829758484322
H           48.02236200870718       49.53589386229125       50.28692607016784
H           47.59415878090459       47.25210583824815       49.45993101465745
H           45.58745968446343       46.03633570251699       50.16411621719523
H           39.68868542423183       47.16312302682720       51.03751168847931
H           38.27485529669807       48.13756385873905       52.76966314184062
H           39.03494228555450       50.14150980646426       54.01857929275302
H           41.21015466752755       51.16928913996712       53.45627805492491
H           42.60631285485132       50.20793760919680       51.68844340844275
H           40.87145700360901       49.14459952607938       45.89348947271164
H           39.30120512292968       48.47310488562128       44.15652948532706
H           38.73280638398865       46.09106472232583       43.83880363158442
H           39.79286002238024       44.38491427638809       45.26479416859537
H           41.45627396673615       45.04876080513900       46.95380584353013
H           43.74556341593038       46.46053432108800       44.19422405813348
H           45.28418640769666       44.55624217838724       44.00972737525951
H           47.20723374779089       44.36377230465393       45.55902132600888
H           47.53928147629581       46.06787277795919       47.29908592246088
H           46.01650125368683       47.98618263219372       47.47063820362067
H           42.65351921529658       51.47794934064191       44.11308881680470
H           40.71430708942965       51.43782312033497       42.64159225794336
H           40.57439754604277       49.77962001220817       40.79949395214896
H           42.38714637460439       48.14496629800962       40.50002483677179
H           44.33970822519768       48.17377221349695       42.00645689846257
H           48.19908934856603       53.19102281931410       45.65118423823817
H           48.96019717257734       55.44567149856660       45.05523645957075
H           48.86082707994426       56.21705214846664       42.71046385018442
H           47.98524173954496       54.70034973997462       40.97124605545940
H           47.20911286473995       52.46186086299178       41.55922326625753
H           35.18759025916490       60.76859306827267       54.11323193067514
H           36.38690344461397       61.32037503794704       55.28176460221901
H           36.13734169780258       62.21582704872969       53.78321472912486
H           47.19279521222958       51.17905945569868       45.11361700331653
H           47.59799894546679       49.21830133018011       43.68319466403778
H           47.88057115378910       50.25842755358929       42.29075160388597
C           50.18733580777024       49.11003811548544       43.07307599660864
C           49.69300662810222       50.26553944279944       45.23749224995884
C           49.17558617892598       49.25298227582130       46.03857104287178
C           49.42758875340564       49.23222424805529       47.39827144150892
C           50.19998848296259       50.21998991680617       47.98400053316168
C           50.71293678056580       51.23825348752082       47.20032773818026
C           50.45998672420000       51.25595021692381       45.83944984652864
H           48.56863609325990       48.47089956969371       45.60323977865330
H           49.01983918955663       48.44043662277131       48.00990441977283
H           50.40296948029833       50.18932145720853       49.04475419907011
H           51.30834722573234       52.02393829381332       47.64496917565356
H           50.86665078029467       52.05582734918331       45.23559825764153
C           51.71173017355778       49.15679445853654       43.20977418544794
H           49.82483044995152       48.17489595798588       43.50624763800847
H           49.91758492278089       49.10081626112343       42.01450689974490
C           52.31604935249493       47.92198032572350       42.60303427566645
C           53.03629894351916       47.01513997313175       43.36765665018580
C           53.51672703107158       45.84270990645713       42.80975896480600
C           53.26033340621649       45.55654604500527       41.48154666285108
C           52.55451081651453       46.45753290998473       40.70395710928270
C           52.10207771855920       47.63723648628614       41.25909748436405
H           53.22206843980307       47.21845402536267       44.41301931473730
H           54.08090569173014       45.15024201518902       43.41954295622869
H           53.61165242229026       44.63561014180730       41.03888132832395
H           52.35503051466880       46.23352497807637       39.66524016264573
H           51.57208253069370       48.34764968126204       40.64167087659808
H           49.86318615550854       51.22027722002920       43.34646629514575
H           52.09180851128117       50.04586697692905       42.69890615741642
H           51.98523126258854       49.22753565482655       44.26471943207832
C           33.26482484840316       63.33610767082381       47.25395735503071
C           33.73853087452483       64.63217686363046       47.41244388253558
C           34.05415875919368       65.06940694537822       48.69396724378221
C           33.90688389945319       64.23148519291198       49.78443518979099
C           33.43569164536786       62.94112353630297       49.61403105961992
C           33.11343777129959       62.49652260582278       48.34386257866632
C           33.89606670122471       65.54021134955813       46.21822345812858
C           32.94942535447886       66.73826991775559       46.32966252962235
C           35.34765633433046       66.01565628650400       46.07092274588412
C           36.32586489346923       64.84598790767832       45.90597031947114
C           35.98224910514308       64.02764113183427       44.68423570892247
C           35.68284723861738       62.67641503198447       44.80946249469680
C           35.31368664241091       61.92253040096845       43.70951212676437
C           35.24258428967877       62.51299341647662       42.46008817559330
C           35.57439062861214       63.84834356616228       42.31450528893038
C           35.94226710229288       64.59750220262697       43.41721822469393
C           37.78435636771582       65.31995312230129       45.81549534032631
C           38.33011809895299       66.01683747243935       47.07272869923732
C           39.71187370547278       66.54672060507943       46.77354978843160
C           39.92470469673971       67.91621557244278       46.67591704301331
C           41.18314818404890       68.42605859369210       46.40749875473864
C           42.25481087794934       67.56813475497263       46.23374116796266
C           42.05354219273441       66.20150530960760       46.32128045956729
C           40.79381118887435       65.69448825222538       46.58207878359016
C           38.33917818997313       65.07558908697888       48.28173006559978
C           38.98346342696696       65.71236357904259       49.52081378427309
C           38.21617204845832       66.92374697872484       49.97674296370579
C           38.81715107607353       68.17616409858671       49.97192502044472
C           38.11846129201690       69.30050084169476       50.37485039124387
C           36.80294242840733       69.18902847124833       50.79140994584208
C           36.19573281569118       67.94440648059441       50.80790287873559
C           36.89795555671505       66.82283076320593       50.40567939931820
C           39.09336783244676       64.65654635483308       50.62556235243943
C           39.70990182586024       65.16905473371318       51.93447823349916
C           40.96344232097966       65.97210626313058       51.70323250531829
C           41.99395675379963       65.49982348351000       50.89808095868882
C           43.13847152234801       66.24999227437867       50.69719781102671
C           43.28396245323393       67.47779857190004       51.31981651453164
C           42.27001073023278       67.95708954969257       52.13044780918636
C           41.11682469674275       67.21308246068237       52.30930695480913
C           39.99657600728878       63.95048921937348       52.82431378311701
C           40.59066308137281       64.29194785429139       54.19248662760812
C           39.60114107311723       65.01507828236834       55.06922263819542
C           39.91462893710246       66.25654267567162       55.60852210631217
C           39.02044969903366       66.92664288236385       56.42512503738256
C           37.78992195080645       66.36321685084971       56.71555204000782
C           37.46733115264817       65.12370816308849       56.18885067010967
C           38.36743618273160       64.45456680121507       55.38007287562121
C           41.08445715051700       63.01945452686279       54.90034499110535
C           42.34421605069475       62.40159819075343       54.25113753405133
C           41.99215161985589       61.18492515682741       53.43501887427599
C           41.52551170851662       60.02551033855846       54.04122751590296
C           41.12780675257355       58.94106573516092       53.28053029573657
C           41.15866558095102       59.01051202854230       51.89951730805725
C           41.66057346014826       60.14335150984363       51.28452023338309
C           42.09220887958396       61.21158301569260       52.04935869702303
C           43.39919925794216       62.09805022361726       55.32764922319962
C           44.17781954140642       63.37900325791739       55.67494342335972
C           45.17433185465875       63.65709866516334       54.57783464430145
C           46.30752606838301       62.86088224059480       54.44213661446579
C           47.21965967468361       63.08836283057346       53.42913468306757