3258
 energy: -3427.532242348742 gnorm: 0.000720122198 xtb: 6.6.1 (8d0f1dd)
C          103.08415633237152       94.34170043563716      116.39357462957572
C          103.70686830047839       95.71191509210315      116.62951980941381
C          102.73898917288146       96.67616723945461      117.31092795584570
C          103.35513103527924       98.05859112883097      117.51055666319394
C          102.39209647092221       99.03546812712037      118.18090673265216
C          103.01154522920206      100.41971198342698      118.35843189553093
C          102.04644235220464      101.40900538036801      119.00717653111673
C          102.66573710138026      102.79460729086389      119.17616125578186
C          101.68427195744282      103.79384287779067      119.78387138998234
C          102.29016346424231      105.18711735539975      119.93875354170366
C          101.27784367213131      106.19331585551539      120.48146039820075
C          101.86185441537788      107.59758943152441      120.61886308326260
C          100.81323915220973      108.60939551437626      121.07583626223068
C          101.38124563337975      110.02120890362386      121.20647448664393
C          100.29132336524164      111.03883165597406      121.53668492838771
C          100.81315976394809      112.46177158940213      121.74225463142392
C          101.52907840503188      113.02047863702883      120.51459327909822
C          101.76690341655667      114.52686575463574      120.60472857694309
C          102.71639369258394      115.00641839826692      119.50975231849146
C          102.91184138231833      116.51954019236121      119.51103942787169
C          103.86757210593819      116.97060867850040      118.40820772197455
C          104.09241703113167      118.47971091519987      118.42352506589485
C          104.97124806585541      118.95514508253891      117.26942451147953
C          105.15057456521212      120.47342610290920      117.23646582284471
C          106.05965430585699      121.01823677861564      118.33496676888598
C          106.18170885273111      122.53709971495218      118.24205645727365
C          107.18825082390863      123.13537106055797      119.22357853727630
C          106.76412048272657      123.03129915240746      120.68709278438565
C          107.64255738883352      123.90026918716072      121.58551224756884
C          107.26921057579335      123.81842267812304      123.06739902777952
C          107.76344883937438      122.54087558720505      123.74279995241369
C          107.40990921328883      122.50834780546150      125.22793430610805
C          108.10892107005414      121.38426551444013      125.99449770493175
C          107.67011569865926      119.98314904746717      125.57342685969979
C          108.22559492700358      118.91256213891683      126.50968231007495
C          107.78750993198528      117.50344557628354      126.11497269162592
C          108.18472682582866      116.47939398221557      127.17556868630609
C          107.68967267612787      115.06231335802366      126.87982787682658
C          108.53360291968819      114.31166766845296      125.85178961830172
C          108.01650708190746      112.88878107698216      125.65100668554203
C          108.93245395902959      112.03090679665188      124.78195436886544
C          108.36277577091835      110.62686519610834      124.59511401250788
C          109.28513513813250      109.70769670790540      123.79876469852016
C          108.66850180426292      108.32340715348094      123.61232325229304
C          109.57517138456561      107.37426835368025      122.83365511717713
C          108.94729795473518      105.99152797309507      122.67224409093410
C          109.84784744370285      105.03885122052328      121.89106418332317
C          109.25960047349284      103.63378674398429      121.78054253585010
C          110.17301319258266      102.70587212915915      120.98388884155163
C          109.69692732652767      101.25565467738653      120.97545615044585
C          110.60272208289672      100.37528415727996      120.11511961129671
C          110.32275074962401       98.88756853358996      120.31263550597069
C          111.06001939360554       97.98980416993250      119.31750302023654
C          112.57451801103008       98.19467429193969      119.30046293970467
C          113.28189158860366       97.09730808140219      118.50698201522577
C          114.75003103896292       97.42064813356799      118.24109696357978
C          115.44618864144017       96.29051848418432      117.48636173752345
C          116.90510450485766       96.59004964245840      117.13821522289354
C          117.07014910345498       97.64787153319091      116.04829153919647
C          118.52786100699437       97.79002888948811      115.61591017933316
C          118.71282947629946       98.82190180340064      114.50618739476791
C          120.16459889061562       98.90500942693470      114.04107466939755
C          120.35467667098645       99.91969896051164      112.91684506012142
C          121.80459684222303       99.99608145661587      112.44404643186151
C          121.98207372131853      100.99918349152388      111.30718978877185
C          123.44650359684674      101.17676356806552      110.91317092519184
C          123.62894436107408      102.01850598668688      109.64732711602963
C          123.22396876108314      101.31007033415722      108.35252317613373
C          124.15815047327710      100.16291215186769      107.97433495117717
C          123.69092458940860       99.44300907677803      106.71155362333818
C          124.64250048446787       98.33622517818776      106.25084978459404
C          124.92450503441064       97.24747303563447      107.29001659647794
C          123.66813376244262       96.52568200733121      107.77044442344813
C          123.99071652919258       95.42393222266085      108.77938360465795
C          122.74916769052686       94.65532852644301      109.23746994174688
C          121.83645537411786       95.46993627141015      110.15252614556712
C          120.49871563981178       94.77607937126660      110.40068339100026
C          119.51448520469218       95.68383067903154      111.13472835455285
C          118.11314739855209       95.08096892855521      111.19442687315593
C          117.09416980485726       95.97560595308597      111.90128477948421
C          116.88618155271033       97.31805394692925      111.20336472699150
C          115.72821439357300       98.11340040691471      111.79943895069225
C          115.66860118895585       99.53761700438965      111.25250319716169
C          114.53726953494333      100.34365339489811      111.88244441868109
C          114.51809062406710      101.79640339956396      111.41274202133988
C          113.55084833061076      102.63944874568050      112.23889381829855
C          113.61869891232473      104.12952089795141      111.91344048614221
C          112.82775981389003      104.95198205926023      112.92840006595834
C          112.99851271542106      106.45627566502145      112.73838659610433
C          112.37754933932746      107.24891898351827      113.88591626505433
C          112.59110796426647      108.75547074988134      113.76182728122913
C          112.11774182838717      109.49700177631262      115.00936726403873
C          112.35401439467540      111.00088670288407      114.91862439222018
C          112.01029732308341      111.72205736207587      116.22064155642840
C          112.50505294645649      113.16455773087755      116.21180657224737
C          112.26363952485228      113.89604578236657      117.53061789448381
C          113.07996608904593      115.18359812404655      117.60065107594693
C          112.90894309358060      115.93670053631739      118.91569813346662
C          113.88996308199972      117.10157565752876      119.03338541814549
C          113.67375101642817      117.89535302792100      120.31930952369331
C          114.79463400909364      118.88625928423981      120.63326574567293
C          114.94905183104565      119.99140071876515      119.59230867250830
C          115.97445786798288      121.03986148628604      120.01896357179282
C          116.18554316499770      122.10594705147858      118.94660047103940
C          117.16638248346361      123.18978017403579      119.38680651321600
C          117.33281294862924      124.31199017327768      118.36014843218078
C          118.02046110740821      123.85401102064827      117.07614491626620
C          118.28720722637033      125.00663896008577      116.11044776211860
C          118.92452954200547      124.50657254933533      114.81638004877537
C          119.19101798882105      125.60336170239057      113.78443815094792
C          117.90822012476684      126.19620485524722      113.20552593640009
C          118.16374727050093      127.12450843419843      112.01971551204791
C          116.86311245390455      127.74499635466547      111.51490834049579
C          117.05274983111353      128.65799220745009      110.30540392473333
C          115.72994541012952      129.31475463598440      109.91706933558785
C          115.82563513340418      130.29490175393070      108.74780136779178
C          116.12893632618393      129.62179870616072      107.40994217176437
C          115.82473653846924      130.53832023255279      106.22647598851913
C          116.01429149157595      129.83446055605827      104.88467342146861
C          115.68151714317632      130.74451501883081      103.70896522318348
H          117.04778868426902      129.49129818686933      104.79690484570141
H          115.36813957908009      128.95407032961259      104.84922842852805
H          114.79064044363288      130.88666927888895      106.30116327451820
H          116.47046038778325      131.41898098560242      106.27053908380310
H          117.17599439590676      129.31498560942484      107.37154275686468
H          115.51829943501440      128.72075697798962      107.32202750442327
H          114.86601262925456      130.81264508537754      108.66189981713407
H          116.58601820561188      131.05004103631427      108.96131720699795
H          115.00543455373914      128.53565708282164      109.66859104016240
H          115.34562775349215      129.85252276562611      110.78854613390089
H          117.78802687504204      129.43143567336199      110.54199793717881
H          117.44088352179645      128.07549690723715      109.46761389306836
H          116.16508620324289      126.94758245691820      111.24860798967005
H          116.40875233052449      128.32198761657602      112.32525843783851
H          118.85401579910791      127.91799868063669      112.31799815515694
H          118.63923867386795      126.56331641073336      111.21079009747638
H          117.25715555073221      125.38187169461072      112.87930484588658
H          117.38206368055960      126.75537478463983      113.98151744453018
H          119.79124617033406      126.39736245066726      114.23650598792149
H          119.78001898203199      125.17674353465654      112.96695391160247
H          119.86870467189365      124.01190097610375      115.06083473076308
H          118.27063001388676      123.75611204999315      114.36922727667776
H          117.34274855122105      125.50548930334348      115.88622410810027
H          118.94510180162078      125.74101799831183      116.58358187306375
H          118.96665718586303      123.36951853133185      117.33017875648011
H          117.39467710102873      123.11612023409089      116.57239071644103
H          116.35165362547458      124.72901924999674      118.11802818514741
H          117.92548152582030      125.11311808367195      118.81103067650810
H          116.81182576480317      123.62333054067713      120.32615863108791
H          118.14211434214880      122.73826858842216      119.58260944940780
H          116.55653472618597      121.62322579865119      118.04099557831373
H          115.22629064405038      122.57331085809184      118.71166651339257
H          115.64502194989443      121.51508088237695      120.94679167356301
H          116.92677042538122      120.54655615227909      120.22835989534683
H          115.26412844508125      119.55676847090659      118.64163076739450
H          113.98179181291735      120.47495407117657      119.43514416030222
H          114.59190129285328      119.34726493449054      121.60405182642390
H          115.73847191599111      118.34309015169909      120.72560909248732
H          112.72643723900327      118.43449630847135      120.24941941884252
H          113.59409713852195      117.19303380461817      121.15436364372036
H          114.90978791015398      116.71102853767661      119.01881343113753
H          113.77182901939065      117.75813879857827      118.16897936513892
H          111.88511927063838      116.31327569994916      118.99124186727197
H          113.06762992013587      115.24797450272327      119.74958675703623
H          114.13602716836584      114.93277109104612      117.47529203476303
H          112.80061077112576      115.83630517111098      116.76947078450937
H          111.20054326163240      114.12001966844234      117.64555271855603
H          112.55374576584005      113.24749474201118      118.36128813928931
H          113.58017915549097      113.15287819503752      116.01823413322684
H          112.02957902033238      113.71207209361542      115.39378651446417
H          110.93046042503543      111.69727043298218      116.38465572349757
H          112.47898628474668      111.19481466360585      117.05614868123804
H          113.40667032104129      111.17793048813860      114.68127893464322
H          111.76337884013755      111.41952891551264      114.10031054835126
H          111.05528663382158      109.30478058210424      115.16702185391937
H          112.65455728567035      109.10572394524850      115.87882666867203
H          113.65448049623352      108.96094870991482      113.60806800526501
H          112.05455980739767      109.13356102871060      112.88894073562047
H          111.30769916106848      107.04057486953826      113.93253066886760
H          112.81998110360925      106.90824578286656      114.82653490517919
H          114.06615335893218      106.67963197173808      112.68657167776082
H          112.54913693222910      106.76327193965066      111.79035181979255
H          111.76953478725646      104.69228664434115      112.86436499521670
H          113.17442894775108      104.68670072309742      113.93124753316225
H          114.66376847103480      104.45045492398089      111.93311359802902
H          113.23946887216783      104.31045405930747      110.90494682214610
H          112.52943413941260      102.28019496707657      112.08980423602350
H          113.79696226995028      102.50538442278066      113.29625618449556
H          115.52372476624478      102.20963272424326      111.51320198136051
H          114.24586832232093      101.84171415421309      110.35663477038851
H          113.57807856897500       99.87195942622942      111.65289225274583
H          114.66147621425473      100.32310263409921      112.96875012536488
H          116.61763986618854      100.03933425025660      111.46308061345218
H          115.54233209309044       99.50916491866695      110.16838640193059
H          114.78831715729707       97.59873358871162      111.58690913555925
H          115.83708398282678       98.15481104580394      112.88637907568538
H          117.79819336665436       97.91387723925202      111.28116351135380
H          116.68967961570542       97.14417733033795      110.14319358972787
H          116.13933282055805       95.44581127342444      111.94260113003313
H          117.41917053178406       96.14910527239304      112.93014721240795
H          117.76778388837333       94.88328200575762      110.17633526475602
H          118.15999258215625       94.11894267550080      111.71207746446929
H          119.87395269387927       95.87600120793437      112.14873922111798
H          119.47457901045684       96.63960949545573      110.61033623417569
H          120.06481369404510       94.49495211167273      109.43810006253770
H          120.65663421267564       93.85639669360660      110.96966204741652
H          122.34196903525284       95.65210098152369      111.10423429305378
H          121.63990892614483       96.44174944930937      109.69627848595960
H          122.18592750244161       94.34309987984156      108.35401079101869
H          123.06006885134639       93.74858886843030      109.76266186847235
H          124.69103284054691       94.72090915750142      108.32056232871140
H          124.48802385890014       95.86059076763911      109.64933899209396
H          122.99609613289110       97.24937400671404      108.23023789245183
H          123.15231822727986       96.08854320827754      106.91177031434412
H          125.60498833214288       96.51700095475583      106.84332096890154
H          125.44141848363110       97.68351225139935      108.14723333061053
H          124.21903802205968       97.86754511333849      105.35831347320014
H          125.59554823312131       98.78810780711626      105.96241891249845
H          122.69842752150925       99.02233490483066      106.88290107845690
H          123.59770968331112      100.17124610740055      105.90130188302443
H          125.16759397248624      100.55282443384871      107.81859761660927
H          124.20120187518670       99.44855027321120      108.79615741204655
H          122.20618346318633      100.92747702042733      108.44249252782306
H          123.22739442264816      102.04335877833316      107.54279133927193
H          123.03786728657651      102.93236325963765      109.74966743212062
H          124.67786157544734      102.31514335417498      109.56646376987952
H          123.97627696128957      101.66185029258278      111.73773906751657
H          123.90404974309200      100.19584070798544      110.77263043950828
H          121.41026161746797      100.65108721190609      110.44623679347897
H          121.57176991181498      101.96620842098370      111.60809631027477
H          122.44805330522304      100.27810771316371      113.28172976816488
H          122.12726755343267       99.00724040621091      112.10691360220746
H          119.71679661466811       99.64672431600735      112.07209590357840
H          120.03685331201326      100.90581747901811      113.26394110209202
H          120.80228019574103       99.17662186108679      114.88646592753238
H          120.48698523233736       97.91998036601706      113.69283624386324
H          118.08167215049568       98.55475034834220      113.65737902094858
H          118.38669086807474       99.80171007224864      114.86298143493222
H          119.13428970294882       98.07408831467521      116.47981115075605
H          118.89385104383021       96.81988646747740      115.26710509849552
H          116.46536439228078       97.36542884241933      115.18223692965539
H          116.70833963321655       98.61235369465651      116.40826289195370
H          117.43522580393692       96.91049225864639      118.03892530127422
H          117.37583786938592       95.66422311220119      116.79518452304055
H          115.41070213147485       95.38659533013329      118.10087970100943
H          114.89584129574536       96.08057357499318      116.56660352528806
H          114.80684395071091       98.34157621716923      117.65906022910340
H          115.26478450605013       97.59619931349719      119.18913447326744
H          113.20801465465141       96.15088904453596      119.04974811641526
H          112.77523353992578       96.96535655190000      117.54895648895065
H          112.80483254951078       99.16183998125767      118.85064806772047
H          112.95537941218554       98.20438629129877      120.32481685997661
H          110.84350807994070       96.94720493259895      119.56704267324123
H          110.66924992233042       98.17131749111492      118.31303924459411
H          110.60528775223332       98.60480857710685      121.33041504035381
H          109.24868862817983       98.70945708892935      120.20991097111370
H          110.46338430770695      100.63459625381290      119.06323385591283
H          111.64299517952632      100.58323451021546      120.37055076948504
H          109.69013169671119      100.87493827114295      122.00061945073716
H          108.67166623189107      101.20497898716330      120.60042930121573
H          110.24567662574044      103.06649839128362      119.95509573727061
H          111.17634936681655      102.74300110453159      121.41363475020657
H          109.11457767267865      103.22454905052260      122.78426852143454
H          108.27829884702253      103.68328594950388      121.30239697537009
H          110.01499236520537      105.44112782437637      120.88875126542747
H          110.82003098490588      104.97922027920734      122.38632497045866
H          108.74851727210905      105.56960001115989      123.66151975709505
H          107.98693334223745      106.08685639366622      122.15965750060813
H          109.78178243895643      107.79695916174964      121.84759690617364
H          110.52980596430493      107.27678582544613      123.35649808387936
H          108.45528774473884      107.89083529966962      124.59409274357880
H          107.71557584738895      108.42335511004318      123.08686630028966
H          109.48557785305525      110.15106356553045      122.82143649975355
H          110.24105245095954      109.61188247567860      124.32019374692462
H          108.17800954775224      110.18259429495535      125.57749316627658
H          107.39980774018586      110.69846015076581      124.08369093920567
H          109.06146759707248      112.50456356615229      123.80731550908666
H          109.91793079868877      111.96446699985100      125.25081847410064
H          107.90755357197445      112.40938433426960      126.62829344590460
H          107.02354959755925      112.92883148333546      125.19638437439565
H          108.52279780407223      114.84169027229480      124.89851309766037
H          109.56905099338911      114.27368163570884      126.20012392680061
H          107.69746063844885      114.48870368473023      127.81101876030719
H          106.65345422162103      115.10730728789322      126.53524945022100
H          109.27213146566702      116.46848759027301      127.28242467468941
H          107.76716872418019      116.80136263065209      128.13361999590410
H          106.70140330560383      117.48732812111437      125.99383516422282
H          108.23375773164508      117.23928682913852      125.15525505165324
H          109.31702438548319      118.96439569282406      126.51980594385908
H          107.88031597886659      119.12047540476007      127.52637155041721
H          106.57905591667841      119.93109345600502      125.58732578747049
H          108.00294581158701      119.78105239225771      124.55355877467017
H          109.19007446143827      121.47958724183920      125.86478160960773
H          107.89656191708646      121.50958782377479      127.05988617294970
H          107.70063997451764      123.46183788600266      125.67804681755518
H          106.32779879930730      122.40901729967875      125.34484679247700
H          107.33136296623326      121.67306269993411      123.24425083219394
H          108.84833730030638      122.48302453913922      123.63736335973469
H          107.70531024841648      124.67566846665724      123.58795633737319
H          106.18369414444582      123.89181499160684      123.17215448774428
H          108.68947142986838      123.61101555387987      121.46244795821558
H          107.55254899812944      124.93918701950446      121.25584640834015
H          105.72571617582814      123.35879504124452      120.78342969660491
H          106.81699205518473      121.99260168039345      121.01406611271173
H          108.15582029483112      122.64360015530617      119.09411484055302
H          107.31779304701011      124.19374918667492      118.97780398179187
H          106.48885935764808      122.80298737959426      117.22720486128041
H          105.20118012185966      122.98944730092633      118.41491702678631
H          105.65952291023821      120.74884101618916      119.31252702430598
H          107.05107892840272      120.56889381067721      118.24299301049108
H          105.56904771156726      120.75689945568030      116.26741304843925
H          104.17098833337340      120.95262909961112      117.32275917747654
H          105.94957586580898      118.47543939679539      117.33159219771073
H          104.51042363548048      118.63921054365890      116.32985086341606
H          103.12336991995915      118.98153438995178      118.36063490798419
H          104.54483591579273      118.76229514697495      119.37609642229064
H          104.82586640550713      116.45760033487204      118.52356640518865
H          103.45855199718036      116.67671922611019      117.43799337008113
H          101.94387264336690      117.00895779494729      119.37309897718930
H          103.30349228794329      116.83227823488505      120.48172863274966
H          103.68617072375984      114.51860536140222      119.63885626189601
H          102.31847526831770      114.69714895825611      118.53971917795931
H          100.81221075523648      115.05174658659973      120.51944150484660
H          102.18768241810830      114.77205589777985      121.58371087626202
H          102.49220388303982      112.51850826293179      120.39989722442056
H          100.93360015794329      112.80643480124147      119.62443224918638
H           99.96431435722920      113.10770851635849      121.98232916440600
H          101.49307115469830      112.48155010419319      122.59836966180293
H           99.55859164131812      111.04493154695716      120.72649693895657
H           99.77181598051719      110.72051636985159      122.44475464512163
H          102.14879929478715      110.03769540552649      121.98435451975639
H          101.85830676130335      110.29508967885681      120.26384594809315
H           99.99315106287145      108.62159697200794      120.35317732551988
H          100.39792210848250      108.29362102762599      122.03651680846639
H          102.69155028181754      107.58167099506881      121.32979423932905
H          102.26501623258380      107.91368367146416      119.65347758884846
H          100.41640819630689      106.23025636821181      119.81002609378493
H          100.91770133215033      105.85450276842660      121.45652421996289
H          103.15255438847247      105.13842658322665      120.60763892594858
H          102.65177723035583      105.53102972152350      118.96660831014178
H          100.79893277386749      103.85777210640822      119.14670391510606
H          101.35754144021260      103.43098403491535      120.76209980917204
H          103.55183714230708      102.72175195630574      119.81083247173677
H          102.99418946812395      103.16191465320054      118.20084290762733
H          101.14696188680841      101.48987282747383      118.39205590210244
H          101.74075042469235      101.02773471806923      119.98517577251901
H          103.91271002536160      100.33698031711992      118.97027263494354
H          103.31658343895715      100.80346304465985      117.38169419757102
H          101.48532169152259       99.12065386533864      117.57691758060636
H          102.09879907616642       98.64172690163569      119.15767283861929
H          104.25960835501924       97.96722337642163      118.11648641783607
H          103.65475526303982       98.46042997191691      116.53915258306137
H          101.83454001284220       96.76711718881828      116.70403477065376
H          102.44332059313652       96.26674352802927      118.28040247406614
H          104.60404567008052       95.60393253166839      117.24338714491468
H          104.01624571249489       96.13582853363988      115.67092419222257
H          103.79312052708273       93.67742864167255      115.90382294715396
H          102.78685808484330       93.88857835578078      117.33701562556834
H          102.20162082688229       94.42624605245614      115.76288352311958
H          114.65055009649166      131.08708759339493      103.77226165868551
H          116.32988588751853      131.61814824087244      103.70426438647524
H          115.80987312819030      130.21597414218684      102.76706119913082
C           97.48830599509152      109.56596073755543      102.80902587943638
C           97.14708442968083      109.02359544373387      104.19142588257107
C           96.73785517634506      110.11330915872669      105.18070539029955
C           95.41721901847146      110.78915731696773      104.81927779266655
C           94.95104206948510      111.79704272443932      105.87137534570564
C           95.94995953736809      112.93496059485484      106.07094381782096
C           95.37377456257676      114.09330269010931      106.88253699376979
C           96.44143389768277      115.10151633595247      107.30997967362082
C           97.08258414391138      115.85999511938464      106.14922066310882
C           98.27784067869995      116.69115119137575      106.60992331810721
C           98.95753792451438      117.40965869005984      105.44702998533650
C          100.20387047915919      118.19395759038774      105.85730360437329
C          101.34683148438866      117.31349064815932      106.35516548129658
C          102.61027205232881      118.11910944739645      106.64555623502311
C          103.69607039831459      117.26422468104715      107.29320625399015
C          104.99562953085174      118.03404372433994      107.51236117183322
C          106.03878459945417      117.17047742437060      108.21620657969720
C          107.28488107225836      117.93348856835229      108.66058541113314
C          108.04925234416392      118.58489531139382      107.51097972746348
C          109.42272247117282      119.07475818378906      107.96407527079874
C          110.13230097505313      119.94874530361976      106.93030054922365