      -----------------------------------------------------------      
     |                   =====================                   |     
     |                           x T B                           |     
     |                   =====================                   |     
     |                         S. Grimme                         |     
     |          Mulliken Center for Theoretical Chemistry        |     
     |                    University of Bonn                     |     
      -----------------------------------------------------------      

   * xtb version 6.6.1 (8d0f1dd) compiled by 'stahn@M-Bot' on 2023-08-01

   xtb is free software: you can redistribute it and/or modify it under
   the terms of the GNU Lesser General Public License as published by
   the Free Software Foundation, either version 3 of the License, or
   (at your option) any later version.
   
   xtb is distributed in the hope that it will be useful,
   but WITHOUT ANY WARRANTY; without even the implied warranty of
   MERCHANTABILITY or FITNESS FOR A PARTICULAR PURPOSE.  See the
   GNU Lesser General Public License for more details.
   
   Cite this work as:
   * C. Bannwarth, E. Caldeweyher, S. Ehlert, A. Hansen, P. Pracht,
     J. Seibert, S. Spicher, S. Grimme, WIREs Comput. Mol. Sci., 2020, 11,
     e01493. DOI: 10.1002/wcms.1493
   
   for GFN2-xTB:
   * C. Bannwarth, S. Ehlert and S. Grimme., J. Chem. Theory Comput., 2019,
     15, 1652-1671. DOI: 10.1021/acs.jctc.8b01176
   for GFN1-xTB:
   * S. Grimme, C. Bannwarth, P. Shushkov, J. Chem. Theory Comput., 2017,
     13, 1989-2009. DOI: 10.1021/acs.jctc.7b00118
   for GFN0-xTB:
   * P. Pracht, E. Caldeweyher, S. Ehlert, S. Grimme, ChemRxiv, 2019, preprint.
     DOI: 10.26434/chemrxiv.8326202.v1
   for GFN-FF:
   * S. Spicher and S. Grimme, Angew. Chem. Int. Ed., 2020, 59, 15665-15673.
     DOI: 10.1002/anie.202004239
   
   for ALPB and GBSA implicit solvation:
   * S. Ehlert, M. Stahn, S. Spicher, S. Grimme, J. Chem. Theory Comput.,
     2021, 17, 4250-4261. DOI: 10.1021/acs.jctc.1c00471
   
   for DFT-D4:
   * E. Caldeweyher, C. Bannwarth and S. Grimme, J. Chem. Phys., 2017,
     147, 034112. DOI: 10.1063/1.4993215
   * E. Caldeweyher, S. Ehlert, A. Hansen, H. Neugebauer, S. Spicher,
     C. Bannwarth and S. Grimme, J. Chem. Phys., 2019, 150, 154122.
     DOI: 10.1063/1.5090222
   * E. Caldeweyher, J.-M. Mewes, S. Ehlert and S. Grimme, Phys. Chem. Chem. Phys.
     2020, 22, 8499-8512. DOI: 10.1039/D0CP00502A
   
   for sTDA-xTB:
   * S. Grimme and C. Bannwarth, J. Chem. Phys., 2016, 145, 054103.
     DOI: 10.1063/1.4959605
   
   in the mass-spec context:
   * V. Asgeirsson, C. Bauer and S. Grimme, Chem. Sci., 2017, 8, 4879.
     DOI: 10.1039/c7sc00601b
   * J. Koopman and S. Grimme, ACS Omega 2019, 4, 12, 15120-15133.
     DOI: 10.1021/acsomega.9b02011
   
   for metadynamics refer to:
   * S. Grimme, J. Chem. Theory Comput., 2019, 155, 2847-2862
     DOI: 10.1021/acs.jctc.9b00143
   
   for SPH calculations refer to:
   * S. Spicher and S. Grimme, J. Chem. Theory Comput., 2021, 17, 1701-1714
     DOI: 10.1021/acs.jctc.0c01306
   
   with help from (in alphabetical order)
   P. Atkinson, C. Bannwarth, F. Bohle, G. Brandenburg, E. Caldeweyher
   M. Checinski, S. Dohm, S. Ehlert, S. Ehrlich, I. Gerasimov, C. Hölzer
   A. Katbashev, J. Koopman, C. Lavigne, S. Lehtola, F. März, M. Müller,
   F. Musil, H. Neugebauer, J. Pisarek, C. Plett, P. Pracht, F. Pultar,
   J. Seibert, P. Shushkov, S. Spicher, M. Stahn, M. Steiner, T. Strunk,
   J. Stückrath, T. Rose, and J. Unsleber
   
 * started run on 2024/06/17 at 15:18:47.010     

           -------------------------------------------------
          |                Calculation Setup                |
           -------------------------------------------------

          program call               : /home/abt-grimme/AK-bin/xtb input.xyz --input input.inp --opt --gbsa water
          hostname                   : boar014.thch.uni-bonn.de
          coordinate file            : input.xyz
          omp threads                :                     8

   ID    Z sym.   atoms
    1    6 C      1-120, 363-482, 725-844, 1087-1206, 1449-1568, 1811-1930,
                  2173-2292, 2535-2654, 2897-3016
    2    1 H      121-362, 483-724, 845-1086, 1207-1448, 1569-1810,
                  1931-2172, 2293-2534, 2655-2896, 3017-3258

molecular fragmentation (1/2 indicates fragments):
111111111111111111111111111111111111111111111111111111111111111111111111
111111111111111111111111111111111111111111111111111111111111111111111111
111111111111111111111111111111111111111111111111111111111111111111111111
111111111111111111111111111111111111111111111111111111111111111111111111
111111111111111111111111111111111111111111111111111111111111111111111111
112222222222222222222222222222222222222222222222222222222222222222222222
222222222222222222222222222222222222222222222222222222222222222222222222
222222222222222222222222222222222222222222222222222222222222222222222222
222222222222222222222222222222222222222222222222222222222222222222222222
222222222222222222222222222222222222222222222222222222222222222222222222
222222222222222222222222222222222222222222222222222222222222222222222222
222222222222222222222222222222222222222222222222222222222222222222222222
222222222222222222222222222222222222222222222222222222222222222222222222
222222222222222222222222222222222222222222222222222222222222222222222222
222222222222222222222222222222222222222222222222222222222222222222222222
222222222222222222222222222222222222222222222222222222222222222222222222
222222222222222222222222222222222222222222222222222222222222222222222222
222222222222222222222222222222222222222222222222222222222222222222222222
222222222222222222222222222222222222222222222222222222222222222222222222
222222222222222222222222222222222222222222222222222222222222222222222222
222222222222222222222222222222222222222222222222222222222222222222222222
222222222222222222222222222222222222222222222222222222222222222222222222
222222222222222222222222222222222222222222222222222222222222222222222222
222222222222222222222222222222222222222222222222222222222222222222222222
222222222222222222222222222222222222222222222222222222222222222222222222
222222222222222222222222222222222222222222222222222222222222222222222222
222222222222222222222222222222222222222222222222222222222222222222222222
222222222222222222222222222222222222222222222222222222222222222222222222
222222222222222222222222222222222222222222222222222222222222222222222222
222222222222222222222222222222222222222222222222222222222222222222222222
222222222222222222222222222222222222222222222222222222222222222222222222
222222222222222222222222222222222222222222222222222222222222222222222222
222222222222222222222222222222222222222222222222222222222222222222222222
222222222222222222222222222222222222222222222222222222222222222222222222
222222222222222222222222222222222222222222222222222222222222222222222222
222222222222222222222222222222222222222222222222222222222222222222222222
222222222222222222222222222222222222222222222222222222222222222222222222
222222222222222222222222222222222222222222222222222222222222222222222222
222222222222222222222222222222222222222222222222222222222222222222222222
222222222222222222222222222222222222222222222222222222222222222222222222
222222222222222222222222222222222222222222222222222222222222222222222222
222222222222222222222222222222222222222222222222222222222222222222222222
222222222222222222222222222222222222222222222222222222222222222222222222
222222222222222222222222222222222222222222222222222222222222222222222222
222222222222222222222222222222222222222222222222222222222222222222222222
222222222222222222
# atoms in fragment 1/2:   362  2896
 fragment masses (1/2) :     1685.21    13481.68
CMA distance (Bohr)    :  15.123
constraining FC (au)   :  0.0500

           -------------------------------------------------
          |                 G F N 2 - x T B                 |
           -------------------------------------------------

        Reference                      10.1021/acs.jctc.8b01176
      * Hamiltonian:
        H0-scaling (s, p, d)           1.850000    2.230000    2.230000
        zeta-weighting                 0.500000
      * Dispersion:
        s8                             2.700000
        a1                             0.520000
        a2                             5.000000
        s9                             5.000000
      * Repulsion:
        kExp                           1.500000    1.000000
        rExp                           1.000000
      * Coulomb:
        alpha                          2.000000
        third order                    shell-resolved
        anisotropic                    true
        a3                             3.000000
        a5                             4.000000
        cn-shift                       1.200000
        cn-exp                         4.000000
        max-rad                        5.000000

      * Solvation model:               GBSA
        Solvent                        water
        Parameter file                 internal GFN2-xTB/GBSA
        Dielectric constant                8.0200E+01
        Reference state                gsolv [1 M gas/solution]
        Free energy shift                  1.8574E-03 Eh       1.1656E+00 kcal/mol
        Temperature                        2.9815E+02 K
        Density                            1.0000E+00 kg/L
        Solvent mass                       1.8000E+01 g/mol
        Interaction kernel             Still
        Born radius scaling (c1)           1.5524E+00
        Born radii integrator          GBOBC
        Born offset                        2.4628E-02 a0       4.6540E-02 AA
        H-bond correction              true
        Ion screening                  false
        Surface tension                    1.0000E-05 Eh       1.5569E+01 dyn/cm
        Grid points                               230 per atom
q/qsh data taken from xtbrestart
CAMM data taken from xtbrestart

          ...................................................
          :                      SETUP                      :
          :.................................................:
          :  # basis functions                6498          :
          :  # atomic orbitals                6498          :
          :  # shells                         4338          :
          :  # electrons                      6498          :
          :  max. iterations                   250          :
          :  Hamiltonian                  GFN2-xTB          :
          :  restarted?                       true          :
          :  GBSA solvation                   true          :
          :  PC potential                    false          :
          :  electronic temp.          300.0000000     K    :
          :  accuracy                    1.0000000          :
          :  -> integral cutoff          0.2500000E+02      :
          :  -> integral neglect         0.1000000E-07      :
          :  -> SCF convergence          0.1000000E-05 Eh   :
          :  -> wf. convergence          0.1000000E-03 e    :
          :  Broyden damping             0.4000000          :
          ...................................................

 iter      E             dE          RMSdq      gap      omega  full diag
   1  -3472.2912211 -0.347229E+04  0.104E-04   10.57       0.0  T
   2  -3472.2912211 -0.675527E-08  0.800E-05   10.57      21.9  T
   3  -3472.2912211 -0.953514E-08  0.395E-05   10.57      44.3  T

   *** convergence criteria satisfied after 3 iterations ***

         #    Occupation            Energy/Eh            Energy/eV
      -------------------------------------------------------------
         1        2.0000           -0.6171072             -16.7923
       ...           ...                  ...                  ...
      3243        2.0000           -0.3836762             -10.4404
      3244        2.0000           -0.3833612             -10.4318
      3245        2.0000           -0.3832066             -10.4276
      3246        2.0000           -0.3829923             -10.4217
      3247        2.0000           -0.3827274             -10.4145
      3248        2.0000           -0.3815257             -10.3818
      3249        2.0000           -0.3800868             -10.3427 (HOMO)
      3250                          0.0084269               0.2293 (LUMO)
      3251                          0.0156500               0.4259
      3252                          0.0170135               0.4630
      3253                          0.0202106               0.5500
      3254                          0.0205409               0.5589
       ...                                ...                  ...
      6498                          0.3817794              10.3887
      -------------------------------------------------------------
                  HL-Gap            0.3885137 Eh           10.5720 eV
             Fermi-level           -0.1858299 Eh           -5.0567 eV

 SCC (total)                   0 d,  0 h,  6 min, 48.216 sec
 SCC setup                      ...        0 min,  1.746 sec (  0.428%)
 Dispersion                     ...        0 min,  3.499 sec (  0.857%)
 classical contributions        ...        0 min,  0.145 sec (  0.035%)
 integral evaluation            ...        0 min,  6.609 sec (  1.619%)
 iterations                     ...        2 min, 52.893 sec ( 42.353%)
 molecular gradient             ...        3 min, 34.596 sec ( 52.569%)
 printout                       ...        0 min,  8.728 sec (  2.138%)

         :::::::::::::::::::::::::::::::::::::::::::::::::::::
         ::                     SUMMARY                     ::
         :::::::::::::::::::::::::::::::::::::::::::::::::::::
         :: total energy           -3426.796035990413 Eh    ::
         :: total w/o Gsasa/hb     -3426.707780624256 Eh    ::
         :: gradient norm              0.637704627310 Eh/a0 ::
         :: HOMO-LUMO gap             10.571995959320 eV    ::
         ::.................................................::
         :: SCC energy             -3472.291221089093 Eh    ::
         :: -> isotropic ES            0.279753507552 Eh    ::
         :: -> anisotropic ES          1.283183280661 Eh    ::
         :: -> anisotropic XC          2.128080953381 Eh    ::
         :: -> dispersion             -4.294062178175 Eh    ::
         :: -> Gsolv                  -0.025681691747 Eh    ::
         ::    -> Gelec                0.062573674410 Eh    ::
         ::    -> Gsasa               -0.086426342705 Eh    ::
         ::    -> Ghb                 -0.003686466580 Eh    ::
         ::    -> Gshift               0.001857443127 Eh    ::
         :: repulsion energy          44.770085047784 Eh    ::
         :: add. restraining           0.000000000000 Eh    ::
         :: total charge              -0.000000000012 e     ::
         :::::::::::::::::::::::::::::::::::::::::::::::::::::

      ----------------------------------------------------------- 
     |              Fast Inertial Relaxation Engine              |
      ----------------------------------------------------------- 

          ...................................................
          :                      SETUP                      :
          :.................................................:
          :   energy convergence        0.5000000E-05 Eh    :
          :   grad. convergence         0.1000000E-02 Eh/a0 :
          :   optimization log               true           :
          :   writing optlog all                1     steps :
          :   Hessian reset                    20     steps :
          :   time step scaling                 5     steps :
          :   maximium step len.        1.0000000     a0    :
          :   initial time step         0.2500000     fs    :
          :   maximum time step         1.2500000     fs    :
          :   power reset thr           0.0000000     au    :
          :   alpha parameter           0.1000000           :
          :   BFGS update                   false           :
          :   preconditioning               false           :
          ...................................................

........................................................................
.............................. CYCLE    1 ..............................
........................................................................

 iter      E             dE          RMSdq      gap      omega  full diag
   1  -3472.5264944 -0.347253E+04  0.758E-03   10.61       0.0  T
   2  -3472.5265398 -0.453901E-04  0.399E-03   10.61       1.0  T
   3  -3472.5265402 -0.433004E-06  0.185E-03   10.61       1.0  T
   4  -3472.5265404 -0.160308E-06  0.228E-04   10.61       7.7  T
   5  -3472.5265404 -0.389100E-07  0.147E-04   10.61      11.9  T
     SCC iter.                  ...        4 min, 39.736 sec
     gradient                   ...        3 min, 32.195 sec
 * total energy  : -3426.8422437 Eh     change    :  -0.4620773E-01 Eh
   gradient norm :     0.6032442 Eh/a0  converged?    E=F G=F D=F
   time step     :     0.2500000 fs     power     :   0.2383660E-05
   step length   :     0.0747376 a0     speed     :   0.7231267E-02

........................................................................
.............................. CYCLE    2 ..............................
........................................................................

 iter      E             dE          RMSdq      gap      omega  full diag
   1  -3472.8731188 -0.347287E+04  0.111E-02   10.67       0.0  T
   2  -3472.8732159 -0.970839E-04  0.583E-03   10.67       1.0  T
   3  -3472.8732169 -0.997409E-06  0.270E-03   10.67       1.0  T
   4  -3472.8732173 -0.392202E-06  0.352E-04   10.67       5.0  T
   5  -3472.8732174 -0.922942E-07  0.235E-04   10.67       7.5  T
     SCC iter.                  ...        4 min, 43.857 sec
     gradient                   ...        3 min, 36.730 sec
 * total energy  : -3426.9057239 Eh     change    :  -0.6348017E-01 Eh
   gradient norm :     0.5536207 Eh/a0  converged?    E=F G=F D=F
   time step     :     0.2500000 fs     power     :   0.3220101E-05
   step length   :     0.1099846 a0     speed     :   0.1064160E-01

........................................................................
.............................. CYCLE    3 ..............................
........................................................................

 iter      E             dE          RMSdq      gap      omega  full diag
   1  -3473.3218439 -0.347332E+04  0.142E-02   10.74       0.0  T
   2  -3473.3220017 -0.157789E-03  0.747E-03   10.74       1.0  T
   3  -3473.3220034 -0.171435E-05  0.344E-03   10.74       1.0  T
   4  -3473.3220041 -0.669211E-06  0.462E-04   10.74       3.8  T
   5  -3473.3220042 -0.154449E-06  0.309E-04   10.74       5.7  T
     SCC iter.                  ...        4 min, 46.089 sec
     gradient                   ...        3 min, 38.198 sec
 * total energy  : -3426.9797898 Eh     change    :  -0.7406590E-01 Eh
   gradient norm :     0.4917016 Eh/a0  converged?    E=F G=F D=F
   time step     :     0.2500000 fs     power     :   0.3683551E-05
   step length   :     0.1423159 a0     speed     :   0.1376982E-01

........................................................................
.............................. CYCLE    4 ..............................
........................................................................

 iter      E             dE          RMSdq      gap      omega  full diag
   1  -3473.8609628 -0.347386E+04  0.168E-02   10.81       0.0  T
   2  -3473.8611800 -0.217205E-03  0.883E-03   10.81       1.0  T
   3  -3473.8611825 -0.253066E-05  0.403E-03   10.81       1.0  T
   4  -3473.8611835 -0.956507E-06  0.557E-04   10.80       3.1  T
   5  -3473.8611837 -0.214739E-06  0.372E-04   10.80       4.7  T
     SCC iter.                  ...        4 min, 41.139 sec
     gradient                   ...        3 min, 40.784 sec
 * total energy  : -3427.0569396 Eh     change    :  -0.7714985E-01 Eh
   gradient norm :     0.4220607 Eh/a0  converged?    E=F G=F D=F
   time step     :     0.2500000 fs     power     :   0.3744479E-05
   step length   :     0.1708626 a0     speed     :   0.1653188E-01

........................................................................
.............................. CYCLE    5 ..............................
........................................................................

 iter      E             dE          RMSdq      gap      omega  full diag
   1  -3474.4764298 -0.347448E+04  0.188E-02   10.83       0.0  T
   2  -3474.4766940 -0.264272E-03  0.987E-03   10.83       1.0  T
   3  -3474.4766974 -0.338850E-05  0.444E-03   10.83       1.0  T
   4  -3474.4766986 -0.121487E-05  0.637E-04   10.83       2.7  T
   5  -3474.4766989 -0.261336E-06  0.422E-04   10.83       4.1  T
   6  -3474.4766991 -0.168176E-06  0.189E-04   10.83       9.3  T
     SCC iter.                  ...        5 min, 36.578 sec
     gradient                   ...        3 min, 34.455 sec
 * total energy  : -3427.1299357 Eh     change    :  -0.7299603E-01 Eh
   gradient norm :     0.3517208 Eh/a0  converged?    E=F G=F D=F
   time step     :     0.2500000 fs     power     :   0.3434782E-05
   step length   :     0.1948789 a0     speed     :   0.1885558E-01

........................................................................
.............................. CYCLE    6 ..............................
........................................................................

 iter      E             dE          RMSdq      gap      omega  full diag
   1  -3475.2255238 -0.347523E+04  0.223E-02   10.84       0.0  T
   2  -3475.2258768 -0.352979E-03  0.117E-02   10.84       1.0  T
   3  -3475.2258819 -0.510370E-05  0.512E-03   10.84       1.0  T
   4  -3475.2258835 -0.162957E-05  0.761E-04   10.84       2.3  T
   5  -3475.2258839 -0.329548E-06  0.491E-04   10.83       3.6  T
   6  -3475.2258841 -0.189784E-06  0.203E-04   10.83       8.6  T
     SCC iter.                  ...        5 min, 29.196 sec
     gradient                   ...        3 min, 34.929 sec
 * total energy  : -3427.1988422 Eh     change    :  -0.6890652E-01 Eh
   gradient norm :     0.2846703 Eh/a0  converged?    E=F G=F D=F
   time step     :     0.2750000 fs     power     :   0.2764026E-05
   step length   :     0.2372065 a0     speed     :   0.2086455E-01

........................................................................
.............................. CYCLE    7 ..............................
........................................................................

 iter      E             dE          RMSdq      gap      omega  full diag
   1  -3476.1021991 -0.347610E+04  0.253E-02   10.84       0.0  T
   2  -3476.1026120 -0.412864E-03  0.133E-02   10.84       1.0  T
   3  -3476.1026194 -0.744544E-05  0.555E-03   10.84       1.0  T
   4  -3476.1026215 -0.209722E-05  0.894E-04   10.84       2.0  T
   5  -3476.1026219 -0.374486E-06  0.564E-04   10.84       3.1  T
   6  -3476.1026221 -0.213581E-06  0.212E-04   10.83       8.3  T
     SCC iter.                  ...        5 min, 31.797 sec
     gradient                   ...        3 min, 37.257 sec
 * total energy  : -3427.2554381 Eh     change    :  -0.5659595E-01 Eh
   gradient norm :     0.2422425 Eh/a0  converged?    E=F G=F D=F
   time step     :     0.3025000 fs     power     :   0.1838549E-05
   step length   :     0.2789988 a0     speed     :   0.2230961E-01

........................................................................
.............................. CYCLE    8 ..............................
........................................................................

 iter      E             dE          RMSdq      gap      omega  full diag
   1  -3477.0685973 -0.347707E+04  0.275E-02   10.84       0.0  T
   2  -3477.0689895 -0.392195E-03  0.146E-02   10.84       1.0  T
   3  -3477.0689996 -0.100701E-04  0.544E-03   10.84       1.0  T
   4  -3477.0690019 -0.232418E-05  0.999E-04   10.84       1.8  T
   5  -3477.0690023 -0.339687E-06  0.608E-04   10.83       2.9  T
   6  -3477.0690025 -0.198245E-06  0.198E-04   10.83       8.9  T
     SCC iter.                  ...        5 min, 37.756 sec
     gradient                   ...        3 min, 37.497 sec
 * total energy  : -3427.2945053 Eh     change    :  -0.3906718E-01 Eh
   gradient norm :     0.2398365 Eh/a0  converged?    E=F G=F D=F
   time step     :     0.3327500 fs     power     :   0.9155022E-06
   step length   :     0.3140706 a0     speed     :   0.2283097E-01

........................................................................
.............................. CYCLE    9 ..............................
........................................................................

 iter      E             dE          RMSdq      gap      omega  full diag
   1  -3478.0472055 -0.347805E+04  0.292E-02   10.84       0.0  T
   2  -3478.0474817 -0.276177E-03  0.159E-02   10.84       1.0  T
   3  -3478.0474939 -0.122599E-04  0.455E-03   10.83       1.0  T
   4  -3478.0474960 -0.203617E-05  0.105E-03   10.83       1.7  T
   5  -3478.0474962 -0.216545E-06  0.598E-04   10.83       2.9  T
   6  -3478.0474963 -0.140794E-06  0.154E-04   10.83      11.4  T
     SCC iter.                  ...        5 min, 34.335 sec
     gradient                   ...        3 min, 37.702 sec
 * total energy  : -3427.3172543 Eh     change    :  -0.2274896E-01 Eh
   gradient norm :     0.2564325 Eh/a0  converged?    E=F G=F D=F
   time step     :     0.3660250 fs     power     :   0.2633330E-06
   step length   :     0.3368538 a0     speed     :   0.2226106E-01

........................................................................
.............................. CYCLE   10 ..............................
........................................................................

 iter      E             dE          RMSdq      gap      omega  full diag
   1  -3478.9446147 -0.347894E+04  0.312E-02   10.83       0.0  T
   2  -3478.9447434 -0.128736E-03  0.177E-02   10.83       1.0  T
   3  -3478.9447567 -0.133148E-04  0.290E-03   10.83       1.0  T
   4  -3478.9447582 -0.143030E-05  0.105E-03   10.83       1.7  T
   5  -3478.9447582 -0.730965E-07  0.517E-04   10.83       3.4  T
   6  -3478.9447583 -0.784444E-07  0.895E-05   10.83      19.6  T
     SCC iter.                  ...        5 min, 34.081 sec
     gradient                   ...        3 min, 35.316 sec
 * total energy  : -3427.3290418 Eh     change    :  -0.1178749E-01 Eh
   gradient norm :     0.2571226 Eh/a0  converged?    E=F G=F D=F
   time step     :     0.4026275 fs     power     :  -0.9447862E-07
   step length   :     0.3492127 a0     speed     :   0.2097982E-01

........................................................................
.............................. CYCLE   11 ..............................
........................................................................
 * reset velocities

 iter      E             dE          RMSdq      gap      omega  full diag
   1  -3478.9272477 -0.347893E+04  0.120E-03   10.83       0.0  T
   2  -3478.9272485 -0.824358E-06  0.686E-04   10.83       2.6  T
   3  -3478.9272485 -0.492855E-08  0.272E-04   10.83       6.4  T
     SCC iter.                  ...        2 min, 51.895 sec
     gradient                   ...        3 min, 37.528 sec
 * total energy  : -3427.3315183 Eh     change    :  -0.2476573E-02 Eh
   gradient norm :     0.2498678 Eh/a0  converged?    E=F G=F D=F
   time step     :     0.2013138 fs     power     :   0.1609094E-06
   step length   :     0.0097701 a0     speed     :   0.1173920E-02

........................................................................
.............................. CYCLE   12 ..............................
........................................................................

 iter      E             dE          RMSdq      gap      omega  full diag
   1  -3478.8926744 -0.347889E+04  0.235E-03   10.83       0.0  T
   2  -3478.8926776 -0.318626E-05  0.135E-03   10.83       1.3  T
   3  -3478.8926776 -0.187329E-07  0.535E-04   10.83       3.3  T
   4  -3478.8926776 -0.889986E-08  0.456E-05   10.83      38.4  T
     SCC iter.                  ...        3 min, 50.719 sec
     gradient                   ...        3 min, 35.918 sec
 * total energy  : -3427.3361948 Eh     change    :  -0.4676480E-02 Eh
   gradient norm :     0.2356519 Eh/a0  converged?    E=F G=F D=F
   time step     :     0.2013138 fs     power     :   0.2991985E-06
   step length   :     0.0192644 a0     speed     :   0.2314708E-02

........................................................................
.............................. CYCLE   13 ..............................
........................................................................

 iter      E             dE          RMSdq      gap      omega  full diag
   1  -3478.8419296 -0.347884E+04  0.344E-03   10.83       0.0  T
   2  -3478.8419365 -0.689855E-05  0.197E-03   10.83       1.0  T
   3  -3478.8419365 -0.478904E-07  0.789E-04   10.83       2.2  T
   4  -3478.8419366 -0.254859E-07  0.778E-05   10.83      22.5  T
     SCC iter.                  ...        3 min, 42.986 sec
     gradient                   ...        3 min, 38.194 sec
 * total energy  : -3427.3425511 Eh     change    :  -0.6356275E-02 Eh
   gradient norm :     0.2149421 Eh/a0  converged?    E=F G=F D=F
   time step     :     0.2013138 fs     power     :   0.3996092E-06
   step length   :     0.0282178 a0     speed     :   0.3390513E-02

........................................................................
.............................. CYCLE   14 ..............................
........................................................................

 iter      E             dE          RMSdq      gap      omega  full diag
   1  -3478.7763483 -0.347878E+04  0.442E-03   10.83       0.0  T
   2  -3478.7763598 -0.114801E-04  0.254E-03   10.83       1.0  T
   3  -3478.7763599 -0.845243E-07  0.102E-03   10.83       1.7  T
   4  -3478.7763599 -0.461519E-07  0.105E-04   10.83      16.7  T
   5  -3478.7763599 -0.127116E-07  0.732E-05   10.83      23.9  T
     SCC iter.                  ...        4 min, 36.134 sec
     gradient                   ...        3 min, 34.032 sec
 * total energy  : -3427.3498848 Eh     change    :  -0.7333712E-02 Eh
   gradient norm :     0.1884742 Eh/a0  converged?    E=F G=F D=F
   time step     :     0.2013138 fs     power     :   0.4513298E-06
   step length   :     0.0363818 a0     speed     :   0.4371448E-02

........................................................................
.............................. CYCLE   15 ..............................
........................................................................

 iter      E             dE          RMSdq      gap      omega  full diag
   1  -3478.6977155 -0.347870E+04  0.527E-03   10.83       0.0  T
   2  -3478.6977320 -0.164237E-04  0.302E-03   10.83       1.0  T
   3  -3478.6977321 -0.113266E-06  0.122E-03   10.83       1.4  T
   4  -3478.6977321 -0.601335E-07  0.120E-04   10.83      14.6  T
   5  -3478.6977321 -0.167165E-07  0.819E-05   10.83      21.4  T
     SCC iter.                  ...        4 min, 38.612 sec
     gradient                   ...        3 min, 33.830 sec
 * total energy  : -3427.3573947 Eh     change    :  -0.7509847E-02 Eh
   gradient norm :     0.1573127 Eh/a0  converged?    E=F G=F D=F
   time step     :     0.2013138 fs     power     :   0.4494341E-06
   step length   :     0.0435317 a0     speed     :   0.5230547E-02

........................................................................
.............................. CYCLE   16 ..............................
........................................................................

 iter      E             dE          RMSdq      gap      omega  full diag
   1  -3478.6082685 -0.347861E+04  0.595E-03   10.83       0.0  T
   2  -3478.6082897 -0.211464E-04  0.342E-03   10.83       1.0  T
   3  -3478.6082898 -0.144407E-06  0.138E-03   10.83       1.3  T
   4  -3478.6082899 -0.765140E-07  0.135E-04   10.83      13.0  T
   5  -3478.6082899 -0.213281E-07  0.922E-05   10.83      19.0  T
     SCC iter.                  ...        4 min, 41.274 sec
     gradient                   ...        3 min, 33.767 sec
 * total energy  : -3427.3642766 Eh     change    :  -0.6881957E-02 Eh
   gradient norm :     0.1228946 Eh/a0  converged?    E=F G=F D=F
   time step     :     0.2013138 fs     power     :   0.3953788E-06
   step length   :     0.0494738 a0     speed     :   0.5944519E-02

........................................................................
.............................. CYCLE   17 ..............................
........................................................................

 iter      E             dE          RMSdq      gap      omega  full diag
   1  -3478.5001048 -0.347850E+04  0.713E-03   10.83       0.0  T
   2  -3478.5001356 -0.307862E-04  0.410E-03   10.83       1.0  T
   3  -3478.5001358 -0.205625E-06  0.167E-03   10.83       1.0  T
   4  -3478.5001359 -0.108114E-06  0.161E-04   10.83      10.9  T
   5  -3478.5001359 -0.305545E-07  0.108E-04   10.83      16.2  T
     SCC iter.                  ...        4 min, 33.770 sec
     gradient                   ...        3 min, 32.634 sec
 * total energy  : -3427.3703080 Eh     change    :  -0.6031383E-02 Eh
   gradient norm :     0.0840098 Eh/a0  converged?    E=F G=F D=F
   time step     :     0.2214451 fs     power     :   0.2849834E-06
   step length   :     0.0599498 a0     speed     :   0.6548426E-02

........................................................................
.............................. CYCLE   18 ..............................
........................................................................

 iter      E             dE          RMSdq      gap      omega  full diag
   1  -3478.3749852 -0.347837E+04  0.817E-03   10.83       0.0  T
   2  -3478.3750264 -0.411213E-04  0.470E-03   10.83       1.0  T
   3  -3478.3750266 -0.271788E-06  0.193E-03   10.83       1.0  T
   4  -3478.3750268 -0.141024E-06  0.184E-04   10.83       9.5  T
   5  -3478.3750268 -0.405603E-07  0.123E-04   10.83      14.3  T
     SCC iter.                  ...        4 min, 39.007 sec
     gradient                   ...        3 min, 34.336 sec
 * total energy  : -3427.3742816 Eh     change    :  -0.3973562E-02 Eh
   gradient norm :     0.0503911 Eh/a0  converged?    E=F G=F D=F
   time step     :     0.2435896 fs     power     :   0.1245138E-06
   step length   :     0.0700916 a0     speed     :   0.6960207E-02

........................................................................
.............................. CYCLE   19 ..............................
........................................................................

 iter      E             dE          RMSdq      gap      omega  full diag
   1  -3478.2429572 -0.347824E+04  0.855E-03   10.83       0.0  T
   2  -3478.2430034 -0.461678E-04  0.494E-03   10.83       1.0  T
   3  -3478.2430037 -0.306196E-06  0.205E-03   10.83       1.0  T
   4  -3478.2430039 -0.153649E-06  0.194E-04   10.83       9.0  T
   5  -3478.2430039 -0.453965E-07  0.126E-04   10.83      14.0  T
     SCC iter.                  ...        4 min, 36.974 sec
     gradient                   ...        3 min, 32.953 sec
 * total energy  : -3427.3752258 Eh     change    :  -0.9442434E-03 Eh
   gradient norm :     0.0561726 Eh/a0  converged?    E=F G=F D=F
   time step     :     0.2679486 fs     power     :  -0.4647196E-07
   step length   :     0.0770828 a0     speed     :   0.6958585E-02

........................................................................
.............................. CYCLE   20 ..............................
........................................................................
 * reset velocities

 iter      E             dE          RMSdq      gap      omega  full diag
   1  -3478.2442166 -0.347824E+04  0.127E-04   10.83       0.0  T
   2  -3478.2442166 -0.683303E-08  0.834E-05   10.83      21.0  T
   3  -3478.2442166 -0.473347E-08  0.386E-05   10.83      45.4  T
     SCC iter.                  ...        2 min, 46.816 sec
     gradient                   ...        3 min, 33.491 sec
 * total energy  : -3427.3752787 Eh     change    :  -0.5292199E-04 Eh
   gradient norm :     0.0558017 Eh/a0  converged?    E=F G=F D=T
   time step     :     0.1339743 fs     power     :   0.5224541E-08
   step length   :     0.0009453 a0     speed     :   0.1706752E-03
 * RMSD in coord.:     0.0347669 a0     energy gain  -0.5792427E+00 Eh

........................................................................
.............................. CYCLE   21 ..............................
........................................................................

 iter      E             dE          RMSdq      gap      omega  full diag
   1  -3478.2506314 -0.347825E+04  0.567E-04   10.83       0.0  T
   2  -3478.2506315 -0.879022E-07  0.322E-04   10.83       5.4  T
   3  -3478.2506315 -0.881755E-09  0.861E-05   10.83      20.4  T
     SCC iter.                  ...        2 min, 46.070 sec
     gradient                   ...        3 min, 34.428 sec
 * total energy  : -3427.3755551 Eh     change    :  -0.2763280E-03 Eh
   gradient norm :     0.0540260 Eh/a0  converged?    E=F G=F D=F
   time step     :     0.2500000 fs     power     :   0.1442592E-07
   step length   :     0.0050339 a0     speed     :   0.4870554E-03

........................................................................
.............................. CYCLE   22 ..............................
........................................................................

 iter      E             dE          RMSdq      gap      omega  full diag
   1  -3478.2608935 -0.347826E+04  0.924E-04   10.84       0.0  T
   2  -3478.2608937 -0.224599E-06  0.526E-04   10.84       3.3  T
   3  -3478.2608937 -0.393266E-08  0.138E-04   10.84      12.7  T
     SCC iter.                  ...        2 min, 43.722 sec
     gradient                   ...        3 min, 33.522 sec
 * total energy  : -3427.3759863 Eh     change    :  -0.4312799E-03 Eh
   gradient norm :     0.0513322 Eh/a0  converged?    E=F G=F D=F
   time step     :     0.2500000 fs     power     :   0.2227010E-07
   step length   :     0.0081985 a0     speed     :   0.7932446E-03

........................................................................
.............................. CYCLE   23 ..............................
........................................................................

 iter      E             dE          RMSdq      gap      omega  full diag
   1  -3478.2745006 -0.347827E+04  0.124E-03   10.84       0.0  T
   2  -3478.2745010 -0.392649E-06  0.708E-04   10.84       2.5  T
   3  -3478.2745010 -0.917453E-08  0.183E-04   10.84       9.6  T
     SCC iter.                  ...        2 min, 44.980 sec
     gradient                   ...        3 min, 32.532 sec
 * total energy  : -3427.3765401 Eh     change    :  -0.5537443E-03 Eh
   gradient norm :     0.0480547 Eh/a0  converged?    E=F G=F D=F
   time step     :     0.2500000 fs     power     :   0.2829636E-07
   step length   :     0.0111988 a0     speed     :   0.1083549E-02

........................................................................
.............................. CYCLE   24 ..............................
........................................................................

 iter      E             dE          RMSdq      gap      omega  full diag
   1  -3478.2907484 -0.347829E+04  0.151E-03   10.84       0.0  T
   2  -3478.2907489 -0.552603E-06  0.863E-04   10.84       2.0  T
   3  -3478.2907489 -0.153777E-07  0.217E-04   10.84       8.1  T
     SCC iter.                  ...        2 min, 48.616 sec
     gradient                   ...        3 min, 31.473 sec
 * total energy  : -3427.3771799 Eh     change    :  -0.6398311E-03 Eh
   gradient norm :     0.0446561 Eh/a0  converged?    E=F G=F D=F
   time step     :     0.2500000 fs     power     :   0.3238969E-07
   step length   :     0.0139882 a0     speed     :   0.1353436E-02

........................................................................
.............................. CYCLE   25 ..............................
........................................................................

 iter      E             dE          RMSdq      gap      omega  full diag
   1  -3478.3087337 -0.347831E+04  0.173E-03   10.84       0.0  T
   2  -3478.3087344 -0.662508E-06  0.985E-04   10.84       1.8  T
   3  -3478.3087344 -0.215696E-07  0.236E-04   10.84       7.4  T
     SCC iter.                  ...        2 min, 46.700 sec
     gradient                   ...        3 min, 33.176 sec
 * total energy  : -3427.3778726 Eh     change    :  -0.6927102E-03 Eh
   gradient norm :     0.0416732 Eh/a0  converged?    E=F G=F D=F
   time step     :     0.2500000 fs     power     :   0.3482498E-07
   step length   :     0.0165345 a0     speed     :   0.1599805E-02

........................................................................
.............................. CYCLE   26 ..............................
........................................................................

 iter      E             dE          RMSdq      gap      omega  full diag
   1  -3478.3293994 -0.347833E+04  0.208E-03   10.84       0.0  T
   2  -3478.3294003 -0.843503E-06  0.119E-03   10.84       1.5  T
   3  -3478.3294003 -0.318855E-07  0.264E-04   10.84       6.6  T
   4  -3478.3294003 -0.125592E-07  0.647E-05   10.84      27.1  T
     SCC iter.                  ...        3 min, 40.755 sec
     gradient                   ...        3 min, 31.699 sec
 * total energy  : -3427.3786732 Eh     change    :  -0.8005368E-03 Eh
   gradient norm :     0.0394136 Eh/a0  converged?    E=F G=F D=F
   time step     :     0.2750000 fs     power     :   0.3627780E-07
   step length   :     0.0209654 a0     speed     :   0.1844104E-02

........................................................................
.............................. CYCLE   27 ..............................
........................................................................

 iter      E             dE          RMSdq      gap      omega  full diag
   1  -3478.3514927 -0.347835E+04  0.239E-03   10.84       0.0  T
   2  -3478.3514936 -0.919318E-06  0.137E-03   10.84       1.3  T
   3  -3478.3514937 -0.395203E-07  0.271E-04   10.84       6.5  T
   4  -3478.3514937 -0.162336E-07  0.718E-05   10.84      24.4  T
     SCC iter.                  ...        3 min, 41.320 sec
     gradient                   ...        3 min, 32.150 sec
 * total energy  : -3427.3795848 Eh     change    :  -0.9116902E-03 Eh
   gradient norm :     0.0384379 Eh/a0  converged?    E=F G=F D=F
   time step     :     0.3025000 fs     power     :   0.3747463E-07
   step length   :     0.0260390 a0     speed     :   0.2082164E-02

........................................................................
.............................. CYCLE   28 ..............................
........................................................................

 iter      E             dE          RMSdq      gap      omega  full diag
   1  -3478.3729005 -0.347837E+04  0.263E-03   10.84       0.0  T
   2  -3478.3729013 -0.783434E-06  0.151E-03   10.84       1.2  T
   3  -3478.3729014 -0.489763E-07  0.244E-04   10.84       7.2  T
   4  -3478.3729014 -0.191258E-07  0.786E-05   10.84      22.3  T
     SCC iter.                  ...        3 min, 47.977 sec
     gradient                   ...        3 min, 32.750 sec
 * total energy  : -3427.3806358 Eh     change    :  -0.1050959E-02 Eh
   gradient norm :     0.0386777 Eh/a0  converged?    E=F G=F D=F
   time step     :     0.3327500 fs     power     :   0.3957510E-07
   step length   :     0.0318353 a0     speed     :   0.2314227E-02

........................................................................
.............................. CYCLE   29 ..............................
........................................................................

 iter      E             dE          RMSdq      gap      omega  full diag
   1  -3478.3908737 -0.347839E+04  0.280E-03   10.84       0.0  T
   2  -3478.3908742 -0.485990E-06  0.162E-03   10.84       1.1  T
   3  -3478.3908743 -0.553509E-07  0.191E-04   10.84       9.2  T
   4  -3478.3908743 -0.220398E-07  0.822E-05   10.84      21.3  T
     SCC iter.                  ...        3 min, 39.291 sec
     gradient                   ...        3 min, 32.569 sec
 * total energy  : -3427.3818878 Eh     change    :  -0.1251952E-02 Eh
   gradient norm :     0.0391101 Eh/a0  converged?    E=F G=F D=F
   time step     :     0.3660250 fs     power     :   0.4343789E-07
   step length   :     0.0385860 a0     speed     :   0.2549963E-02

........................................................................
.............................. CYCLE   30 ..............................
........................................................................

 iter      E             dE          RMSdq      gap      omega  full diag
   1  -3478.4026056 -0.347840E+04  0.297E-03   10.84       0.0  T
   2  -3478.4026058 -0.278250E-06  0.174E-03   10.84       1.0  T
   3  -3478.4026059 -0.563023E-07  0.156E-04   10.84      11.3  T
   4  -3478.4026059 -0.264481E-07  0.822E-05   10.84      21.3  T
     SCC iter.                  ...        3 min, 41.943 sec
     gradient                   ...        3 min, 34.051 sec
 * total energy  : -3427.3834177 Eh     change    :  -0.1529897E-02 Eh
   gradient norm :     0.0382404 Eh/a0  converged?    E=F G=F D=F
   time step     :     0.4026275 fs     power     :   0.4864460E-07
   step length   :     0.0467232 a0     speed     :   0.2807010E-02

........................................................................
.............................. CYCLE   31 ..............................
........................................................................

 iter      E             dE          RMSdq      gap      omega  full diag
   1  -3478.4061393 -0.347841E+04  0.325E-03   10.84       0.0  T
   2  -3478.4061398 -0.555865E-06  0.193E-03   10.84       1.0  T
   3  -3478.4061399 -0.531072E-07  0.175E-04   10.84      10.0  T
   4  -3478.4061399 -0.323766E-07  0.768E-05   10.84      22.8  T
     SCC iter.                  ...        3 min, 48.654 sec
     gradient                   ...        3 min, 33.960 sec
 * total energy  : -3427.3852655 Eh     change    :  -0.1847844E-02 Eh
   gradient norm :     0.0350525 Eh/a0  converged?    E=F G=F D=F
   time step     :     0.4428903 fs     power     :   0.5304243E-07
   step length   :     0.0567541 a0     speed     :   0.3099677E-02

........................................................................
.............................. CYCLE   32 ..............................
........................................................................

 iter      E             dE          RMSdq      gap      omega  full diag
   1  -3478.4019216 -0.347840E+04  0.372E-03   10.84       0.0  T
   2  -3478.4019231 -0.151540E-05  0.223E-03   10.84       1.0  T
   3  -3478.4019231 -0.595019E-07  0.272E-04   10.84       6.4  T
   4  -3478.4019232 -0.373329E-07  0.782E-05   10.84      22.4  T
     SCC iter.                  ...        3 min, 42.050 sec
     gradient                   ...        3 min, 32.781 sec
 * total energy  : -3427.3873738 Eh     change    :  -0.2108297E-02 Eh
   gradient norm :     0.0302836 Eh/a0  converged?    E=F G=F D=F
   time step     :     0.4871793 fs     power     :   0.5373208E-07
   step length   :     0.0690066 a0     speed     :   0.3426234E-02

........................................................................
.............................. CYCLE   33 ..............................
........................................................................

 iter      E             dE          RMSdq      gap      omega  full diag
   1  -3478.3951729 -0.347840E+04  0.429E-03   10.84       0.0  T
   2  -3478.3951753 -0.246869E-05  0.258E-03   10.84       1.0  T
   3  -3478.3951754 -0.715236E-07  0.349E-04   10.84       5.0  T
   4  -3478.3951754 -0.412742E-07  0.820E-05   10.84      21.4  T
     SCC iter.                  ...        3 min, 41.858 sec
     gradient                   ...        3 min, 33.093 sec
 * total energy  : -3427.3895998 Eh     change    :  -0.2226043E-02 Eh
   gradient norm :     0.0273287 Eh/a0  converged?    E=F G=F D=F
   time step     :     0.5358972 fs     power     :   0.5008947E-07
   step length   :     0.0833601 a0     speed     :   0.3762634E-02

........................................................................
.............................. CYCLE   34 ..............................
........................................................................

 iter      E             dE          RMSdq      gap      omega  full diag
   1  -3478.3979193 -0.347840E+04  0.482E-03   10.84       0.0  T
   2  -3478.3979212 -0.192610E-05  0.290E-03   10.84       1.0  T
   3  -3478.3979213 -0.893547E-07  0.262E-04   10.84       6.7  T
   4  -3478.3979213 -0.414566E-07  0.859E-05   10.84      20.4  T
     SCC iter.                  ...        3 min, 41.652 sec
     gradient                   ...        3 min, 32.325 sec
 * total energy  : -3427.3918760 Eh     change    :  -0.2276159E-02 Eh
   gradient norm :     0.0280945 Eh/a0  converged?    E=F G=F D=F
   time step     :     0.5894869 fs     power     :   0.4631670E-07
   step length   :     0.0989772 a0     speed     :   0.4061403E-02

........................................................................
.............................. CYCLE   35 ..............................
........................................................................

 iter      E             dE          RMSdq      gap      omega  full diag
   1  -3478.4240904 -0.347842E+04  0.552E-03   10.84       0.0  T
   2  -3478.4240909 -0.500400E-06  0.327E-03   10.84       1.0  T
   3  -3478.4240911 -0.129060E-06  0.170E-04   10.84      10.3  T
   4  -3478.4240911 -0.285240E-07  0.953E-05   10.84      18.4  T
     SCC iter.                  ...        3 min, 41.934 sec
     gradient                   ...        3 min, 33.491 sec
 * total energy  : -3427.3943236 Eh     change    :  -0.2447561E-02 Eh
   gradient norm :     0.0276622 Eh/a0  converged?    E=F G=F D=F
   time step     :     0.6484356 fs     power     :   0.4598505E-07
   step length   :     0.1153537 a0     speed     :   0.4303084E-02

........................................................................
.............................. CYCLE   36 ..............................
........................................................................

 iter      E             dE          RMSdq      gap      omega  full diag
   1  -3478.4798641 -0.347848E+04  0.667E-03   10.85       0.0  T
   2  -3478.4798654 -0.129824E-05  0.386E-03   10.85       1.0  T
   3  -3478.4798655 -0.180641E-06  0.247E-04   10.85       7.1  T
   4  -3478.4798656 -0.246096E-07  0.110E-04   10.85      15.9  T
     SCC iter.                  ...        3 min, 42.483 sec
     gradient                   ...        3 min, 32.821 sec
 * total energy  : -3427.3969869 Eh     change    :  -0.2663329E-02 Eh
   gradient norm :     0.0233467 Eh/a0  converged?    E=F G=F D=F
   time step     :     0.7132792 fs     power     :   0.4453669E-07
   step length   :     0.1339375 a0     speed     :   0.4542110E-02

........................................................................
.............................. CYCLE   37 ..............................
........................................................................

 iter      E             dE          RMSdq      gap      omega  full diag
   1  -3478.5533295 -0.347855E+04  0.761E-03   10.85       0.0  T
   2  -3478.5533327 -0.322134E-05  0.437E-03   10.85       1.0  T
   3  -3478.5533329 -0.201808E-06  0.407E-04   10.85       4.3  T
   4  -3478.5533329 -0.356290E-07  0.117E-04   10.85      15.0  T
     SCC iter.                  ...        3 min, 49.400 sec
     gradient                   ...        3 min, 34.150 sec
 * total energy  : -3427.3996349 Eh     change    :  -0.2648049E-02 Eh
   gradient norm :     0.0228973 Eh/a0  converged?    E=F G=F D=F
   time step     :     0.7846071 fs     power     :   0.3845103E-07
   step length   :     0.1555048 a0     speed     :   0.4794095E-02

........................................................................
.............................. CYCLE   38 ..............................
........................................................................

 iter      E             dE          RMSdq      gap      omega  full diag
   1  -3478.6083375 -0.347861E+04  0.727E-03   10.85       0.0  T
   2  -3478.6083384 -0.952986E-06  0.423E-03   10.85       1.0  T
   3  -3478.6083386 -0.179066E-06  0.210E-04   10.85       8.4  T
   4  -3478.6083386 -0.202213E-07  0.973E-05   10.85      18.0  T
     SCC iter.                  ...        3 min, 40.804 sec
     gradient                   ...        3 min, 34.550 sec
 * total energy  : -3427.4023332 Eh     change    :  -0.2698237E-02 Eh
   gradient norm :     0.0250704 Eh/a0  converged?    E=F G=F D=F
   time step     :     0.8630678 fs     power     :   0.3693995E-07
   step length   :     0.1774129 a0     speed     :   0.4972278E-02

........................................................................
.............................. CYCLE   39 ..............................
........................................................................

 iter      E             dE          RMSdq      gap      omega  full diag
   1  -3478.6200848 -0.347862E+04  0.676E-03   10.86       0.0  T
   2  -3478.6200872 -0.237221E-05  0.405E-03   10.86       1.0  T
   3  -3478.6200874 -0.216003E-06  0.250E-04   10.86       7.0  T
   4  -3478.6200875 -0.283621E-07  0.120E-04   10.86      14.6  T
     SCC iter.                  ...        3 min, 42.457 sec
     gradient                   ...        3 min, 31.878 sec
 * total energy  : -3427.4053619 Eh     change    :  -0.3028769E-02 Eh
   gradient norm :     0.0215876 Eh/a0  converged?    E=F G=F D=F
   time step     :     0.9493746 fs     power     :   0.3753580E-07
   step length   :     0.2013223 a0     speed     :   0.5129432E-02

........................................................................
.............................. CYCLE   40 ..............................
........................................................................

 iter      E             dE          RMSdq      gap      omega  full diag
   1  -3478.6081025 -0.347861E+04  0.684E-03   10.86       0.0  T
   2  -3478.6081080 -0.549239E-05  0.412E-03   10.86       1.0  T
   3  -3478.6081083 -0.315017E-06  0.463E-04   10.86       3.8  T
   4  -3478.6081084 -0.589603E-07  0.167E-04   10.86      10.5  T
     SCC iter.                  ...        3 min, 44.563 sec
     gradient                   ...        3 min, 32.313 sec
 * total energy  : -3427.4085225 Eh     change    :  -0.3160576E-02 Eh
   gradient norm :     0.0239555 Eh/a0  converged?    E=F G=F D=F
   time step     :     1.0443120 fs     power     :   0.3470029E-07
   step length   :     0.2300482 a0     speed     :   0.5328483E-02

........................................................................
.............................. CYCLE   41 ..............................
........................................................................

 iter      E             dE          RMSdq      gap      omega  full diag
   1  -3478.6305836 -0.347863E+04  0.766E-03   10.87       0.0  T
   2  -3478.6305846 -0.987967E-06  0.449E-03   10.87       1.0  T
   3  -3478.6305849 -0.312355E-06  0.258E-04   10.87       6.8  T
   4  -3478.6305849 -0.366504E-07  0.154E-04   10.87      11.4  T
     SCC iter.                  ...        3 min, 43.268 sec
     gradient                   ...        3 min, 32.277 sec
 * total energy  : -3427.4121702 Eh     change    :  -0.3647646E-02 Eh
   gradient norm :     0.0217697 Eh/a0  converged?    E=F G=F D=F
   time step     :     1.1487432 fs     power     :   0.3832952E-07
   step length   :     0.2606143 a0     speed     :   0.5487701E-02

........................................................................
.............................. CYCLE   42 ..............................
........................................................................

 iter      E             dE          RMSdq      gap      omega  full diag
   1  -3478.6829765 -0.347868E+04  0.914E-03   10.88       0.0  T
   2  -3478.6829806 -0.409076E-05  0.529E-03   10.88       1.0  T
   3  -3478.6829809 -0.293889E-06  0.419E-04   10.88       4.2  T
   4  -3478.6829809 -0.434420E-07  0.135E-04   10.88      13.0  T
     SCC iter.                  ...        3 min, 38.389 sec
     gradient                   ...        3 min, 32.799 sec
 * total energy  : -3427.4161211 Eh     change    :  -0.3950952E-02 Eh
   gradient norm :     0.0223368 Eh/a0  converged?    E=F G=F D=F
   time step     :     1.2500000 fs     power     :   0.3588073E-07
   step length   :     0.2957287 a0     speed     :   0.5722669E-02
 * RMSD in coord.:     0.0340940 a0     energy gain  -0.4084239E-01 Eh

........................................................................
.............................. CYCLE   43 ..............................
........................................................................

 iter      E             dE          RMSdq      gap      omega  full diag
   1  -3478.6861268 -0.347869E+04  0.147E-03   10.88       0.0  T
   2  -3478.6861268 -0.409673E-07  0.863E-04   10.88       2.0  T
   3  -3478.6861268 -0.127320E-07  0.543E-05   10.88      32.3  T
     SCC iter.                  ...        2 min, 45.099 sec
     gradient                   ...        3 min, 32.969 sec
 * total energy  : -3427.4168775 Eh     change    :  -0.7563871E-03 Eh
   gradient norm :     0.0222177 Eh/a0  converged?    E=F G=F D=F
   time step     :     0.2500000 fs     power     :   0.3944237E-07
   step length   :     0.0572646 a0     speed     :   0.5540660E-02

........................................................................
.............................. CYCLE   44 ..............................
........................................................................

 iter      E             dE          RMSdq      gap      omega  full diag
   1  -3478.6827539 -0.347868E+04  0.140E-03   10.88       0.0  T
   2  -3478.6827541 -0.185491E-06  0.827E-04   10.88       2.1  T
   3  -3478.6827541 -0.132386E-07  0.894E-05   10.88      19.6  T
     SCC iter.                  ...        2 min, 47.357 sec
     gradient                   ...        3 min, 33.075 sec
 * total energy  : -3427.4176849 Eh     change    :  -0.8074282E-03 Eh
   gradient norm :     0.0204977 Eh/a0  converged?    E=F G=F D=F
   time step     :     0.2500000 fs     power     :   0.4192119E-07
   step length   :     0.0559349 a0     speed     :   0.5412003E-02

........................................................................
.............................. CYCLE   45 ..............................
........................................................................

 iter      E             dE          RMSdq      gap      omega  full diag
   1  -3478.6747458 -0.347867E+04  0.154E-03   10.88       0.0  T
   2  -3478.6747462 -0.438326E-06  0.904E-04   10.88       1.9  T
   3  -3478.6747463 -0.158452E-07  0.164E-04   10.88      10.7  T
     SCC iter.                  ...        2 min, 50.121 sec
     gradient                   ...        3 min, 32.396 sec
 * total energy  : -3427.4185070 Eh     change    :  -0.8220250E-03 Eh
   gradient norm :     0.0182975 Eh/a0  converged?    E=F G=F D=F
   time step     :     0.2500000 fs     power     :   0.4212820E-07
   step length   :     0.0552420 a0     speed     :   0.5344959E-02

........................................................................
.............................. CYCLE   46 ..............................
........................................................................

 iter      E             dE          RMSdq      gap      omega  full diag
   1  -3478.6651327 -0.347867E+04  0.167E-03   10.88       0.0  T
   2  -3478.6651332 -0.558010E-06  0.981E-04   10.88       1.8  T
   3  -3478.6651333 -0.174259E-07  0.190E-04   10.88       9.2  T
     SCC iter.                  ...        2 min, 45.206 sec
     gradient                   ...        3 min, 32.365 sec
 * total energy  : -3427.4193079 Eh     change    :  -0.8009097E-03 Eh
   gradient norm :     0.0171597 Eh/a0  converged?    E=F G=F D=F
   time step     :     0.2500000 fs     power     :   0.4067960E-07
   step length   :     0.0550492 a0     speed     :   0.5326307E-02

........................................................................
.............................. CYCLE   47 ..............................
........................................................................

 iter      E             dE          RMSdq      gap      omega  full diag
   1  -3478.6576183 -0.347866E+04  0.170E-03   10.88       0.0  T
   2  -3478.6576187 -0.411509E-06  0.995E-04   10.88       1.8  T
   3  -3478.6576188 -0.160499E-07  0.150E-04   10.88      11.7  T
     SCC iter.                  ...        2 min, 46.298 sec
     gradient                   ...        3 min, 31.486 sec
 * total energy  : -3427.4200795 Eh     change    :  -0.7716739E-03 Eh
   gradient norm :     0.0173990 Eh/a0  converged?    E=F G=F D=F
   time step     :     0.2500000 fs     power     :   0.3937090E-07
   step length   :     0.0549584 a0     speed     :   0.5317522E-02

........................................................................
.............................. CYCLE   48 ..............................
........................................................................

 iter      E             dE          RMSdq      gap      omega  full diag
   1  -3478.6548122 -0.347865E+04  0.183E-03   10.88       0.0  T
   2  -3478.6548124 -0.194396E-06  0.107E-03   10.88       1.6  T
   3  -3478.6548124 -0.157452E-07  0.849E-05   10.88      20.6  T
   4  -3478.6548124 -0.488990E-08  0.311E-05   10.88      56.4  T
     SCC iter.                  ...        3 min, 48.787 sec
     gradient                   ...        3 min, 33.472 sec
 * total energy  : -3427.4209148 Eh     change    :  -0.8352928E-03 Eh
   gradient norm :     0.0177485 Eh/a0  converged?    E=F G=F D=F
   time step     :     0.2750000 fs     power     :   0.3906181E-07
   step length   :     0.0602308 a0     speed     :   0.5297863E-02

........................................................................
.............................. CYCLE   49 ..............................
........................................................................

 iter      E             dE          RMSdq      gap      omega  full diag
   1  -3478.6591672 -0.347866E+04  0.202E-03   10.89       0.0  T
   2  -3478.6591673 -0.720916E-07  0.118E-03   10.89       1.5  T
   3  -3478.6591673 -0.164837E-07  0.625E-05   10.89      28.0  T
   4  -3478.6591673 -0.517275E-08  0.288E-05   10.89      60.9  T
     SCC iter.                  ...        3 min, 44.224 sec
     gradient                   ...        3 min, 32.451 sec
 * total energy  : -3427.4218339 Eh     change    :  -0.9190953E-03 Eh
   gradient norm :     0.0168755 Eh/a0  converged?    E=F G=F D=F
   time step     :     0.3025000 fs     power     :   0.3914743E-07
   step length   :     0.0660262 a0     speed     :   0.5279658E-02

........................................................................
.............................. CYCLE   50 ..............................
........................................................................

 iter      E             dE          RMSdq      gap      omega  full diag
   1  -3478.6712921 -0.347867E+04  0.231E-03   10.89       0.0  T
   2  -3478.6712923 -0.238756E-06  0.135E-03   10.89       1.3  T
   3  -3478.6712923 -0.225955E-07  0.980E-05   10.89      17.9  T
   4  -3478.6712923 -0.539558E-08  0.362E-05   10.89      48.5  T
     SCC iter.                  ...        3 min, 48.245 sec
     gradient                   ...        3 min, 32.677 sec
 * total energy  : -3427.4228285 Eh     change    :  -0.9945274E-03 Eh
   gradient norm :     0.0148116 Eh/a0  converged?    E=F G=F D=F
   time step     :     0.3327500 fs     power     :   0.3803857E-07
   step length   :     0.0728089 a0     speed     :   0.5292754E-02

........................................................................
.............................. CYCLE   51 ..............................
........................................................................

 iter      E             dE          RMSdq      gap      omega  full diag
   1  -3478.6885466 -0.347869E+04  0.258E-03   10.89       0.0  T
   2  -3478.6885471 -0.533018E-06  0.150E-03   10.89       1.2  T
   3  -3478.6885472 -0.297309E-07  0.159E-04   10.89      11.0  T
   4  -3478.6885472 -0.699902E-08  0.450E-05   10.89      38.9  T
     SCC iter.                  ...        3 min, 44.038 sec
     gradient                   ...        3 min, 31.803 sec
 * total energy  : -3427.4238595 Eh     change    :  -0.1031086E-02 Eh
   gradient norm :     0.0136875 Eh/a0  converged?    E=F G=F D=F
   time step     :     0.3660250 fs     power     :   0.3522598E-07
   step length   :     0.0809627 a0     speed     :   0.5350440E-02

........................................................................
.............................. CYCLE   52 ..............................
........................................................................

 iter      E             dE          RMSdq      gap      omega  full diag
   1  -3478.7034768 -0.347870E+04  0.260E-03   10.89       0.0  T
   2  -3478.7034772 -0.401978E-06  0.152E-03   10.89       1.2  T
   3  -3478.7034772 -0.323116E-07  0.129E-04   10.89      13.6  T
   4  -3478.7034772 -0.668888E-08  0.446E-05   10.89      39.3  T
     SCC iter.                  ...        3 min, 43.539 sec
     gradient                   ...        3 min, 32.597 sec
 * total energy  : -3427.4249136 Eh     change    :  -0.1054021E-02 Eh
   gradient norm :     0.0145695 Eh/a0  converged?    E=F G=F D=F
   time step     :     0.4026275 fs     power     :   0.3282934E-07
   step length   :     0.0899747 a0     speed     :   0.5405455E-02

........................................................................
.............................. CYCLE   53 ..............................
........................................................................

 iter      E             dE          RMSdq      gap      omega  full diag
   1  -3478.7082762 -0.347871E+04  0.249E-03   10.89       0.0  T
   2  -3478.7082763 -0.110663E-06  0.146E-03   10.89       1.2  T
   3  -3478.7082764 -0.326345E-07  0.764E-05   10.89      22.9  T
   4  -3478.7082764 -0.509863E-08  0.409E-05   10.89      42.9  T
     SCC iter.                  ...        3 min, 44.253 sec
     gradient                   ...        3 min, 33.709 sec
 * total energy  : -3427.4260334 Eh     change    :  -0.1119883E-02 Eh
   gradient norm :     0.0145361 Eh/a0  converged?    E=F G=F D=F
   time step     :     0.4428903 fs     power     :   0.3212358E-07
   step length   :     0.0990606 a0     speed     :   0.5410281E-02

........................................................................
.............................. CYCLE   54 ..............................
........................................................................

 iter      E             dE          RMSdq      gap      omega  full diag
   1  -3478.7002705 -0.347870E+04  0.258E-03   10.89       0.0  T
   2  -3478.7002709 -0.481564E-06  0.152E-03   10.89       1.2  T
   3  -3478.7002710 -0.408945E-07  0.132E-04   10.89      13.3  T
   4  -3478.7002710 -0.656428E-08  0.500E-05   10.89      35.1  T
     SCC iter.                  ...        3 min, 39.315 sec
     gradient                   ...        3 min, 33.916 sec
 * total energy  : -3427.4272350 Eh     change    :  -0.1201598E-02 Eh
   gradient norm :     0.0128716 Eh/a0  converged?    E=F G=F D=F
   time step     :     0.4871793 fs     power     :   0.3101644E-07
   step length   :     0.1091273 a0     speed     :   0.5418256E-02

........................................................................
.............................. CYCLE   55 ..............................
........................................................................

 iter      E             dE          RMSdq      gap      omega  full diag
   1  -3478.6857473 -0.347869E+04  0.267E-03   10.89       0.0  T
   2  -3478.6857483 -0.964816E-06  0.157E-03   10.89       1.1  T
   3  -3478.6857483 -0.534146E-07  0.222E-04   10.89       7.9  T
   4  -3478.6857483 -0.100808E-07  0.649E-05   10.89      27.0  T
     SCC iter.                  ...        3 min, 37.189 sec
     gradient                   ...        3 min, 32.271 sec
 * total energy  : -3427.4284801 Eh     change    :  -0.1245062E-02 Eh
   gradient norm :     0.0132064 Eh/a0  converged?    E=F G=F D=F
   time step     :     0.5358972 fs     power     :   0.2885694E-07
   step length   :     0.1210362 a0     speed     :   0.5463222E-02

........................................................................
.............................. CYCLE   56 ..............................
........................................................................

 iter      E             dE          RMSdq      gap      omega  full diag
   1  -3478.6802810 -0.347868E+04  0.253E-03   10.89       0.0  T
   2  -3478.6802814 -0.369916E-06  0.149E-03   10.89       1.2  T
   3  -3478.6802814 -0.523073E-07  0.131E-04   10.89      13.4  T
   4  -3478.6802814 -0.922591E-08  0.644E-05   10.89      27.2  T
     SCC iter.                  ...        3 min, 42.161 sec
     gradient                   ...        3 min, 33.966 sec
 * total energy  : -3427.4298045 Eh     change    :  -0.1324348E-02 Eh
   gradient norm :     0.0139915 Eh/a0  converged?    E=F G=F D=F
   time step     :     0.5894869 fs     power     :   0.2849708E-07
   step length   :     0.1334324 a0     speed     :   0.5475230E-02

........................................................................
.............................. CYCLE   57 ..............................
........................................................................

 iter      E             dE          RMSdq      gap      omega  full diag
   1  -3478.6929857 -0.347869E+04  0.287E-03   10.90       0.0  T
   2  -3478.6929860 -0.365286E-06  0.167E-03   10.90       1.0  T
   3  -3478.6929861 -0.428072E-07  0.151E-04   10.90      11.6  T
   4  -3478.6929861 -0.130317E-07  0.592E-05   10.90      29.6  T
     SCC iter.                  ...        3 min, 44.056 sec
     gradient                   ...        3 min, 30.750 sec
 * total energy  : -3427.4312636 Eh     change    :  -0.1459108E-02 Eh
   gradient norm :     0.0124004 Eh/a0  converged?    E=F G=F D=F
   time step     :     0.6484356 fs     power     :   0.2840778E-07
   step length   :     0.1468600 a0     speed     :   0.5478374E-02

........................................................................
.............................. CYCLE   58 ..............................
........................................................................

 iter      E             dE          RMSdq      gap      omega  full diag
   1  -3478.7170009 -0.347872E+04  0.331E-03   10.90       0.0  T
   2  -3478.7170016 -0.768108E-06  0.192E-03   10.90       1.0  T
   3  -3478.7170017 -0.428931E-07  0.215E-04   10.90       8.2  T
   4  -3478.7170017 -0.140708E-07  0.591E-05   10.90      29.7  T
     SCC iter.                  ...        3 min, 48.044 sec
     gradient                   ...        3 min, 32.766 sec
 * total energy  : -3427.4328137 Eh     change    :  -0.1550109E-02 Eh
   gradient norm :     0.0130275 Eh/a0  converged?    E=F G=F D=F
   time step     :     0.7132792 fs     power     :   0.2710168E-07
   step length   :     0.1631236 a0     speed     :   0.5531874E-02

........................................................................
.............................. CYCLE   59 ..............................
........................................................................

 iter      E             dE          RMSdq      gap      omega  full diag
   1  -3478.7306255 -0.347873E+04  0.317E-03   10.90       0.0  T
   2  -3478.7306257 -0.230424E-06  0.187E-03   10.90       1.0  T
   3  -3478.7306258 -0.541932E-07  0.120E-04   10.90      14.6  T
   4  -3478.7306258 -0.972750E-08  0.677E-05   10.90      25.9  T
     SCC iter.                  ...        3 min, 47.818 sec
     gradient                   ...        3 min, 34.084 sec
 * total energy  : -3427.4345091 Eh     change    :  -0.1695398E-02 Eh
   gradient norm :     0.0125253 Eh/a0  converged?    E=F G=F D=F
   time step     :     0.7846071 fs     power     :   0.2747854E-07
   step length   :     0.1803576 a0     speed     :   0.5560288E-02

........................................................................
.............................. CYCLE   60 ..............................
........................................................................

 iter      E             dE          RMSdq      gap      omega  full diag
   1  -3478.7305877 -0.347873E+04  0.341E-03   10.90       0.0  T
   2  -3478.7305891 -0.141987E-05  0.207E-03   10.91       1.0  T
   3  -3478.7305892 -0.714085E-07  0.244E-04   10.91       7.2  T
   4  -3478.7305892 -0.174387E-07  0.821E-05   10.91      21.3  T
     SCC iter.                  ...        3 min, 39.087 sec
     gradient                   ...        3 min, 32.919 sec
 * total energy  : -3427.4363425 Eh     change    :  -0.1833450E-02 Eh
   gradient norm :     0.0115799 Eh/a0  converged?    E=F G=F D=F
   time step     :     0.8630678 fs     power     :   0.2626566E-07
   step length   :     0.2005836 a0     speed     :   0.5621673E-02

........................................................................
.............................. CYCLE   61 ..............................
........................................................................

 iter      E             dE          RMSdq      gap      omega  full diag
   1  -3478.7482702 -0.347875E+04  0.394E-03   10.91       0.0  T
   2  -3478.7482705 -0.365898E-06  0.235E-03   10.91       1.0  T
   3  -3478.7482706 -0.631385E-07  0.127E-04   10.91      13.8  T
   4  -3478.7482706 -0.106202E-07  0.662E-05   10.91      26.5  T
     SCC iter.                  ...        3 min, 41.064 sec
     gradient                   ...        3 min, 31.314 sec
 * total energy  : -3427.4382870 Eh     change    :  -0.1944458E-02 Eh
   gradient norm :     0.0112677 Eh/a0  converged?    E=F G=F D=F
   time step     :     0.9493746 fs     power     :   0.2568240E-07
   step length   :     0.2235917 a0     speed     :   0.5696829E-02

........................................................................
.............................. CYCLE   62 ..............................
........................................................................

 iter      E             dE          RMSdq      gap      omega  full diag
   1  -3478.7932399 -0.347879E+04  0.549E-03   10.92       0.0  T
   2  -3478.7932412 -0.133842E-05  0.317E-03   10.92       1.0  T
   3  -3478.7932413 -0.871214E-07  0.260E-04   10.92       6.7  T
   4  -3478.7932413 -0.157352E-07  0.755E-05   10.92      23.2  T
     SCC iter.                  ...        3 min, 38.978 sec
     gradient                   ...        3 min, 31.988 sec
 * total energy  : -3427.4403155 Eh     change    :  -0.2028520E-02 Eh
   gradient norm :     0.0106674 Eh/a0  converged?    E=F G=F D=F
   time step     :     1.0443120 fs     power     :   0.2339018E-07
   step length   :     0.2495869 a0     speed     :   0.5781049E-02

........................................................................
.............................. CYCLE   63 ..............................
........................................................................

 iter      E             dE          RMSdq      gap      omega  full diag
   1  -3478.8081072 -0.347881E+04  0.510E-03   10.92       0.0  T
   2  -3478.8081080 -0.844871E-06  0.302E-03   10.92       1.0  T
   3  -3478.8081081 -0.762325E-07  0.174E-04   10.92      10.1  T
   4  -3478.8081081 -0.270352E-07  0.752E-05   10.92      23.3  T
     SCC iter.                  ...        3 min, 43.494 sec
     gradient                   ...        3 min, 31.794 sec
 * total energy  : -3427.4423871 Eh     change    :  -0.2071591E-02 Eh
   gradient norm :     0.0092479 Eh/a0  converged?    E=F G=F D=F
   time step     :     1.1487432 fs     power     :   0.2194442E-07
   step length   :     0.2776606 a0     speed     :   0.5846640E-02

........................................................................
.............................. CYCLE   64 ..............................
........................................................................

 iter      E             dE          RMSdq      gap      omega  full diag
   1  -3478.8054224 -0.347881E+04  0.509E-03   10.93       0.0  T
   2  -3478.8054241 -0.176280E-05  0.304E-03   10.93       1.0  T
   3  -3478.8054242 -0.725931E-07  0.234E-04   10.93       7.5  T
   4  -3478.8054242 -0.304622E-07  0.777E-05   10.93      22.5  T
     SCC iter.                  ...        3 min, 43.097 sec
     gradient                   ...        3 min, 33.184 sec
 * total energy  : -3427.4444313 Eh     change    :  -0.2044244E-02 Eh
   gradient norm :     0.0108990 Eh/a0  converged?    E=F G=F D=F
   time step     :     1.2500000 fs     power     :   0.1947026E-07
   step length   :     0.3066062 a0     speed     :   0.5933159E-02

........................................................................
.............................. CYCLE   65 ..............................
........................................................................

 iter      E             dE          RMSdq      gap      omega  full diag
   1  -3478.8462905 -0.347885E+04  0.605E-03   10.93       0.0  T
   2  -3478.8462925 -0.199394E-05  0.350E-03   10.93       1.0  T
   3  -3478.8462926 -0.728564E-07  0.321E-04   10.93       5.5  T
   4  -3478.8462926 -0.323143E-07  0.778E-05   10.93      22.5  T
     SCC iter.                  ...        3 min, 45.981 sec
     gradient                   ...        3 min, 32.489 sec
 * total energy  : -3427.4463371 Eh     change    :  -0.1905800E-02 Eh
   gradient norm :     0.0106042 Eh/a0  converged?    E=F G=F D=F
   time step     :     1.2500000 fs     power     :   0.1779672E-07
   step length   :     0.3057143 a0     speed     :   0.5915900E-02

........................................................................
.............................. CYCLE   66 ..............................
........................................................................

 iter      E             dE          RMSdq      gap      omega  full diag
   1  -3478.8474896 -0.347885E+04  0.447E-03   10.94       0.0  T
   2  -3478.8474908 -0.123671E-05  0.267E-03   10.94       1.0  T
   3  -3478.8474909 -0.759824E-07  0.200E-04   10.94       8.7  T
   4  -3478.8474909 -0.214245E-07  0.837E-05   10.94      20.9  T
     SCC iter.                  ...        3 min, 47.070 sec
     gradient                   ...        3 min, 32.918 sec
 * total energy  : -3427.4481533 Eh     change    :  -0.1816206E-02 Eh
   gradient norm :     0.0090379 Eh/a0  converged?    E=F G=F D=F
[...]
  3011   6 C     3012   6 C                                       1.5268947
  3012   6 C     3013   6 C                                       1.5265700
  3013   6 C     3014   6 C                                       1.5265412
  3014   6 C     3015   6 C                                       1.5262652
  3015   6 C     3016   6 C                                       1.5241405
  3015   6 C     3017   1 H                                       1.0926998
  3015   6 C     3018   1 H                                       1.0930630
  3014   6 C     3019   1 H                                       1.0934010
  3014   6 C     3020   1 H                                       1.0923472
  3013   6 C     3021   1 H                                       1.0932987
  3013   6 C     3022   1 H                                       1.0933440
  3012   6 C     3023   1 H                                       1.0932918
  3012   6 C     3024   1 H                                       1.0929119
  3011   6 C     3025   1 H                                       1.0919692
  3011   6 C     3026   1 H                                       1.0933301
  3010   6 C     3027   1 H                                       1.0931175
  3010   6 C     3028   1 H                                       1.0920788
  3009   6 C     3029   1 H                                       1.0930319
  3009   6 C     3030   1 H                                       1.0933273
  3008   6 C     3031   1 H                                       1.0924055
  3008   6 C     3032   1 H                                       1.0902181
  3007   6 C     3033   1 H                                       1.0933795
  3007   6 C     3034   1 H                                       1.0936938
  3006   6 C     3035   1 H                                       1.0937992
  3006   6 C     3036   1 H                                       1.0915850
  3005   6 C     3037   1 H                                       1.0899736
  3005   6 C     3038   1 H                                       1.0934853
  3004   6 C     3039   1 H                                       1.0932822
  3004   6 C     3040   1 H                                       1.0910850
  3003   6 C     3041   1 H                                       1.0939818
  3003   6 C     3042   1 H                                       1.0921332
  3002   6 C     3043   1 H                                       1.0919172
  3002   6 C     3044   1 H                                       1.0942186
  3001   6 C     3045   1 H                                       1.0921138
  3001   6 C     3046   1 H                                       1.0912756
  3000   6 C     3047   1 H                                       1.0939632
  3000   6 C     3048   1 H                                       1.0934687
  2999   6 C     3049   1 H                                       1.0925703
  2999   6 C     3050   1 H                                       1.0920274
  2998   6 C     3051   1 H                                       1.0922465
  2998   6 C     3052   1 H                                       1.0936146
  2997   6 C     3053   1 H                                       1.0923133
  2997   6 C     3054   1 H                                       1.0926099
  2996   6 C     3055   1 H                                       1.0932447
  2996   6 C     3056   1 H                                       1.0940245
  2995   6 C     3057   1 H                                       1.0923364
  2995   6 C     3058   1 H                                       1.0925702
  2994   6 C     3059   1 H                                       1.0925275
  2994   6 C     3060   1 H                                       1.0942080
  2993   6 C     3061   1 H                                       1.0923794
  2993   6 C     3062   1 H                                       1.0929095
  2992   6 C     3063   1 H                                       1.0919886
  2992   6 C     3064   1 H                                       1.0940882
  2991   6 C     3065   1 H                                       1.0922036
  2991   6 C     3066   1 H                                       1.0928781
  2990   6 C     3067   1 H                                       1.0917501
  2990   6 C     3068   1 H                                       1.0938965
  2989   6 C     3069   1 H                                       1.0920068
  2989   6 C     3070   1 H                                       1.0927768
  2988   6 C     3071   1 H                                       1.0916560
  2988   6 C     3072   1 H                                       1.0936841
  2987   6 C     3073   1 H                                       1.0920527
  2987   6 C     3074   1 H                                       1.0928499
  2986   6 C     3075   1 H                                       1.0916984
  2986   6 C     3076   1 H                                       1.0935359
  2985   6 C     3077   1 H                                       1.0923283
  2985   6 C     3078   1 H                                       1.0928810
  2984   6 C     3079   1 H                                       1.0916989
  2984   6 C     3080   1 H                                       1.0935340
  2983   6 C     3081   1 H                                       1.0930484
  2983   6 C     3082   1 H                                       1.0928524
  2982   6 C     3083   1 H                                       1.0919929
  2982   6 C     3084   1 H                                       1.0934729
  2981   6 C     3085   1 H                                       1.0933212
  2981   6 C     3086   1 H                                       1.0929511
  2980   6 C     3087   1 H                                       1.0920814
  2980   6 C     3088   1 H                                       1.0934383
  2979   6 C     3089   1 H                                       1.0935797
  2979   6 C     3090   1 H                                       1.0921073
  2978   6 C     3091   1 H                                       1.0923645
  2978   6 C     3092   1 H                                       1.0933002
  2977   6 C     3093   1 H                                       1.0930140
  2977   6 C     3094   1 H                                       1.0908939
  2976   6 C     3095   1 H                                       1.0896501
  2976   6 C     3096   1 H                                       1.0930969
  2975   6 C     3097   1 H                                       1.0936920
  2975   6 C     3098   1 H                                       1.0932569
  2974   6 C     3099   1 H                                       1.0937943
  2974   6 C     3100   1 H                                       1.0924262
  2973   6 C     3101   1 H                                       1.0887298
  2973   6 C     3102   1 H                                       1.0908923
  2972   6 C     3103   1 H                                       1.0935489
  2972   6 C     3104   1 H                                       1.0936400
  2971   6 C     3105   1 H                                       1.0926868
  2971   6 C     3106   1 H                                       1.0935210
  2970   6 C     3107   1 H                                       1.0933883
  2970   6 C     3108   1 H                                       1.0911631
  2969   6 C     3109   1 H                                       1.0928248
  2969   6 C     3110   1 H                                       1.0935968
  2968   6 C     3111   1 H                                       1.0938231
  2968   6 C     3112   1 H                                       1.0917446
  2967   6 C     3113   1 H                                       1.0921128
  2967   6 C     3114   1 H                                       1.0934571
  2966   6 C     3115   1 H                                       1.0925248
  2966   6 C     3116   1 H                                       1.0911801
  2965   6 C     3117   1 H                                       1.0923473
  2965   6 C     3118   1 H                                       1.0940304
  2964   6 C     3119   1 H                                       1.0926241
  2964   6 C     3120   1 H                                       1.0912279
  2963   6 C     3121   1 H                                       1.0928831
  2963   6 C     3122   1 H                                       1.0945545
  2962   6 C     3123   1 H                                       1.0925742
  2962   6 C     3124   1 H                                       1.0906310
  2961   6 C     3125   1 H                                       1.0925822
  2961   6 C     3126   1 H                                       1.0925629
  2960   6 C     3127   1 H                                       1.0926142
  2960   6 C     3128   1 H                                       1.0905047
  2959   6 C     3129   1 H                                       1.0921825
  2959   6 C     3130   1 H                                       1.0932701
  2958   6 C     3131   1 H                                       1.0924483
  2958   6 C     3132   1 H                                       1.0916043
  2957   6 C     3133   1 H                                       1.0922576
  2957   6 C     3134   1 H                                       1.0938911
  2956   6 C     3135   1 H                                       1.0927764
  2956   6 C     3136   1 H                                       1.0920794
  2955   6 C     3137   1 H                                       1.0921021
  2955   6 C     3138   1 H                                       1.0935881
  2954   6 C     3139   1 H                                       1.0934015
  2954   6 C     3140   1 H                                       1.0921267
  2953   6 C     3141   1 H                                       1.0928120
  2953   6 C     3142   1 H                                       1.0930996
  2952   6 C     3143   1 H                                       1.0936373
  2952   6 C     3144   1 H                                       1.0913879
  2951   6 C     3145   1 H                                       1.0920370
  2951   6 C     3146   1 H                                       1.0933126
  2950   6 C     3147   1 H                                       1.0936382
  2950   6 C     3148   1 H                                       1.0911523
  2949   6 C     3149   1 H                                       1.0917594
  2949   6 C     3150   1 H                                       1.0933644
  2948   6 C     3151   1 H                                       1.0932955
  2948   6 C     3152   1 H                                       1.0896282
  2947   6 C     3153   1 H                                       1.0939373
  2947   6 C     3154   1 H                                       1.0936438
  2946   6 C     3155   1 H                                       1.0911422
  2946   6 C     3156   1 H                                       1.0932600
  2945   6 C     3157   1 H                                       1.0936045
  2945   6 C     3158   1 H                                       1.0923894
  2944   6 C     3159   1 H                                       1.0890754
  2944   6 C     3160   1 H                                       1.0935849
  2943   6 C     3161   1 H                                       1.0939342
  2943   6 C     3162   1 H                                       1.0929534
  2942   6 C     3163   1 H                                       1.0929126
  2942   6 C     3164   1 H                                       1.0937278
  2941   6 C     3165   1 H                                       1.0920039
  2941   6 C     3166   1 H                                       1.0914598
  2940   6 C     3167   1 H                                       1.0932946
  2940   6 C     3168   1 H                                       1.0935691
  2939   6 C     3169   1 H                                       1.0925180
  2939   6 C     3170   1 H                                       1.0923642
  2938   6 C     3171   1 H                                       1.0936318
  2938   6 C     3172   1 H                                       1.0938769
  2937   6 C     3173   1 H                                       1.0927513
  2937   6 C     3174   1 H                                       1.0925849
  2936   6 C     3175   1 H                                       1.0939270
  2936   6 C     3176   1 H                                       1.0937099
  2935   6 C     3177   1 H                                       1.0921807
  2935   6 C     3178   1 H                                       1.0928517
  2934   6 C     3179   1 H                                       1.0938752
  2934   6 C     3180   1 H                                       1.0923302
  2933   6 C     3181   1 H                                       1.0921741
  2933   6 C     3182   1 H                                       1.0921695
  2932   6 C     3183   1 H                                       1.0933334
  2932   6 C     3184   1 H                                       1.0930716
  2931   6 C     3185   1 H                                       1.0924464
  2931   6 C     3186   1 H                                       1.0910787
  2930   6 C     3187   1 H                                       1.0926005
  2930   6 C     3188   1 H                                       1.0933236
  2929   6 C     3189   1 H                                       1.0932569
  2929   6 C     3190   1 H                                       1.0933524
  2928   6 C     3191   1 H                                       1.0902723
  2928   6 C     3192   1 H                                       1.0925015
  2927   6 C     3193   1 H                                       1.0929780
  2927   6 C     3194   1 H                                       1.0932974
  2926   6 C     3195   1 H                                       1.0916511
  2926   6 C     3196   1 H                                       1.0918308
  2925   6 C     3197   1 H                                       1.0939009
  2925   6 C     3198   1 H                                       1.0931694
  2924   6 C     3199   1 H                                       1.0917711
  2924   6 C     3200   1 H                                       1.0939383
  2923   6 C     3201   1 H                                       1.0917063
  2923   6 C     3202   1 H                                       1.0915243
  2922   6 C     3203   1 H                                       1.0938009
  2922   6 C     3204   1 H                                       1.0934889
  2921   6 C     3205   1 H                                       1.0907707
  2921   6 C     3206   1 H                                       1.0935509
  2920   6 C     3207   1 H                                       1.0940933
  2920   6 C     3208   1 H                                       1.0903203
  2919   6 C     3209   1 H                                       1.0940758
  2919   6 C     3210   1 H                                       1.0927184
  2918   6 C     3211   1 H                                       1.0918253
  2918   6 C     3212   1 H                                       1.0930820
  2917   6 C     3213   1 H                                       1.0918115
  2917   6 C     3214   1 H                                       1.0928666
  2916   6 C     3215   1 H                                       1.0919739
  2916   6 C     3216   1 H                                       1.0921203
  2915   6 C     3217   1 H                                       1.0934267
  2915   6 C     3218   1 H                                       1.0922178
  2914   6 C     3219   1 H                                       1.0931447
  2914   6 C     3220   1 H                                       1.0931400
  2913   6 C     3221   1 H                                       1.0932373
  2913   6 C     3222   1 H                                       1.0920552
  2912   6 C     3223   1 H                                       1.0934323
  2912   6 C     3224   1 H                                       1.0930858
  2911   6 C     3225   1 H                                       1.0921005
  2911   6 C     3226   1 H                                       1.0921405
  2910   6 C     3227   1 H                                       1.0931630
  2910   6 C     3228   1 H                                       1.0922462
  2909   6 C     3229   1 H                                       1.0932863
  2909   6 C     3230   1 H                                       1.0908445
  2908   6 C     3231   1 H                                       1.0917442
  2908   6 C     3232   1 H                                       1.0934317
  2907   6 C     3233   1 H                                       1.0934749
  2907   6 C     3234   1 H                                       1.0930907
  2906   6 C     3235   1 H                                       1.0917029
  2906   6 C     3236   1 H                                       1.0916161
  2905   6 C     3237   1 H                                       1.0935354
  2905   6 C     3238   1 H                                       1.0928102
  2904   6 C     3239   1 H                                       1.0931764
  2904   6 C     3240   1 H                                       1.0920959
  2903   6 C     3241   1 H                                       1.0914291
  2903   6 C     3242   1 H                                       1.0935395
  2902   6 C     3243   1 H                                       1.0930486
  2902   6 C     3244   1 H                                       1.0922204
  2901   6 C     3245   1 H                                       1.0927459
  2901   6 C     3246   1 H                                       1.0935874
  2900   6 C     3247   1 H                                       1.0932187
  2900   6 C     3248   1 H                                       1.0922030
  2899   6 C     3249   1 H                                       1.0926959
  2899   6 C     3250   1 H                                       1.0935117
  2898   6 C     3251   1 H                                       1.0932497
  2898   6 C     3252   1 H                                       1.0920230
  2897   6 C     3253   1 H                                       1.0875587
  2897   6 C     3254   1 H                                       1.0883095
  2897   6 C     3255   1 H                                       1.0878479
  3016   6 C     3256   1 H                                       1.0875325
  3016   6 C     3257   1 H                                       1.0882637
  3016   6 C     3258   1 H                                       1.0876355

 * 2 distinct bonds (by element types)

   Z      Z             #   av. dist./Å        max./Å        min./Å
   1 H    6 C        2178     1.0925532     1.0949944     1.0860047
   6 C    6 C        1071     1.5272938     1.5346746     1.5215298


optimized geometry written to: xtbopt.xyz


           -------------------------------------------------
          | TOTAL ENERGY            -3427.532242348742 Eh   |
          | GRADIENT NORM               0.000720122198 Eh/α |
          | HOMO-LUMO GAP              11.224677330690 eV   |
           -------------------------------------------------

------------------------------------------------------------------------
 * finished run on 2024/06/20 at 16:00:11.030     
------------------------------------------------------------------------
 total:
 * wall-time:     3 d,  0 h, 41 min, 23.994 sec
 *  cpu-time:    16 d, 16 h, 40 min, 19.528 sec
 * ratio c/w:     5.512 speedup
 SCF:
 * wall-time:     0 d,  0 h,  6 min, 48.360 sec
 *  cpu-time:     0 d,  0 h, 37 min,  4.432 sec
 * ratio c/w:     5.447 speedup
 ANC optimizer:
 * wall-time:     3 d,  0 h, 33 min, 53.426 sec
 *  cpu-time:    16 d, 16 h,  2 min, 15.168 sec
 * ratio c/w:     5.513 speedup

