3864
 energy: -5104.211306405898 gnorm: 0.000991234426 xtb: 6.6.1 (8d0f1dd)
C           44.61456541201067       61.02217043230886       66.54603118776257
C           43.79319780819864       61.88137724452880       65.82647897423357
C           43.94272868502026       61.93453126088474       64.44503503902563
C           44.87802213991154       61.14283455618881       63.80295389787005
C           45.68627878889639       60.28678629800363       64.53086212521183
C           45.55542007126085       60.23370699355647       65.90715829160176
C           42.79869208898523       62.75411465935120       66.55238824610448
C           43.26595641650317       64.21245184622998       66.51054308612690
C           41.37800854833448       62.63557261060836       65.98441656209305
C           40.88861027970792       61.18393696750516       65.91668325535277
C           40.89569583555381       60.53345493733311       67.27740854396139
C           40.04544944335214       60.96997546401408       68.28710658669621
C           40.02486561960396       60.33981810478028       69.51850452604396
C           40.85379580181218       59.25713074880745       69.76080822914665
C           41.70853915623167       58.81685431741894       68.76512090771602
C           41.72931393909438       59.45091291488631       67.53470705929978
C           39.47536209024695       61.09052986062449       65.31160989709929
C           39.43454177573813       61.17332231841313       63.78189996470670
C           38.01304235303779       61.30164417931721       63.28005290732877
C           37.74297534295219       62.16034666463321       62.21999953834102
C           36.47529613462631       62.26115130136363       61.67758327678829
C           35.43890533486272       61.50597299110938       62.19758394629746
C           35.68290086299234       60.67216525851329       63.27430982949887
C           36.95453961457220       60.57382890383099       63.81325691090076
C           40.14942186532272       60.01582198070462       63.04751282959479
C           39.58297367360094       58.60678352930459       63.29842308568990
C           39.68908664041638       57.77179290561375       62.04498955503590
C           38.54771654368271       57.25744106990017       61.44263108839724
C           38.63377511079679       56.47399524344385       60.30462853664590
C           39.87054478226740       56.20138673605850       59.74777275347957
C           41.01475650097999       56.72411789368559       60.32540516643064
C           40.92387291920895       57.50309329671620       61.46461177934562
C           40.28967532465929       57.89797515201618       64.46526191695634
C           39.49945734398729       56.69009801639528       64.98854981380859
C           38.15434810316007       57.14133335468382       65.50402434483451
C           38.05134247950645       57.93439844492346       66.64290620164562
C           36.81560188069913       58.35455641715261       67.10458183619740
C           35.65761157079418       57.98683167067041       66.43941259041638
C           35.74614827365367       57.19869391144631       65.30474157045720
C           36.98409098295036       56.78188775299066       64.84535117576874
C           40.26776607561002       55.94750759736671       66.09763151495102
C           41.25681754546417       54.89105888208172       65.58140263474822
C           42.47146131516140       55.50895947329104       64.93773388415002
C           43.39304709748276       56.22511720765338       65.69495773479939
C           44.53196993720903       56.75073888938091       65.11343660183046
C           44.77035990664555       56.56525064262746       63.76206803783637
C           43.85642940720268       55.86502180009334       62.99478687341573
C           42.71611382269880       55.34266165169137       63.58005873635377
C           41.70355727926765       53.96817378943396       66.73216188920649
C           40.65833302595932       52.89481736999156       67.08400983814290
C           40.79391059052970       52.50671178189577       68.53602886520628
C           41.89391057036669       51.78895225281478       68.98903826677788
C           42.01966726126079       51.42989895358016       70.31782059401607
C           41.04214340342793       51.79430497533517       71.22876084190193
C           39.95385697225661       52.53335967431746       70.79881104585273
C           39.83526461805830       52.88854541907568       69.46635157914700
C           40.77594405359704       51.67540349933476       66.16010488751856
C           39.60238754049429       50.69915691612223       66.33981058637933
C           39.91652978607288       49.37850012127456       65.68713646879925
C           40.09719441305889       48.23648184634292       66.45632059042238
C           40.37246864811627       47.01484780801641       65.86503591045788
C           40.47632570020001       46.91980714545199       64.48802770156514
C           40.29726127465782       48.05343556021173       63.71372478785861
C           40.01923019713601       49.27248218821931       64.30441214409790
C           38.29404429894098       51.29425435707905       65.78540171399462
C           37.31320676265396       51.69118461995283       66.89640422033769
C           36.73034991902605       50.46626495635037       67.55291010998572
C           35.96828845791711       49.55163401068627       66.83574319660394
C           35.45272458942731       48.42288615281158       67.44454041154076
C           35.68722152408191       48.18994591333114       68.78893103051909
C           36.44545320066663       49.09191655475782       69.51542536015097
C           36.96389346548446       50.21810117427386       68.89994344652682
C           36.22839584151925       52.61386472320088       66.33254246025743
C           35.24310459618157       53.09975724556841       67.40164865287065
C           35.93755469620979       53.82585319209657       68.52440290416035
C           35.77433107847352       53.40364016704940       69.83837231896172
C           36.38570649971132       54.07373573635842       70.88352651443869
C           37.17858115929718       55.17976839486535       70.62954459656098
C           37.35534861326365       55.60625808846376       69.32397914366051
C           36.73761233277113       54.93685139198747       68.28273471152374
C           34.19065147829470       54.00203338915946       66.74056952868658
C           33.02819048153842       54.36728306684770       67.66497861431361
C           32.15309952184587       55.45099792753352       67.07898520113343
C           31.95201536374049       55.60992045210264       65.71294893232228
C           31.10947745286612       56.59724584989959       65.22974380167216
C           30.45252632064707       57.44649892050005       66.10147105994234
C           30.64652831091059       57.30215460049776       67.46506223299374
C           31.48757988043301       56.31465449922514       67.94310084100752
C           32.14728462024426       53.16594413682204       68.06950098726594
C           31.50416912785133       52.40871602463501       66.89034133706302
C           30.06883443161400       52.07721727179435       67.21348981544557
C           29.74139264147984       51.15385283568284       68.19992218776713
C           28.42044447005609       50.86541440658078       68.49051953723338
C           27.40094896318011       51.50182469900329       67.80275713164453
C           27.71408625640225       52.43342787750949       66.82801456254714
C           29.03711066421398       52.71725130213752       66.53846845702947
C           32.29330302737817       51.14407642295155       66.52417298566327
C           31.68677395748000       50.39931908226327       65.32752560912350
C           31.51545638092352       51.31527320886672       64.14211205685923
C           32.60667712679883       51.95167073340322       63.56084290254547
C           32.44851084793864       52.79458203111586       62.47598871998431
C           31.18632971692239       53.01356089742418       61.94995301187819
C           30.09105473690111       52.38425631052426       62.51482457661095
C           30.25694770494763       51.54286231380344       63.60113967643422
C           32.56059251991099       49.19528420941150       64.94982075587684
C           31.82033971172222       48.23388917030952       64.00774598763563
C           30.81365193460626       47.44036851873625       64.79807540029573
C           29.45654389246749       47.71393188532686       64.68378017865501
C           28.52366205851389       47.01990497126403       65.43423870852496
C           28.93575466073125       46.03304656112529       66.31285078960202
C           30.28594123235038       45.75034092264239       66.43563138603042
C           31.21523305329567       46.45142522294379       65.68927969220556
C           32.81671886298926       47.34305706541266       63.25408731217840
C           32.12076964482679       46.32358073112072       62.33907259057920
C           31.11527783596733       47.03752529035864       61.46771402183638
C           31.51766447883624       48.00346874382677       60.55149171011027
C           30.58792075699532       48.70226918979611       59.80442164033519
C           29.23608145072849       48.44442435081115       59.95465740726875
C           28.82437546777032       47.47372583942228       60.84985994903418
C           29.75807281335014       46.77550821879304       61.59624774137878
C           33.12267639887115       45.53751854172173       61.47281441775303
C           33.69195618015373       44.27738830299161       62.14408972230043
C           34.48978482600604       44.60507683229012       63.37976261293115
C           34.03276196645956       44.22516445776220       64.63602668161808
C           34.75660403942594       44.52801850206300       65.77738669495062
C           35.95303797063568       45.21793511841197       65.68045965715152
C           36.42074075498468       45.60163626346434       64.43447358971244
C           35.69564770060315       45.29374853930445       63.29744024871395
C           34.54476682626828       43.47992899064866       61.14277144139436
C           34.96785313072828       42.12240800966902       61.71799245111161
C           33.75264728122417       41.25501119718094       61.94942739803764
C           33.37015394400750       40.89820528224811       63.23616688700730
C           32.24924837060794       40.11549619180963       63.45458790245251
C           31.49287939153717       39.67026407774372       62.38435801162875
C           31.86854722943564       40.00749174104806       61.09495655811676
C           32.98740885984959       40.79214127443899       60.88437031527111
C           35.94644331323298       41.36757053341140       60.80604883905009
C           37.36327003427552       41.95061315595694       60.64252629031409
C           38.09479746500998       40.99257315705257       59.73069988710855
C           38.43945471254791       39.71461924045038       60.15958277147064
C           39.02040480481247       38.80763692123632       59.29199135529356
C           39.26950829918826       39.16496730002213       57.97788783711023
C           38.94630787943471       40.43824855559989       57.54236541759828
C           38.36309301273153       41.34186267820692       58.41432795173584
C           38.08808336674905       42.14351125979860       61.98031674750482
C           39.56323244200327       42.52889831889338       61.79834084642730
H           42.77038002430573       62.43376687902582       67.60079862523189
H           40.70502906441960       63.22258830720570       66.61342381054482
H           41.34988411158884       63.06678488245853       64.98257638957634
H           41.58750235896577       60.63147342769503       65.28259971915257
H           39.01269154822266       60.15995670265690       65.63745205394048
H           38.86404641947040       61.90656701257409       65.70633117646092
H           39.96312548499368       62.08739543732849       63.48338505721888
H           40.07602085064591       60.23256503703222       61.97745862200667
H           41.21197238303733       60.03094127207520       63.29764189075932
H           38.52145882876354       58.70461977194167       63.53915745396100
H           40.43029126672543       58.59329248371871       65.28915542428079
H           39.33049814824276       55.99997749739696       64.15490246120230
H           40.79991327696634       56.67128249583723       66.71806036352714
H           39.54009172227367       55.44538973181679       66.74020977060637
H           40.74507316480775       54.28180216048366       64.82831512271245
H           42.64182335685025       53.47936609136964       66.45948360179572
H           41.89778917601754       54.57634014696225       67.61852458823766
H           39.66725895100600       53.33449684569278       66.94788756306025
H           40.81039474760119       52.00916816757731       65.12113972705662
H           41.70971037204895       51.14731546148174       66.36360529129858
H           39.48176396323596       50.51669360860458       67.41361495439129
H           37.85586387443811       52.24930893783415       67.66339186512354
H           36.70975186556114       53.47570180635924       65.86713150277967
H           35.67435330752198       52.08604276235548       65.55472056828209
H           34.75084107362932       52.22003189390259       67.82626789124033
H           34.67496366592278       54.92854741645723       66.42289345427452
H           33.81109543866315       53.50265978671951       65.85028789467773
H           33.45747357889227       54.76346683536721       68.59460991167171
H           32.73775614924220       52.47326787491155       68.67074273759974
H           31.35306359523545       53.55117355595193       68.71454914556344
H           31.49027791750978       53.07139333822953       66.02078942261576
H           33.32257900170249       51.41093943640928       66.29431753474688
H           32.31792172876546       50.46425546264416       67.37829497107431
H           30.69911181821274       50.02890528817888       65.62490788886362
H           33.47038728426491       49.54573618659369       64.46077462818363
H           32.85243413342073       48.66365933386979       65.85695095621180
H           31.27903101210545       48.83608926375241       63.26920713490117
H           33.45480743136492       47.99090641425697       62.65029070957689
H           33.45469465308010       46.81856512353892       63.96402967909436
H           31.57429392958673       45.61293533124693       62.96923170943761
H           32.60293953462744       45.21419165363241       60.56721579926329
H           33.94237654044588       46.19240411091748       61.17711041940503
H           32.84431159284311       43.64733313895539       62.44004724412237
H           33.96914498101162       43.32477291922823       60.22844063448375
H           35.43257331260966       44.05101854556788       60.87390643141090
H           35.44757687490352       42.29330850647379       62.68648276121596
H           36.03931588283890       40.35124637692319       61.19904812469472
H           35.51225433400012       41.28743546372952       59.80675689368999
H           44.51492290473437       60.97179478540777       67.62216722421542
H           46.19207525447524       59.58099228632462       66.48849079267171
H           46.42206410512848       59.67586043179415       64.02887791594311
H           44.98376372098149       61.19721192171471       62.72952573901599
H           43.32571242300855       62.60153159264809       63.86008260856039
H           39.38700717910672       61.80761555780832       68.10978480737961
H           39.35662674324782       60.69150359830016       70.29196462138350
H           40.83315485957610       58.76025271222420       70.72014490598920
H           42.36036025595007       57.97438576537861       68.94991192142699
H           42.40382334075773       59.10256866053540       66.76418188910580
H           38.53864584813962       62.76973507871583       61.81647414055652
H           36.29555850757747       62.92896502868805       60.84738815184132
H           34.44764655966944       61.57626960310324       61.77346482410715
H           34.87941710570163       60.09024286731702       63.70398719160474
H           37.09930907372266       59.92946813154073       64.66680470714290
H           37.57860800249113       57.47477973761686       61.87187841792371
H           37.73564279526696       56.07162525784155       59.85738208889408
H           39.94080874308675       55.58199521374304       58.86595200401312
H           41.98292910487334       56.53164605702852       59.88727275546783
H           41.82574630400369       57.90689412470928       61.90124661082792
H           41.27638009729007       57.56685919048545       64.13978417217972
H           38.94277913426070       58.22514509877637       67.18115883498932
H           36.75664513650953       58.97281454488079       67.98927356240812
H           34.69206450999886       58.30885914127798       66.80248108462736
H           34.84655315787823       56.91235283367129       64.77782507689557
H           37.04625724007695       56.17110203414374       63.95575810388036
H           43.22180920849262       56.37128268132584       66.75166918447721
H           45.23826220171699       57.30493993768271       65.71482176386280
H           45.66606412001148       56.97105914843942       63.31400874182450
H           44.02897748099502       55.72803242906714       61.93799379554645
H           42.00175032355236       54.80619369860847       62.97131923585598
H           42.66772494694646       51.50861449884012       68.29148491019856
H           42.88227977001991       50.86524747248592       70.64340943160794
H           41.13274505871299       51.51067094043550       72.26765648884722
H           39.18914780282768       52.83632737235195       71.50055376215995
H           38.98517539478993       53.47966890435419       69.15589738852229
H           40.01218375062228       48.30488285951728       67.53304192742533
H           40.50581603114824       46.13590997196309       66.48104823983202
H           40.69693890806021       45.97145734108302       64.01906588891339
H           40.36633027648680       47.98004598209976       62.63955495083275
H           39.87115541110811       50.14734390287536       63.68672707284038
H           38.51752050397833       52.17292609534907       65.17733708880222
H           37.81017130067708       50.56968691650223       65.12971523081116
H           35.77675311909039       49.71349288016648       65.78601616406515
H           34.87361846075922       47.71638183460930       66.86736240245838
H           35.28407417780963       47.30911344096230       69.26860131108356
H           36.63713610150938       48.91652387881725       70.56524350998062
H           37.55913252207293       50.91486219696673       69.47565669800109
H           35.16201653345703       52.53708647840144       70.04754916127898
H           36.24234178059519       53.73165672952114       71.89925499809097
H           37.65982581377747       55.70368089918976       71.44302813971795
H           37.97759898274329       56.46413436438813       69.11384610690519
H           36.88346019171865       55.29048173344201       67.27325872543176
H           32.45247682261079       54.96835275533237       65.00392736712232
H           30.96604796157018       56.70228553795285       64.16356457038670
H           29.79643686061111       58.21727028690959       65.72358757845886
H           30.14235798477501       57.96249218665072       68.15636534152770
H           31.63523007691400       56.21176923050128       69.00976189039473
H           30.52451556289984       50.65431070798914       68.75099069455325
H           28.18358483393347       50.14140906958047       69.25726798771250
H           26.36876883398928       51.27584684613292       68.02861421013830
H           26.92463239863086       52.94011109274219       66.29092979970355
H           29.27446438954038       53.44739955945418       65.77674935950800
H           33.59576622895819       51.79325410240992       63.96598507664448
H           33.30911843600760       53.28333565411397       62.04036165143749
H           31.05200468682526       53.67567595131739       61.10631215574445
H           29.10248383345505       52.55012168936666       62.10997351022328
H           29.39459986017908       51.06317573279613       64.04406501363685
H           29.12540616026602       48.47606914911201       63.99145421820127
H           27.47192631213029       47.24934606882573       65.33328737167777
H           28.20933803578228       45.48758750231961       66.89821857745703
H           30.61395230908013       44.98021082495810       67.11979305365368
H           32.26458017288064       46.21954058942495       65.79931553695067
H           32.56764629802576       48.22537358648425       60.43403190116316
H           30.90993618209669       49.46450966232501       59.10950668120628
H           28.51041687573576       49.00100420961475       59.37894259944090
H           27.77012322096660       47.26822535485014       60.97940187628838
H           29.42333279161222       46.02901364397650       62.30414829005472
H           33.09574342372747       43.69121573181517       64.72209882097043
H           34.38358979867288       44.22474115035992       66.74644208421942
H           36.51722969213303       45.45901042251107       66.56981807557042
H           37.35162494459153       46.14615715429127       64.35863955551143
H           36.07017437075273       45.59446574219812       62.33037917621991
H           33.95651997832209       41.23864477529740       64.07867881910924
H           31.96571737101676       39.85084360505928       64.46383157809066
H           30.61773339866795       39.05919356264159       62.55217715107788
H           31.28673875673020       39.65336483487827       60.25489211791060
H           33.27563437181644       41.03639910555840       59.87234050277277
H           38.09970969398736       42.33121113049215       58.07081396900641
H           39.14094200281084       40.72488383716841       56.51869408378602
H           39.70764575899755       38.44280066053098       57.30604095023912
H           39.27298423307590       37.81260636918766       59.63246741855457
H           38.24676491409460       39.41799798931755       61.18077951097184
H           44.25761013858345       64.30534624017012       66.94867326253798
H           43.31108538458167       64.57001287435850       65.48437864560358
H           42.58094724652689       64.84717435463338       67.06847815784784
H           37.29612627282327       42.92068699935850       60.13894803464872
H           37.57901312846295       42.91557057703023       62.55874817299691
H           38.03255747711613       41.21561781343794       62.55059909670221
C           40.29198917079330       42.66616906479756       63.14641029983198
C           39.73720249369103       43.82664912938943       61.04618990191798
C           40.60472612764534       43.90208385418617       59.96350603120958
C           40.82834700692268       45.10348280242032       59.31226665343097
C           40.17289936667908       46.25044168542765       59.72584944964132
C           39.29511345547618       46.18559129203383       60.79546616392140
C           39.09073701931707       44.98713982797769       61.45560471950191
H           41.10990581670899       43.00680428305824       59.62686689989667
H           41.50997790989742       45.14782258673780       58.47429930422131
H           40.33503084810950       47.18700461093426       59.21067224487170
H           38.76225757507775       47.07023631507161       61.11414132551896
H           38.42045484731558       44.95875147623263       62.30094756546715
C           40.34984141742690       41.36314899849964       63.95034656805652
H           41.31594099835753       42.99808747532442       62.95095355651480
H           39.80175292239547       43.43971540608766       63.73982510628321
C           41.27167511402789       41.47256863402475       65.13303316529812
C           41.08194231298392       42.45968351508726       66.09499226912850
C           41.92262304654209       42.55689402482658       67.18770614363018
C           42.96808074438682       41.66238321604558       67.34245480353803
C           43.16547829256103       40.67395804713969       66.39468113551251
C           42.32392548521097       40.58135423240414       65.29899657263833
H           40.26123211869151       43.15475099484115       65.99340074750423
H           41.76606627924114       43.33165617227131       67.92485077821487
H           43.62291616362786       41.73754148607679       68.19842339281399
H           43.97690886054105       39.96830087281834       66.50830948628887
H           42.47863621080518       39.79366773787130       64.57306869793862
H           40.05451470216415       41.73070746588333       61.23032236726792
H           39.35035581382458       41.11351009195847       64.31533051534271
H           40.68679455798245       40.54821788164689       63.30505659110393
C           37.50619665567796       60.77351069367517       57.03333936915046
C           38.32181812542147       60.63472068662450       58.14994933439758
C           37.79071383711055       60.02813748969340       59.28216382199167
C           36.48236328302593       59.58205966529448       59.29816937678290
C           35.67726619127619       59.73565350804693       58.18199253120225
C           36.19549039224596       60.33030682109359       57.04464633125811
C           39.71754055968062       61.21210095352617       58.14590329210069
C           39.75679606175786       62.39278905215976       59.12093159401726
C           40.77560303322381       60.14974489281961       58.48041909516220
C           42.19573396713885       60.71148086850237       58.65418930994159
C           43.13577476358970       59.60882721387232       59.07749024970365
C           43.67667785268439       59.61750346488087       60.35677261014019
C           44.57055928940363       58.64239592982264       60.76116321319101
C           44.92657214488920       57.62707750769717       59.89074626442173
C           44.37785399701988       57.59395829795002       58.62026860954030
C           43.49459566557550       58.57908142631997       58.21626865716297
C           42.70209908602330       61.41123272213480       57.38714512355932
C           44.11499499697011       61.97658568081561       57.57114394781292
C           44.16241885645387       62.98505461258317       58.68880761466541
C           44.99337278214534       62.79045288457322       59.78513456312254
C           45.04527773838993       63.71550660443805       60.81394493673879
C           44.25696808961672       64.85204492638927       60.76538199660612
C           43.42446133318393       65.05891952081939       59.67777264245134
C           43.38419473832580       64.13743133211192       58.64697728269081
C           44.64174762388289       62.58873979037688       56.25767070640489
C           46.08963925986711       62.15867108241428       55.99458976038719
C           46.12395098590181       60.67603319321510       55.71900405344613
C           45.51771636584129       60.13113220566474       54.59342950717375
C           45.52182329287841       58.76400905086389       54.38451790973377
C           46.12549571440532       57.92037360602023       55.30159671835473
C           46.72148020063302       58.45049368676348       56.43054318685762
C           46.72175749866357       59.81776771557698       56.63171912935506
C           46.74687379395149       62.94382010866599       54.85231423473851
C           46.94493683196691       64.44825326179821       55.12124734238684
C           47.85655517603795       65.02770695651321       54.06747740108823
C           47.38664495513243       65.98470029372585       53.17850153186183
C           48.22943170099433       66.56672158488948       52.24743581672977
C           49.56182445871208       66.19719690074831       52.19033482825076
C           50.03966506479754       65.22761231907756       53.05658455996597
C           49.19285707143278       64.64906258499612       53.98382228327328
C           47.51560405238569       64.71537760699137       56.52197429874580
C           47.93167714731145       66.17387185835362       56.74447281770421
C           46.75696098536819       67.10423989955684       56.57873451796575
C           46.82693130622224       68.16523637907923       55.68439721367134
C           45.75991279680745       69.03097981250701       55.52011521920844
C           44.59948272216684       68.84791571249571       56.25207220244560
C           44.52005060486837       67.79734563197289       57.15036081431495
C           45.58929536860555       66.93573705909671       57.31456363082751
C           48.55203777987786       66.36646654992998       58.14000810985554
C           49.92996627336400       65.69734745123152       58.30972504834753
C           50.19239444427686       65.50092030445818       59.78344523892979
C           50.02435322711885       64.24186675181473       60.34722913034994
C           50.21946582017470       64.02920379709128       61.69974780064084
C           50.58048523719764       65.08390612788476       62.51974609499971
C           50.73836681544500       66.34711266692663       61.97492352869899
C           50.54285438300924       66.55357103324678       60.62057082214494
C           51.03632150501779       66.49304970510708       57.61132991631177
C           52.36680752211573       65.72083511792910       57.50142102312188
C           53.47047347312210       66.72443379863313       57.28505309776448
C           53.59551161867209       67.41606154924925       56.08505352489524
C           54.59356217901207       68.35707439131491       55.91168051888587