3864
 energy: -5104.257677801164 gnorm: 0.000800633129 xtb: 6.6.1 (8d0f1dd)
C           73.66864101949943       53.44272013345218       38.53451772439410
C           72.41986011932202       53.56923073037770       37.94016671657797
C           72.08467257759074       52.69562522944496       36.91238838085368
C           72.97101518354123       51.72062161556819       36.49390783040009
C           74.21342837222889       51.60460325346621       37.09364756543611
C           74.55993476586623       52.46985273223989       38.11669947025995
C           71.46863832991319       54.65022687223031       38.38679559867843
C           71.29808420720991       55.68703944577438       37.27321443956225
C           70.10928025746857       54.07793746307983       38.80797746885249
C           70.23094489913349       53.05071002063297       39.94180671049904
C           70.94512873704048       53.65136841778373       41.12522939021486
C           70.46349258114149       54.79440125437785       41.75364167995350
C           71.14819590983484       55.36256207092928       42.81164631255156
C           72.31904315025912       54.78674969258087       43.27413852839447
C           72.80038756501897       53.63930865753486       42.66764329650155
C           72.11995195099286       53.08134481694881       41.59947126720294
C           68.84443020267321       52.52733071488568       40.34190762215810
C           68.93029600249821       51.45780823475051       41.43570704314815
C           69.70409476789970       50.24558163104239       40.97949506773853
C           70.72906425660605       49.73490359257078       41.76638728578533
C           71.42184689601547       48.59907469510819       41.38641075613521
C           71.09538988382087       47.94930916111431       40.20826263863657
C           70.07438698413192       48.44568369148529       39.41584905904964
C           69.38704378126590       49.58269473581958       39.79931610764915
C           67.54247513987865       50.99854223441179       41.91325456576379
C           66.73382952940342       52.11461461201669       42.60531189501960
C           65.70632602708314       52.68157344658937       41.66002708983707
C           65.72571019187731       54.01993435259456       41.28967504739504
C           64.81373011385190       54.51696276166866       40.37452694912024
C           63.86068626380762       53.67845913296254       39.82014898791532
C           63.82037027100667       52.34685617018755       40.19665191397847
C           64.73201682329078       51.85459813153813       41.11119661243004
C           66.06983262955235       51.62172413425715       43.90325489514731
C           65.68854124586888       52.78514748131688       44.83007496917271
C           66.90200621833974       53.64168301384562       45.10952146466322
C           66.88140794783644       55.00081343698064       44.82330430113915
C           68.00021029866635       55.79077590257935       45.02262346444059
C           69.16485201485087       55.22863904759380       45.51385860783362
C           69.19232701598354       53.88039404481279       45.82560868069412
C           68.06996858995436       53.09675502817720       45.63321016728430
C           65.10002330371859       52.29329422607610       46.16358590301648
C           63.67721553056669       51.70900449177476       46.07862433476108
C           63.39608380977799       50.92032112256584       47.33685016795855
C           63.26424362014335       49.53768663766232       47.28725908991865
C           63.01104051845068       48.80019403557749       48.43067925993986
C           62.88696108205271       49.43789438889874       49.65253204325467
C           63.02012403646143       50.81433543132027       49.71997014171959
C           63.27575700827563       51.54533447606996       48.57295230639763
C           62.62703592636858       52.80877936423114       45.86638710997423
C           61.19176780180693       52.26396046399390       45.83985055410920
C           60.98412924345199       51.32295973796151       44.68449645794681
C           60.64507158729856       49.99604674575190       44.91639313571638
C           60.41658002670032       49.12642319347587       43.86516814906577
C           60.51759563771438       49.57756835458272       42.56093737077870
C           60.86162204069493       50.89581584391458       42.31861925501478
C           61.09792440597442       51.75910889927435       43.37124047843919
C           60.18035521318778       53.41976014186078       45.79476091052567
C           58.71659267374167       52.92873437606841       45.72514465287771
C           58.13983378715460       53.07492102618716       44.34004663480596
C           57.99197443260210       54.33169216700760       43.76328850222893
C           57.43511037014825       54.47794685221318       42.50596560497099
C           56.99852520642219       53.36690763872776       41.80473394250318
C           57.13890182793477       52.11288606234407       42.37031707300858
C           57.71112188031054       51.96755624848913       43.62116541701278
C           57.85855927615756       53.69216657467465       46.74453414176538
C           56.37388309026343       53.28062885441175       46.77860469245378
C           55.61971314335564       54.37452289028234       47.49358307014177
C           54.67240664586308       55.14019281919914       46.82610822905778
C           54.04597228967863       56.20171102775647       47.45737612797553
C           54.36322907360166       56.51757563771669       48.76641615220937
C           55.31489075264739       55.77080304722365       49.43982128013546
C           55.92828673265446       54.70365987080748       48.80972609613334
C           56.19221976147313       51.91322183030475       47.44816274934888
C           54.78095598882789       51.32806390623942       47.29465698485750
C           54.43151629040233       51.08122683079440       45.84871173705740
C           53.33496158648889       51.70632280981420       45.27009516829125
C           52.97741181435038       51.45026844145851       43.95821508111347
C           53.71706511805611       50.55756511759541       43.20342152401067
C           54.80676725622923       49.91877280112877       43.76891297703331
C           55.15798458039759       50.17887786955682       45.08015395596176
C           54.66027608584750       50.00131417717397       48.06868044318084
C           54.37913994321375       50.18374577593564       49.57418079743673
C           52.88871717005524       50.13838240633434       49.81354295551906
C           52.15607162764137       51.31516365265725       49.90556062573905
C           50.78450849674201       51.28939914952077       50.08748032057940
C           50.11698147158882       50.08081732598326       50.17313076915899
C           50.83147033217844       48.89985784547878       50.07389852514023
C           52.20280990783852       48.93187902906462       49.89651499367405
C           55.13116660867544       49.13058097528301       50.40047000653504
C           56.65914619574296       49.35140531020646       50.38046763794522
C           57.39422901891794       48.22871931769273       49.69169314500711
C           57.25061161397844       46.91173177842656       50.11527547588885
C           57.96164960636538       45.89005236968826       49.51323272247365
C           58.84182327613090       46.17141545772064       48.48232432896472
C           58.99218044999616       47.47628573081420       48.04776664405426
C           58.27099468689801       48.49410312964134       48.64649387400677
C           57.21865797949567       49.52134309962656       51.79994013423683
C           58.68494978280089       49.96265520861359       51.77724775306174
C           58.85587323551187       51.34295321400533       51.18810224631856
C           58.17333920508216       52.43675927429486       51.70950458337919
C           58.40518478881908       53.71296862690384       51.23036480915083
C           59.33694281040990       53.92325292418009       50.22736488948030
C           60.01694324907389       52.84155495845246       49.69603745629504
C           59.77174068504767       51.56390716875969       50.16784967500441
C           59.30730628673633       49.99895723029970       53.18079852318585
C           59.54734245128522       48.63122879336620       53.84485626487979
C           59.72073721517106       48.89428357060422       55.32248625180478
C           60.73027615061361       49.73917715456166       55.77271929134062
C           60.81632970588664       50.09434064247344       57.10657707349077
C           59.90283920845859       49.60063057525524       58.02120946923255
C           58.91307449934715       48.73521987572290       57.59241768242588
C           58.82322505477820       48.38934301889739       56.25561543048563
C           60.74429598426039       47.89683455843702       53.21291837344681
C           60.52011009979247       46.38158974635915       53.08171373532430
C           61.60165477885114       45.74022967759425       52.24916358268747
C           61.27245225248588       45.02808942062691       51.10257697916588
C           62.24667805071332       44.39343124878113       50.35375672476646
C           63.57407964772276       44.46918376407957       50.73631234170136
C           63.91923196235518       45.19234391259570       51.86492514429990
C           62.94061043935252       45.82034710736985       52.61453171709433
C           60.44335647634411       45.71434250029949       54.45997278621913
C           60.02893477060284       44.23625839898668       54.41536152887409
C           58.74802394213084       44.03044566847846       53.64564447933520
C           57.56390697815709       44.64764743151027       54.03284484760876
C           56.38785356321757       44.42610026540075       53.34009639112843
C           56.37507385320396       43.57992458734001       52.24559693809911
C           57.54666946828373       42.96159944427839       51.84716764794099
C           58.72191555094354       43.18689893277394       52.54176024057051
C           59.86769017419683       43.73161145597941       55.85743330027492
C           59.48154620840032       42.24840649681296       55.93558256381406
C           60.66636074782353       41.35267922481246       55.68820806398048
C           60.63412729419495       40.40823065943326       54.67064264642426
C           61.71113985921689       39.57038648941711       54.43786057656801
C           62.84439036133313       39.66522566780694       55.22681297568781
C           62.88786146244868       40.59905541725631       56.24846348536533
C           61.80886479579407       41.43284663095427       56.47748680846070
C           58.82941896093415       41.92428769176978       57.28859562306673
C           57.99757424860049       40.63313505265427       57.26052868650034
C           56.93440335267119       40.72334649962456       56.19296792635983
C           55.96181944137516       41.71609271171311       56.23124290881272
C           55.00633771994251       41.80787703246521       55.23592522967916
C           54.99903260181252       40.90227244055603       54.18988010509204
C           55.95219221973149       39.90089685167785       54.14626897419677
C           56.91292719180343       39.81836297819216       55.13893222394626
C           57.38538647590361       40.36888075438667       58.65729054635450
C           57.95469417243699       39.12445169759131       59.36160625460325
H           71.90884169133524       55.15358057774454       39.25537161522293
H           69.47130846959122       54.90339279253962       39.13098982916829
H           69.62749338658475       53.60159971536835       37.95281469816857
H           70.82485384165099       52.20513272143526       39.57466429070369
H           68.23934194864174       53.35863432209113       40.70229465118592
H           68.35015101697340       52.12016656334515       39.45822212728540
H           69.45522457990330       51.89524152358128       42.29455309624055
H           66.99074458689230       50.60365786623503       41.06005009259754
H           67.68783638132570       50.16686101626746       42.60570310158491
H           67.43427793294298       52.91013550664034       42.88211798256446
H           66.76484038219975       50.96812199033292       44.43072938591322
H           64.94575822710061       53.40535913770746       44.31816462217322
H           65.77104371926450       51.53581744455486       46.57753955995378
H           65.09449368127547       53.13272465690536       46.86362473505531
H           63.63012556790228       51.02226658450938       45.22777708775744
H           62.70299192295772       53.54012956760285       46.67235214625448
H           62.83185005403733       53.33004973517293       44.92999743978084
H           61.02348322167941       51.70624304254745       46.76895948260923
H           60.31692716609282       54.02679233768458       46.69274319259815
H           60.39930772215335       54.05987651248911       44.93964722221307
H           58.70067986255877       51.86673914594518       45.98809449459165
H           56.00458872440359       53.21342924853175       45.74835278432420
H           56.90553794491322       51.21387625893451       47.00979058452067
H           56.42748415033780       52.00627586816966       48.51055676586936
H           54.05716052588010       52.04205444873573       47.70325156091369
H           53.85172323062913       49.41034207683787       47.62930273207245
H           55.58194860576366       49.43272385880692       47.93606714859948
H           54.73449765109319       51.17124193175239       49.88687763696935
H           54.76149938338200       49.17227857582839       51.42750103812757
H           54.90658112475685       48.13817255873938       50.00760133482790
H           56.87233484107965       50.27762327530458       49.83854721014802
H           56.61611512230459       50.25774662679243       52.33390529076056
H           57.13354538110135       48.57045443148153       52.32647163041015
H           59.24553306977028       49.25132348526978       51.16123901669481
H           60.26542653265236       50.51814466845238       53.10842443804161
H           58.66179374652183       50.59433922046397       53.83118410282991
H           58.65653488598469       48.01176454884592       53.70410966997194
H           60.91799647698419       48.29287760390780       52.21001012120557
H           61.64429880829196       48.08598320395765       53.80094467282977
H           59.56521222850242       46.22612926777603       52.56595870551916
H           61.41832685504994       45.78169703860107       54.94527600655243
H           59.73092051456854       46.26005463469617       55.07685423751998
H           60.82383595529419       43.66075505661495       53.92580645957566
H           60.79767619864045       43.90636361921798       56.40024107509625
H           59.08479612051921       44.31811318693475       56.34084484156143
H           58.73295307126760       42.05835352907503       55.15849445628234
H           59.59919754138804       41.83445706429243       58.05883494077884
H           58.16796320515611       42.74849995356148       57.55957660985991
H           73.94486489918647       54.11257130411236       39.33749109335748
H           75.52775008962249       52.38721742074913       38.59058065733660
H           74.90754782391511       50.84487682739199       36.76469386336329
H           72.69451121039700       51.04708765051471       35.69512773103776
H           71.11989459253031       52.77431631155149       36.43414087711565
H           69.54978745859692       55.25695510809614       41.40964310309317
H           70.76800349691139       56.26142529865771       43.27379869671489
H           72.85548826669225       55.22977397070134       44.10113771171213
H           73.71366858272557       53.18175793273058       43.02205328701000
H           72.50642612107089       52.19170002311041       41.12042730856019
H           70.99083652448948       50.23873653010141       42.68719698366589
H           72.21865820133530       48.21895281462187       42.01088668026735
H           71.63719782998996       47.06276588858417       39.90953695165960
H           69.80704313097496       47.94810328762054       38.49369533570279
H           68.60073073815265       49.95253651618581       39.15965043706530
H           66.46725139992643       54.68237856279854       41.71854706881047
H           64.85401021541634       55.55843197156157       40.08733928889498
H           63.14730920846976       54.06627589056194       39.10761832445171
H           63.07837856480429       51.68706446276978       39.76966462503038
H           64.69137463468104       50.81396871367063       41.39747943479431
H           65.18495927562961       51.03320991038333       43.65935609749492
H           65.97403517759665       55.44208680548951       44.43645734702155
H           67.96814169659024       56.84712752842886       44.79125773216092
H           70.04409287362718       55.83800648623880       45.66528204729182
H           70.09505432323292       53.43705990508264       46.22254287052492
H           68.11674226039743       52.04893619879333       45.88977099307090
H           63.35650727219332       49.03319052971727       46.33644229316233
H           62.90875468198045       47.72595738053886       48.37210694551752
H           62.68721483073763       48.86038788859492       50.54414771125644
H           62.91886887338332       51.32591363186825       50.66660453908772
H           63.37271251741197       52.61875459895527       48.64562127582597
H           60.56182578745389       49.64295663106390       45.93609789160762
H           60.15491272529971       48.09534833467496       44.05548268498107
H           60.31953782339527       48.89964227065967       41.74442205404999
H           60.94202796595383       51.26419489521281       41.30558754775047
H           61.36499005537656       52.78417208033783       43.16407230667481
H           58.30750933188649       55.21096345379875       44.30610136680967
H           57.33527527416121       55.46407492907786       42.07399198545780
H           56.54578933368039       53.47711248596395       40.82874877693275
H           56.78496497996628       51.24382053233632       41.83548779836087
H           57.82146906659720       50.97974738700775       44.04420079789583
H           58.28854765104045       53.54592459303839       47.73727230021520
H           57.91236504048467       54.75913047934437       46.51479702913787
H           54.43045240657000       54.90430253360783       45.79775799911808
H           53.32370158220662       56.80166027534520       46.92151727969861
H           53.87294301527163       57.34207380527326       49.26548097412700
H           55.59104962634369       56.03361739874698       50.45260515079721
H           56.67082529804342       54.13320573923808       49.34720206220587
H           52.74604631698771       52.39567564331433       45.85993688770486
H           52.11504858379599       51.94168496683030       43.52965510231520
H           53.44121287325967       50.35599235452241       42.17755702277967
H           55.38161189182964       49.20880554374847       43.19048870352903
H           56.00176099640085       49.66158623259547       45.51297260339247
H           52.66525304532620       52.26651452421769       49.84070039123008
H           50.23230808006805       52.21619303342020       50.16176125677630
H           49.04567103229545       50.05956308759014       50.30554054565510
H           50.31838530104733       47.94891712845631       50.12795427534859
H           52.74404452610018       47.99992795012561       49.81792330417392
H           56.57999115074730       46.67305146783075       50.92897951421602
H           57.82838898950214       44.87267198621487       49.85545022564696
H           59.41145596623302       45.37769860878603       48.02299989833477
H           59.67848125646981       47.70019438703628       47.24305484314964
H           58.39837395627758       49.51359849510882       48.30748384254744
H           57.45853108729410       52.30153770971339       52.50758719889881
H           57.85950535221498       54.54850075337109       51.64675985100523
H           59.53251991218136       54.92161412261649       49.86399261319961
H           60.74934560890122       52.99343532923604       48.91735893665342
H           60.31356121213413       50.72774532691675       49.74763759286053
H           61.44906544838201       50.14156579959381       55.07430207141751
H           61.59428911438441       50.76963146851725       57.43409056967170
H           59.95873588528018       49.89565760838904       59.05762683074636
H           58.20216008099527       48.33816537192914       58.30028745805104
H           58.03082630080564       47.72725199520967       55.93402816362962
H           60.23782370806697       44.96557441264909       50.79852257674615
H           61.97274324730713       43.82404368143602       49.47723063309110
H           64.33219896922601       43.95685286141164       50.16067817961186
H           64.95544377408882       45.26157481406167       52.16892128824470
H           63.22910705745186       46.37527209388100       53.49623373292940
H           57.55503820725875       45.30567356294311       54.88883966720724
H           55.47629543991895       44.91064571241517       53.66043352205138
H           55.46312659487240       43.39910841518842       51.69698481363860
H           57.54125031178907       42.29966001187032       50.99160504143740
H           59.63598119437881       42.70499241753065       52.22269423592127
H           59.74861040474204       40.32928439132910       54.05503405760766
H           61.67023852209311       38.84456736593225       53.63698548656296
H           63.68859682431818       39.01407414624513       55.04689406756336
H           63.76777118890848       40.67973489244200       56.87151872666855
H           61.86894145871948       42.15316889819977       57.28138492451640
H           57.65735112294423       39.03485252502615       55.09166915654681
H           55.94755355165038       39.17883839483056       53.34259667018780
H           54.25481477693798       40.97013079875104       53.40986906650026
H           54.26436039325033       42.59052937511054       55.27761085797972
H           55.94757782257025       42.42346442706969       57.04681423183690
H           72.26115753616838       56.11542631883034       37.00330478221461
H           70.86805996423215       55.22810779596110       36.38615801959523
H           70.64349199180512       56.49068035656435       37.60353113401718
H           58.66772136080187       39.80780415279172       56.99697064663516
H           57.57240554998440       41.23876500197236       59.29019219450694
H           56.30260912189677       40.26961131769684       58.56652145703359
C           57.03939897248451       37.89524833861307       59.22850487653827
C           58.17485675909994       39.33734480359421       60.84056647939147
C           59.31794209522269       38.83537950304524       61.45046537322829
C           59.50523645966749       38.94843489740976       62.81722604938717
C           58.54719410821251       39.57256002147405       63.59739791673010
C           57.40823564968571       40.08608218266961       63.00122058950539
C           57.22273546111676       39.96470633224880       61.63589734600468
H           60.07207303922085       38.34607298370644       60.84863570128056
H           60.40133265852218       38.54982394720080       63.27248685540278
H           58.68750631561537       39.66593913623467       64.66467236941961
H           56.66889866179478       40.58494264819812       63.60897636610112
H           56.32787564166252       40.36661525490199       61.18418633743989
C           56.77775541869281       37.44957166730557       57.78658361859645
H           57.49779769245423       37.06424340331445       59.77353306474127
H           56.08504942716782       38.11015061307592       59.71305207152922
C           55.98604958006095       36.17305268571965       57.79080954298759
C           56.57811128565083       34.96368159888449       57.45015150362990
C           55.86187712244990       33.78071946267217       57.50974364036255
C           54.54173389503207       33.78930299414565       57.92619578209182
C           53.94035612737189       34.98844070732304       58.26877600177610
C           54.65500836490305       36.16972342990601       58.19264262162609
H           57.61192173915640       34.94595320153597       57.13280995166624
H           56.33705441641660       32.84891089988655       57.23641615870361
H           53.98467987479256       32.86500179658973       57.98332910487564
H           52.91162547587904       35.00492564328973       58.59855127493045
H           54.16904067894853       37.09843766145718       58.45377715744571
H           58.92350390279302       38.87654882306788       58.91341712536213
H           56.22882089286623       38.22713277308736       57.25322021352046
H           57.72949416054095       37.29129067137023       57.27576386904322
C           45.68382233411798       45.71692926508204       45.66023887738178
C           45.80403031197629       47.08880255883732       45.83804152308106
C           46.13014020341753       47.87301275003564       44.73761164122041
C           46.29751653737208       47.30781251838025       43.48770118706642
C           46.15430800005025       45.94166755246395       43.32035248363330
C           45.86001554396402       45.14468906432576       44.41196882658105
C           45.55662062370382       47.71751159157301       47.18658806048845
C           46.83094944320076       48.38808134093170       47.69999717976793
C           44.37979000497558       48.70066710058185       47.06873440929692
C           43.83986092208934       49.20980709821414       48.41299193081174
C           43.02463640777486       50.46268623898992       48.20749683787693
C           43.35738211163206       51.63343387610628       48.87457806220089
C           42.59474265792262       52.77852869683977       48.73207588505522
C           41.47631978660652       52.76740884735889       47.91796036544693
C           41.14418256883850       51.61299625141550       47.23109119546516
C           41.91558889638497       50.47444959218794       47.36968993774995
C           42.99373746111310       48.15038035269260       49.13272069697212
C           42.80094227718175       48.48987170831627       50.61861858266306
C           44.09796272249070       48.33066066368497       51.37126651829546
C           44.70563906707667       47.08709500413477       51.50196654791146
C           45.86445171072388       46.93540251871831       52.24088269680284
C           46.45099249645604       48.03169814401100       52.84671695890241
C           45.87464544544826       49.27997266506006       52.69784242055046
C           44.70623299339363       49.42627885877551       51.97070283224579
C           41.69728856126184       47.60806408323030       51.22514679817453
C           41.57409593331266       47.76598887962651       52.74807751571193
C           41.39356076460535       49.21639773410644       53.12825361244451
C           42.28087323829901       49.83950221520922       53.99607314720115
C           42.14049746601946       51.18011202451721       54.31105761129923
C           41.10564796006434       51.92024108912192       53.76809122329618
C           40.19711612759684       51.30234141224879       52.92578411819353
C           40.33936091431046       49.96305447965887       52.61376173747802
C           40.40690675535880       46.95382243140948       53.33429254390758
C           40.31498776082984       45.48507735468420       52.89104024067245
C           39.08438797525156       44.87635883191059       53.51666611459238
C           38.98720414337540       44.69951611592642       54.89194666704869
C           37.84590350642441       44.16089259989687       55.45624235589383
C           36.77675142582166       43.79933570940877       54.65531917923747
C           36.85966121026022       43.97071220129580       53.28570217617378
C           38.00753540215910       44.50004918474673       52.72470580628697
C           41.56614859231290       44.66268964043375       53.22310574957937
C           41.49051658452758       43.26749709179300       52.58882203689478
C           41.37366726480245       43.35647026009744       51.08598064158716
C           42.40724225125822       43.88671293167545       50.32192303615344
C           42.32709356616353       43.92577909022128       48.94193718981177
C           41.20259477154364       43.43846780537209       48.29861052196210
C           40.15792747758713       42.92573778424855       49.04677707708495
C           40.24672294260902       42.87866617165182       50.42785131780354
C           42.71348595879698       42.40514877414969       52.93973732588601
C           42.65744723761699       41.73735707635887       54.32247245880966
C           43.16791461949183       42.61012936863403       55.44005528779206
C           42.34860437764700       42.94734025932672       56.50983065448226
C           42.85247629286378       43.62392642508774       57.60833625441452
C           44.18793592776632       43.98129645468565       57.65029898463759
C           45.00941445690850       43.67938497640966       56.57696711483520
C           44.50197655123072       43.00401169532213       55.48292173125049
C           43.47925113537137       40.43347940717343       54.25713642604327
C           43.77812160208669       39.79251266412685       55.62160047270412
C           44.79928046573563       38.70205451335929       55.42562427527059
C           44.51784295489568       37.56919354187218       54.67070632809908
C           45.48738941632718       36.60738386413679       54.44873647144078