3258
 energy: -3427.533318177918 gnorm: 0.000681189708 xtb: 6.6.1 (8d0f1dd)
C          103.95468471684482      122.42113829376630      116.71199247870888
C          104.21712223043086      121.84623552761506      118.09747024700235
C          105.35832480134056      122.56643611976109      118.81168798451637
C          105.66136493597567      121.94644912965794      120.17301732536717
C          106.76610274979510      122.69532049154334      120.91542084845747
C          107.09965823979672      122.08188471591659      122.27746517550290
C          107.85928071607401      120.76246143642541      122.16764800412919
C          108.18770237678476      120.15508185827640      123.52909071153960
C          108.99985026749617      118.87153591652078      123.37896573889907
C          109.21800295161512      118.14266791058692      124.70147072214452
C          109.90979871442218      116.79894268371622      124.48712375832288
C          110.04667850258512      115.99820348328436      125.77965015206406
C          110.57047272572402      114.58036185209735      125.54802221936430
C          112.04244712924326      114.54013608293275      125.14470620473556
C          112.58143905220145      113.11890051057830      124.97533257364702
C          111.96187338869537      112.32900182179598      123.82158619824165
C          112.23689362927875      112.92649042501979      122.44271897088187
C          111.67005269301845      112.03869877216989      121.33708311628435
C          111.89336819648970      112.57542460011993      119.92409728486956
C          113.34458020500975      112.46792891619972      119.46479192983367
C          113.54071828639152      112.94903169265679      118.02873453358136
C          114.96319171981338      112.69789019894208      117.53623899042579
C          115.17717587339645      113.12192819238527      116.08674482098776
C          116.59497610037391      112.80761985199032      115.61226505531374
C          116.83834360347238      113.14501491264255      114.14059160938379
C          116.09949695602117      112.21667548425204      113.18069968748650
C          116.40779733815582      112.51876114575202      111.71633150628189
C          115.58834875733238      111.63762812141034      110.77764164962899
C          115.81578385868943      111.95989370715498      109.30326532509444
C          114.97659861850043      111.06375286338614      108.39599077141192
C          115.11217333326870      111.41842951261879      106.91762551187654
C          114.22440028634786      110.54023416483449      106.03883909902621
C          114.21415596863139      110.98358307206298      104.57789168944294
C          113.24013046564940      110.16356733120310      103.73498236070445
C          113.15946244538065      110.65218113205219      102.29143380849953
C          112.12094425372442      109.88372123185657      101.47764725039666
C          112.04285663346910      110.37093728404123      100.03258554628904
C          110.89785813241784      109.71195814171034       99.26620357816978
C          110.90473404312620      110.02174467229536       97.76921732672849
C          110.80954068353358      111.51039268506896       97.44851485545874
C          110.66678206120119      111.77233274048126       95.95050791953251
C          110.74471892760140      113.26483409060964       95.64082678100519
C          110.58681513052137      113.57255591989467       94.15472649373936
C          110.76777404539637      115.05413822419193       93.81759299381511
C          109.59608552394840      115.92179604649588       94.27192572577094
C          109.81673533101622      117.40155274771747       93.96091985924359
C          108.55787153202911      118.25641192685470       94.12824493994989
C          107.90710911963141      118.12946087215602       95.50491678443676
C          106.75973475963191      119.12568385353447       95.70193870066952
C          107.20468784860516      120.49708644458273       96.21684151334107
C          107.49194135725322      120.49153102357373       97.71737861858954
C          107.85826610587279      121.87500630525304       98.24996733372376
C          108.14934505578084      121.84417603259033       99.74870794337086
C          108.47392103215353      123.22359102793429      100.31915401407298
C          108.77590343812291      123.15141985232118      101.81423099178454
C          108.93504592285007      124.52086197914383      102.46867966202541
C          109.11823375243111      124.40026474524045      103.98046922673421
C          109.19960926894322      125.76055316749999      104.66993606144854
C          109.20206902729427      125.61836630069179      106.19004224373104
C          109.36557762096669      126.93873810551898      106.94415309483058
C          108.29500828325308      127.99637044327649      106.66406573301977
C          106.86957343304914      127.59397498006577      107.05001844941464
C          106.62440939505599      127.60277759846046      108.55819776560647
C          105.19521948121533      127.20227064723257      108.93465976121355
C          104.93665875046491      125.70773562926648      108.76149568120685
C          103.50734109848175      125.29953685588461      109.10805749727132
C          103.31562605090592      123.79115983823023      108.96497327413368
C          101.87317407927490      123.34955425694963      109.19405760111401
C          101.70246703048946      121.84060548556839      109.03246261368301
C          100.25153452400774      121.40315056070271      109.21343535303788
C          100.06438554478385      119.89841200850211      109.03473656942425
C           98.60008551104738      119.48809350459091      109.16982621206377
C           98.37800271386850      117.99164260540216      108.96039892310299
C           96.89528094050692      117.62842831318457      109.01350669823390
C           96.64133311807356      116.14167040244915      108.77534122696213
C           95.15127452059639      115.80449609238876      108.80187656739761
C           94.88594919711858      114.31542233440538      108.58804214475009
C           93.39510118882515      113.98363189254086      108.64470880607455
C           93.09477198455559      112.48421112126998      108.56439844319490
C           93.30359340442779      111.89311341046984      107.17158619931334
C           93.07910456010458      110.38181069858976      107.14885449846513
C           93.27905164414425      109.78568530987312      105.75467838746640
C           93.36394405271838      108.26098876153105      105.78441753495709
C           93.63891995830912      107.65708630706509      104.40734498187300
C           93.96998162531067      106.16857900874727      104.50141839219667
C           94.38187966173307      105.56255719824692      103.16147219088207
C           94.84372976517660      104.11334069917343      103.31243020000586
C           95.46025783800742      103.55899946518807      102.03061092990011
C           95.94409577792345      102.11797948230360      102.18956436958401
C           96.72652507558615      101.64373472744573      100.96668243530391
C           97.16070784037015      100.18280795268095      101.06748289266733
C           97.99738966944278       99.77048101089564       99.85720325953719
C           98.27436339068173       98.26894440631254       99.77985184532099
C           99.20127237701138       97.74983563352404      100.87730056987238
C           99.54042002743500       96.27636427207784      100.65476899869422
C          100.33156729804919       95.64399874374766      101.80019836155421
C          101.77216629856773       96.13959387647493      101.90041368954357
C          102.52893607241535       95.44328136090373      103.02888771842643
C          103.98003952393059       95.90523805715763      103.12703665636681
C          104.70100514072379       95.27813617601939      104.31636058910658
C          106.15855913249791       95.71934410179982      104.41221925962165
C          106.83123579585825       95.18212643314219      105.67158701465597
C          108.29964384134976       95.58797242330139      105.76044793266682
C          108.92479744316370       95.30412130558946      107.12605798406844
C          108.88378687891318       93.82822618840804      107.51364259060207
C          109.79194110769654       93.52621943928767      108.70351900638866
C          109.56096636770611       92.13566018976310      109.30042972529874
C          109.62786912070273       90.98989679348659      108.28910703231841
C          110.99559871104024       90.85632901981691      107.62538885387737
C          111.04947334016137       89.75629338946592      106.56406279355029
C          110.20488901741460       90.02991577162045      105.31695902983584
C          110.67794955320151       91.24236911587145      104.51613546856626
C          109.98276733641065       91.37213511318139      103.16042361011900
C          108.51069596050846       91.77059445147680      103.25777322399681
C          107.85309651579027       91.81010605885342      101.88033767507949
C          106.39194176409320       92.24909952274535      101.93144872691224
C          105.75744832590185       92.24933861447839      100.54245388560041
C          104.27817940332504       92.62353192252407      100.57365825302291
C          103.64422567150301       92.56641199234195       99.18613219591445
C          102.16227295832448       92.91930560509144       99.22085991751251
H          104.16884993217822       93.25970880502268       98.52464199076348
H          103.76783597025137       91.56153415191571       98.77373417573395
H          103.74751719089865       91.93860179731388      101.24015077014384
H          104.16632008816364       93.63104114960868      100.97878179509262
H          106.29441345372689       92.95197884989031       99.89948908498506
H          105.86555481769059       91.25542715502111      100.09943084152872
H          105.83189213004928       91.57384211097117      102.58365548249520
H          106.32721720816636       93.25128109094263      102.35989922843609
H          108.40868296339124       92.49406981521355      101.23592237690137
H          107.91228072722100       90.81556351465034      101.42962904978683
H          107.97370009788692       91.05695267452121      103.88563091773949
H          108.43084618929383       92.75391824453190      103.72772141806759
H          110.50847769884405       92.12601819003112      102.56841346080189
H          110.06320122042170       90.42242365360616      102.62474704562204
H          110.51097107672975       92.15810132959663      105.08552794354225
H          111.75402832103622       91.14888734378492      104.34777763247439
H          110.25615768779433       89.14735085223795      104.67307538998864
H          109.16151342531144       90.15877440581203      105.60594106290125
H          112.08999217965258       89.62043005302664      106.25540104001857
H          110.71608029985725       88.81585465332527      107.01186392918564
H          111.28001930024426       91.80366604423345      107.16993900414217
H          111.73455753615255       90.62991395121564      108.39890272631868
H          109.39305563471004       90.05443246293586      108.80538216042422
H          108.86000884072422       91.14224080030567      107.53126213170161
H          110.30195781423814       91.96340930432854      110.08604334636594
H          108.57379171553254       92.11747101306955      109.77092439311168
H          110.83516838536086       93.63165114299284      108.39919006227737
H          109.60958109546023       94.26625556876874      109.48708887278714
H          107.86097363361466       93.54444522483587      107.76923675902410
H          109.19168226470666       93.22880724556447      106.65506777118603
H          109.96722340675359       95.63491954162993      107.11010523273703
H          108.40800507440582       95.88920529132749      107.88964264373946
H          108.86753097754848       95.06382034234014      104.98686313015247
H          108.38303166764710       96.65818075357009      105.55521766668785
H          106.29948982795771       95.56194013627629      106.54708095189640
H          106.74944258851939       94.09354002857059      105.67523900660692
H          106.70231469093261       95.37432658896329      103.52883789300644
H          106.20559897829791       96.81118740017169      104.41807088363089
H          104.18314815318273       95.55931649059566      105.23666121856114
H          104.65810810194955       94.18901135005311      104.23431779341158
H          104.50805575687245       95.64570794916030      102.20574159295559
H          104.00587275192076       96.99279786713399      103.22239588027871
H          102.02328007767451       95.64524188241583      103.97655234906871
H          102.50190270251720       94.36196214725491      102.86908310836715
H          102.28400843534168       95.95322053027992      100.95248348764403
H          101.78047760824100       97.21653877837771      102.07591553538207
H           99.81440248107175       95.84104518351246      102.74285503993860
H          100.34588532066154       94.55989468810692      101.65787509635305
H           98.60564906601252       95.72199632027532      100.53291394563503
H          100.10487765417572       96.17136884373123       99.72453229274718
H          100.11617066098178       98.34494995538395      100.88312740980092
H           98.72148896959085       97.86404335894883      101.85107933083543
H           97.32594498685491       97.72643381320266       99.82332109630568
H           98.73087221615430       98.04679279960409       98.81145966157263
H           97.46169763719335      100.07063153248454       98.95230749385257
H           98.94543455298795      100.31352922381714       99.87119653320930
H           97.73563312280427      100.03687115153758      101.98442197867465
H           96.27450584348360       99.54575364265172      101.12977861546389
H           96.10973430427705      101.77074527722036      100.07444383879069
H           97.61276590298259      102.27088698546174      100.84358467273618
H           96.58292095729796      102.04771291185504      103.07411984413872
H           95.08558415299319      101.46162972242027      102.35343743436485
H           94.73056788730344      103.61122464838212      101.21909810430061
H           96.30926270432660      104.18743817993433      101.75025088409916
H           95.59063718530568      104.06281746273018      104.10903178882656
H           93.99843087690446      103.49008111061202      103.61442409747610
H           93.54829578157070      105.61311134718517      102.45715454748222
H           95.19770388597141      106.15612863521721      102.74169745812610
H           94.79393857746581      106.03999676470269      105.20717450820047
H           93.10803774378500      105.62603277600702      104.89805778717138
H           92.77345065940321      107.80601092673083      103.75749647799375
H           94.48274315667143      108.18017957104247      103.95064762553811
H           94.17450130009070      107.97201756015895      106.45897045224805
H           92.43745067333572      107.84669166619004      106.18957257804580
H           92.46101746311813      110.09771810501339      105.10092026595663
H           94.20459931970329      110.17869028793372      105.32820659299232
H           93.78144649478854      109.91224970835663      107.84231794961502
H           92.07108065946005      110.15299815874924      107.50373832018961
H           92.61974428899867      112.37447488174783      106.46796797762215
H           94.32085177893322      112.10064512315567      106.83924154194590
H           93.72812274563860      111.95424198408654      109.27954378129449
H           92.05658457831233      112.31719057570230      108.86387085975349
H           92.99249464134728      114.36756444267594      109.58612037906279
H           92.87573937354280      114.49991112652346      107.83320675909626
H           95.29834545333698      114.01533407056175      107.62369658766285
H           95.40573744299064      113.74975943966622      109.36497384109360
H           94.73151288678076      116.11029622818926      109.76414832216101
H           94.63650172860356      116.37785924135216      108.02587275796186
H           97.05752515502667      115.85370081862419      107.80746468166660
H           97.15814132747235      115.56145644751122      109.54256517044853
H           96.49083624538979      117.91041374700249      109.98929219342328
H           96.35694635261277      118.20872251976743      108.25883263877679
H           98.78381083328235      117.70085598867871      107.98844842647871
H           98.91616219289070      117.43044754446838      109.72839233801982
H           98.23661755117350      119.77070693735782      110.16110316916109
H           98.00704675991186      120.04096032064312      108.43600929342054
H          100.43147568843482      119.60451123695327      108.04860303791540
H          100.66104754088033      119.36833162766203      109.78102999356916
H           99.90911667443841      121.69344782847762      110.20976274719685
H           99.62629417484010      121.92934327830669      108.48716962068045
H          102.04542754689750      121.54586881486559      108.03740101861295
H          102.33000317771672      121.32506905864338      109.76318286175622
H          101.55683740209422      123.64550260963050      110.19696652705133
H          101.22294782608294      123.86271121132793      108.48107308689964
H          103.62839585639404      123.48773466282141      107.96301882144134
H          103.96634591517397      123.28014297217644      109.67938703621734
H          103.27593401399641      125.60290242293416      110.13164401116300
H          102.81119433808298      125.82021797751781      108.44559883499704
H          105.13571652735925      125.41943489107236      107.72780593883391
H          105.62866735603652      125.15356815093628      109.39812732451806
H          105.01638211889050      127.47003744382747      109.97916248474164
H          104.48757513213829      127.77052187961500      108.32482244567134
H          107.32203725365467      126.92574680256467      109.05388720477018
H          106.82291629672005      128.60954200633083      108.93507057604778
H          106.17373016790400      128.29867223610461      106.58559616352689
H          106.65055311574892      126.60753601471330      106.64235464630531
H          108.56211026164324      128.90469508186737      107.21172868039693
H          108.31525694991916      128.24600841533351      105.60110203044182
H          109.37903239670446      126.72192640485011      108.01391183217663
H          110.33758704931671      127.36914275622394      106.68781746034452
H          108.27907604791977      125.12742668465846      106.50251081529136
H          110.02841112647744      124.96255360712840      106.47835432135163
H          110.10468301969119      126.28188100049012      104.34753601653057
H          108.34227250417014      126.36137996710313      104.35979754886766
H          108.27230006283961      123.84420968323050      104.39324314923347
H          110.02448562013728      123.82832808749217      104.19295916344191
H          109.79213682650021      125.04173750495717      102.03380729919984
H          108.04638842061776      125.12373360369752      102.26263665298065
H          107.96369529864415      122.61683738916081      102.31291460615350
H          109.69267546384933      122.57766878897969      101.96484789357366
H          109.33114549671103      123.64925674427471       99.79043663146801
H          107.62518074650053      123.89258544901848      100.15080254994712
H          107.27818636621544      121.44173997749770      100.27158823448212
H          108.98701084175063      121.16949039107750       99.93764282753484
H          108.73349509791831      122.25128383366604       97.71374035833210
H          107.03520025440142      122.56857439976598       98.05444437158835
H          106.60552229349550      120.13321172103169       98.24757916014821
H          108.30638771057588      119.79919239085885       97.93436053915707
H          108.09414090392939      120.82505093331073       95.67429484884083
H          106.41380794222454      121.22527556253472       96.01589230020834
H          106.23566885358295      119.24758836908295       94.75038652642456
H          106.04085610716949      118.71366286372592       96.41499940350189
H          107.51493682895088      117.11786433587379       95.61105497458861
H          108.65941108145516      118.27542119753500       96.28152380100131
H          108.82141802674265      119.30156387146761       93.94552686229133
H          107.82738254900976      117.96792200470234       93.36659648916951
H          110.60669723093075      117.79037619827875       94.60850819285342
H          110.16555840172340      117.50272847300330       92.92866247577571
H          108.68581406396997      115.57889946891510       93.77416280906010
H          109.45647817508856      115.80230911792758       95.34593906911647
H          111.68939504703123      115.41827844607224       94.27788080333343
H          110.88012354941564      115.15602958739041       92.73401033362390
H          111.33258439136253      112.99687318085353       93.59983688884967
H          109.59977820209100      113.24745571329851       93.81662131266157
H          109.97538402883657      113.78585309874552       96.21312399736034
H          111.71638848550437      113.63592927952546       95.97485420058126
H          111.46170439949536      111.24998732439194       95.41184850096143
H          109.71640834152399      111.36690590162397       95.59400629599600
H          109.95396580751122      111.94349108523150       97.97177739549157
H          111.70864526033006      112.01595164695057       97.80554195796999
H          111.82010470090998      109.62510742603915       97.32413729861800
H          110.06153590204012      109.50329665570827       97.30408738876997
H          110.96054897575115      108.62836944002254       99.39583776062403
H          109.94596299042688      110.03557124165663       99.69639043712515
H          111.90729560735660      111.45422881672322      100.03096860718838
H          112.98783096074808      110.15993994399294       99.52445208878034
H          112.36467429894412      108.81873519443126      101.48664357002059
H          111.14161192333974      109.99882898731613      101.94885928722702
H          112.90393335275544      111.71442657818277      102.28792651122392
H          114.13961742431265      110.55404173959826      101.81645604155223
H          113.54616122110409      109.11480274951974      103.74473161459818
H          112.24484332051175      110.21886165102219      104.18469552055527
H          113.93611146095860      112.03955838147820      104.52236431803199
H          115.22083411704327      110.89542819831279      104.16047714714054
H          114.56606522169706      109.50445030462897      106.10046751058502
H          113.20231536680845      110.57273738634998      106.42409667628519
H          114.84074887468424      112.46619647198536      106.77352780120751
H          116.15571150348406      111.30907324376498      106.60986725965617
H          115.27336920721349      110.02351059437333      108.54663977986674
H          113.92571693252359      111.15087836985658      108.68710581906097
H          115.56041568233793      113.00625206631068      109.11800449169645
H          116.87428644442926      111.83818111837671      109.05929883358252
H          115.84245727630199      110.59107014336473      110.95907441305937
H          114.52762516182045      111.76605092067601      111.00709261006459
H          116.19056096901826      113.56875760146983      111.51043218281208
H          117.47272141196420      112.36400498326591      111.52858864710578
H          116.37547131380009      111.18382014755457      113.40441411919906
H          115.02293403617112      112.31150225266462      113.33645939360861
H          116.53684694526223      114.17908667291564      113.95347644816751
H          117.90959285958752      113.07590388858753      113.93736811095127
H          117.30242504621084      113.37373318966300      116.22527189305850
H          116.80033322019621      111.74597715918868      115.77337350262181
H          114.45296265420478      112.60111768301523      115.45981228623255
H          114.98918683225988      114.19364705261729      115.98786249920956
H          115.66847035898138      113.23095535210227      118.17652201814762
H          115.18315716675686      111.63081762024215      117.62494816215543
H          112.83825120026400      112.42562632655144      117.37642880640108
H          113.31428482474898      114.01649381139026      117.96431314964477
H          113.98398491719657      113.05337773479421      120.12928333803052
H          113.66147055298013      111.42354643384333      119.53798897281067
H          111.26614501685901      112.00595724759127      119.23272426307281
H          111.57177330359360      113.61668631653423      119.88082352853786
H          112.12184138093949      111.04740445715025      121.41093207184215
H          110.59442335033869      111.92463812066839      121.50262062030751
H          111.78350704942658      113.91681338306198      122.36858859799730
H          113.31508275732003      113.04119127113225      122.31385509999086
H          112.37006333213580      111.31467179341803      123.84995794464093
H          110.88364945604202      112.24477592023396      123.97178931587956
H          113.66270097958103      113.17198692426641      124.82194678505877
H          112.41041922467234      112.56599792329811      125.90352225201478
H          112.18930320293390      115.09299176246361      124.21730689261128
H          112.63088282121242      115.04151271934902      125.91818567207379
H          110.44479508541325      114.00440338051968      126.46763676945562
H          109.96027735882588      114.10824682333742      124.77635342789931
H          110.70779653668291      116.52576934722936      126.47201361720481
H          109.06333321666951      115.93353584796031      126.25456321211757
H          109.32875290679929      116.21500143448991      123.76923381664918
H          110.89482084968903      116.97511356292810      124.05184231830117
H          109.81547373213392      118.76383634742979      125.37346413743722
H          108.25074632475746      117.97746706240949      125.18401594525618
H          108.47558864727807      118.20157104211654      122.69437409564424
H          109.96849921373357      119.10834456447579      122.93221768732774
H          108.74737395503851      120.87648602392450      124.12992235405791
H          107.25809849926338      119.93618029319114      124.06084894017690
H          107.26786754939602      120.04293805089712      121.59882505074940
H          108.79037773911058      120.93247915224886      121.62180389041318
H          107.70970316589346      122.79000354534509      122.84461910449687
H          106.17504086351411      121.92426147591847      122.83880286085731
H          107.66759037694339      122.71385564970538      120.29850231129456
H          106.44743296761104      123.73052171877868      121.06293349713141
H          104.75358577938455      121.94974014124544      120.78258012823913
H          105.95696659362551      120.90684329195616      120.02357507056131
H          106.25687316514258      122.52086016764741      118.19213454118139
H          105.09754720769800      123.62021255789045      118.94048736811156
H          103.30901673486906      121.92111090028629      118.70117779220882
H          104.46607120874948      120.78716528497822      118.00445004228058
H          104.84116410406047      122.32336974740099      116.08888553100815
H          103.13478284284729      121.89577311474788      116.22778721773150
H          103.69759148144875      123.47657115571896      116.77459875508249
H          101.61921603409149       92.22222788630518       99.85591095512065
H          102.01786932831841       93.92223293670203       99.61530293677872
H          101.73249185528356       92.87632011144251       98.22220291156600
C          101.91015439824642      124.95663134846694      105.30802816547435
C          101.87375002741400      123.44504301126756      105.12447285353750
C          100.46017121769400      122.88240364088051      105.24871540778526
C          100.43772180866333      121.36818325109148      105.06528758064199
C           99.03518037964513      120.77594080714884      105.17385170434702
C           99.05392608698381      119.26436788668946      104.96571737471209
C           97.66394519266933      118.63544792534491      104.99870054383790
C           97.73276465862887      117.12775555390564      104.77063405809429
C           96.35681960739697      116.47565805932874      104.67533521114991
C           96.46222528754525      114.97340669926943      104.42328527332670
C           95.09798138835207      114.32665695111810      104.20523022878103
C           95.16843283217119      112.80902406604478      104.03770766032051
C           95.84445116452063      112.35002110061336      102.74693301993284
C           95.70273058901815      110.84116693346044      102.55991480961042
C           96.44165301349317      110.32039846094277      101.32957012374806
C           96.16657062271526      108.83554723931583      101.10131556806496
C           97.04158362518875      108.23490773381222      100.00444908770010
C           96.67393621372372      106.78057316848829       99.71505197945902
C           97.72034934007424      106.08249572719143       98.85022504791587
C           97.28097338836359      104.68132861288360       98.42849637901122
C           98.42791946359118      103.83442759064290       97.87622522348485