3258
 energy: -3427.519535547049 gnorm: 0.000992571026 xtb: 6.6.1 (8d0f1dd)
C           92.50668302215982      104.34937821241002      119.04120834252599
C           93.98548186553207      104.56558002335252      118.74395415801960
C           94.63719893743979      103.38049326955061      118.03153324353296
C           94.73933559370212      102.12577862796600      118.89457651808564
C           95.45405001292778      100.98667018826971      118.16859234953537
C           95.44886414465536       99.70654720496852      119.00054208360629
C           96.16617062498980       98.54127331347581      118.32140391479166
C           96.11087775335551       97.28414617298382      119.18731988504240
C           96.78217450237761       96.07216897582478      118.54433469188329
C           96.75242053556066       94.87261345701698      119.49069050959305
C           97.23405036487728       93.56162406941885      118.86632448839883
C           98.66915529160966       93.58292089315351      118.33880171345544
C           99.70723685244558       93.94332171558294      119.39826780630709
C          101.13837551707911       93.82147934349253      118.87410607029905
C          102.13652919773283       94.42345082740503      119.86005953237832
C          103.58425752958919       94.37667305510264      119.37408693651723
C          104.47422923707975       95.27479153860631      120.23176450060645
C          105.89142341228134       95.43185353843201      119.68044418313437
C          106.61589902922638       96.60021640205997      120.34840338386469
C          107.88039033299663       97.04301349452757      119.61323814896411
C          108.39380213982635       98.36482584604119      120.17755490281752
C          109.57541280755166       98.96147061448856      119.41368384431411
C          109.85188033681690      100.37214287808024      119.92712415337859
C          111.01263302130032      101.10988389619868      119.26343724750720
C          110.82814777644410      101.31349231272542      117.75612678409669
C          111.37302081370211      102.65379989470878      117.26064262926928
C          112.84200520687605      102.89304396075474      117.59939302116166
C          113.32313282651319      104.22890772193489      117.03764361766498
C          114.72147347616574      104.62915780417016      117.50673701556666
C          114.76299641209326      104.98677287167554      118.99089542227742
C          116.04900285181398      105.70894118235067      119.38124999007786
C          116.07800199256718      106.05180357931887      120.86884331291699
C          117.27176165641160      106.92930766219114      121.23549767835570
C          117.29939552794615      107.25087151892549      122.72791212810691
C          118.43464544368101      108.19441715432582      123.12823219654705
C          118.24188324115670      109.60922236021972      122.58789377280746
C          119.24901137367777      110.60583930594072      123.15522115783546
C          118.94205544356116      112.02492403758413      122.68129577999618
C          120.02749582343603      113.01889338377272      123.08463965462515
C          119.71110302859911      114.46355608489833      122.69037305338607
C          119.40346582605754      114.66933985612975      121.20592883941977
C          120.49175855748855      114.14350628491597      120.27289842574019
C          120.17896875109982      114.45529477586797      118.81109522151273
C          121.10813683411450      113.71707693020564      117.84994746399552
C          120.75276013533495      114.00066833876903      116.39326677651935
C          121.54423152817260      113.14621075635922      115.40715594884520
C          121.07695505743169      113.38876860105590      113.97364801603975
C          121.85335375002879      112.59161974654175      112.92620729416220
C          121.62138766554864      111.08493682339738      113.02359384630591
C          122.23398192620462      110.34585256107513      111.83608999421297
C          122.18417845440896      108.82368923666699      111.96800357939091
C          120.76346787282176      108.26472405219300      111.95854544589672
C          120.71713645554010      106.74138337866081      112.07509270137571
C          121.17627205511455      106.01625520649257      110.81328390438651
C          121.05612641633182      104.50028970999661      110.95353746759766
C          121.33595917674147      103.78922119655418      109.63332871760230
C          121.19054025239518      102.27268324460388      109.73682054631817
C          121.23016447307408      101.61486845129825      108.35898195437026
C          121.08090192696081      100.09656108599748      108.42596869264223
C          120.94711991920471       99.44905676872663      107.04546912653882
C          122.21768168518618       99.58425594182494      106.20723284606771
C          122.22141513428102       98.76229307293855      104.91183625579401
C          121.67393998922023       99.48264015770968      103.67558633489797
C          120.15078300651074       99.54637175677669      103.58866064233835
C          119.69974794646923      100.18592971152816      102.27512935417555
C          118.20692543941172      100.01275999939293      101.99047158525720
C          117.27384802341379      100.60787060892515      103.04400466985864
C          117.42165426640621      102.11696226274984      103.21868658557341
C          116.33827539647039      102.68266525649801      104.13560248212369
C          116.60373737584807      104.12554312890705      104.56368504781202
C          116.53593487966782      105.12769941256383      103.41443614290488
C          116.76905924506784      106.55632929782008      103.89736843802548
C          116.69064843158050      107.57641209527739      102.76508158688713
C          116.97251533852734      108.99310021209729      103.25790830937055
C          116.85962527754467      110.03005677893063      102.14483684863427
C          117.15276613703384      111.44429516829994      102.63888078898090
C          116.98788635207445      112.47214205036450      101.52411274755586
C          117.26953970773185      113.90069197953271      101.97941542336211
C          117.04229352718059      114.90529095511776      100.85230239999547
C          117.29944332115728      116.34345700142167      101.29264817735664
C          116.99127087655646      117.34414267419913      100.18169269491922
C          117.14738210392126      118.78909144020426      100.64774121037293
C          116.84338785645322      119.78146326876889       99.52771248172395
C          117.04529028187294      121.24012368622415       99.94087656149755
C          116.02131819715424      121.76757147687361      100.94721786622370
C          114.61469253230467      121.90392065854540      100.36744122378845
C          113.66537915622520      122.60114266744085      101.34009540658008
C          112.29079172526518      122.85298207656913      100.72363579108884
C          111.45563480640136      123.86387072466719      101.51001050998339
C          110.94302487995083      123.38210785479359      102.86736629699163
C          109.82066826746177      122.35346715099533      102.75455865264904
C          109.07484596117854      122.12939261360297      104.07036349142928
C          109.89730275884375      121.47146455664269      105.18007916287449
C          110.42224341247019      120.09001855785206      104.78130481948286
C          110.57878536110768      119.14415148450733      105.97016708821555
C          111.00513316164715      117.74681489274893      105.52298542805843
C          110.86973247690345      116.69771605826867      106.62402895923368
C          111.10244584114258      115.28623338940463      106.09088198401682
C          110.82250052868827      114.20610501098301      107.13341091286064
C          110.88706400718377      112.80835769234291      106.52384119779100
C          110.53089222221388      111.70838316110813      107.52039879051485
C          110.49657214708905      110.33847668118609      106.84888539766295
C          110.06540377488078      109.22210227620127      107.79555533905894
C          109.91367030988265      107.89390997329477      107.05820345801654
C          109.33327093566490      106.79904820609424      107.94829212410960
C          109.11837401867371      105.47126210111020      107.22112165917100
C          108.17386652877330      105.59054216072023      106.02550831052773
C          107.68486488545346      104.23237395043142      105.52742435761120
C          106.84283659097774      104.37552164647155      104.26169692122525
C          106.16037186783738      103.07500850732980      103.84401861259124
C          105.18438150272650      103.29576728225402      102.68978832855328
C          104.38599292500253      102.04759895304973      102.31038925860940
C          105.16849530300659      101.06496707278932      101.44355086914210
C          104.34099483472195       99.83452219778118      101.07365464197927
C          104.99992142394450       99.02028830921300       99.96363537667841
C          104.22136863092976       97.74702849501394       99.63508085152084
C          104.62362251845745       97.13272117890473       98.29370224534090
C          106.07718570393729       96.66896850971428       98.24790095143973
C          106.43598022295539       96.04980046673090       96.89915921819089
C          107.90269322617188       95.64188577533525       96.82948952422367
H          105.80587524533645       95.17497585342747       96.72198394972055
H          106.22505703410239       96.77316362256903       96.10759453552942
H          106.73690374885916       97.51897814322774       98.42999999888623
H          106.24519319426712       95.93763712632781       99.04230715939511
H          103.97374265626617       96.27838520562463       98.08750232820215
H          104.45840040728108       97.86816635419690       97.50198164081672
H          104.36527074840897       97.01401748297705      100.43202312832868
H          103.15535995145275       97.98635650983655       99.59764026165477
H          105.06136962150312       99.63989737699841       99.06540975897354
H          106.01711854454058       98.76658465921329      100.26531255213256
H          104.20605774735166       99.20359961914106      101.95534983839295
H          103.34888852483772      100.15043845450873      100.74035279728125
H          105.47820883078874      101.57586284974472      100.52833391489065
H          106.07121284764416      100.74432239645633      101.96473083015917
H          104.04690479176696      101.54809132952269      103.22115211697056
H          103.49619866270402      102.35877551338143      101.75644448936181
H          104.48028502905416      104.07633130673851      102.98320456077876
H          105.72877435428029      103.65628634057393      101.81348029576810
H          106.91766992237463      102.34333367949144      103.56027309275999
H          105.61344385519726      102.66876529018502      104.69849101198295
H          106.08139305481558      105.13750440240496      104.44072180089601
H          107.47195773607373      104.73112433126117      103.44203910290908
H          108.54151194232350      103.58446456619308      105.32890944875437
H          107.08211157046838      103.76286470926148      106.30807838196753
H          107.30864541864450      106.19416695660074      106.31091891532893
H          108.68048493306857      106.10371085640942      105.20591575070992
H          110.08121056155930      105.07861419069587      106.88672089247572
H          108.70172260401951      104.75345975062793      107.93283628878807
H          110.00698960158388      106.63280216992769      108.79350160586684
H          108.37599460430725      107.13903716583890      108.34996512665768
H          109.25251978183903      108.04974216029078      106.20374387610352
H          110.88699347541875      107.57583215386352      106.67821042136244
H          110.79829822540205      109.11704004185673      108.59958417773622
H          109.10952564567287      109.49028335002485      108.25176314237878
H          109.79609049054697      110.37517186010157      106.00927526689259
H          111.48458130914135      110.10911296975142      106.44420865360715
H          111.26087903396245      111.69948543039652      108.33365936526701
H          109.55217127656434      111.91945741628450      107.95795743906230
H          110.19110353738870      112.75868551725483      105.68104381231602
H          111.89060284361665      112.63024235952477      106.13210375963673
H          111.54304791038268      114.28561442732702      107.95085271226810
H          109.82813605306548      114.36416063339576      107.55883476081145
H          110.44392162184633      115.12503398338420      105.23247960713439
H          112.13186838047879      115.19304556817077      105.73910820033186
H          111.57018152267825      116.91186237020990      107.43418755803766
H          109.86127087814261      116.75162996248952      107.04222320284015
H          110.37772607100632      117.44776752318825      104.67967598216792
H          112.03903543103129      117.77268878998676      105.17285178377871
H          111.30207818501422      119.54882476256758      106.68189976688052
H          109.61614114783134      119.07172846759795      106.48322447331260
H          109.71696449668718      119.63724134215070      104.08232972737532
H          111.37992036748646      120.18709136302587      104.26671004032524
H          110.72467980938248      122.12138366817072      105.46957595263892
H          109.25129217900518      121.36798400257358      106.05557148346392
H          108.70071287489900      123.09133558926773      104.43016702032386
H          108.20604145746010      121.49738155205355      103.86811851799422
H          109.09572961641977      122.70417324732085      102.01580964532700
H          110.21913982364327      121.40511989808361      102.39421876964253
H          111.77212325057778      122.97387254302357      103.44474933008159
H          110.55830691596931      124.24990392837709      103.40887815782210
H          112.06468754377589      124.75600149516180      101.66589217447792
H          110.59729800334748      124.16164092132443      100.90163837116513
H          112.44091504577614      123.25410797156394       99.71735026002806
H          111.74742469654284      121.91275052164987      100.62158075172505
H          113.56518186750139      121.99599259742959      102.24196910189318
H          114.10295209921195      123.56004661164745      101.62797991458709
H          114.66898135690160      122.48420005549929       99.44214227482755
H          114.21287933324540      120.92049527976422      100.11584560291234
H          115.99609276626001      121.12215358945922      101.82676499898508
H          116.35090397811189      122.75531002942448      101.27935675822322
H          118.04583333492661      121.34451549985994      100.36907466083842
H          117.00663343502428      121.86786016845922       99.04685445045305
H          117.50531002720234      119.56750735554790       98.68471136497098
H          115.81974093805930      119.63366188277092       99.17937930964131
H          116.47467951554491      118.96169185196881      101.49043197464891
H          118.16977306588548      118.94697776573720      101.00012817600690
H          117.65729919453595      117.16069507539927       99.33534195072450
H          115.96765184757078      117.19018980441402       99.83256994690151
H          116.67663871131808      116.56861951651081      102.16268123529875
H          118.34260598364949      116.45047698341683      101.59878115659154
H          117.69683609285130      114.66198740312718      100.01187099525775
H          116.01119316527458      114.82047163687120      100.50139709584801
H          116.61327796455774      114.14805806418278      102.81797115655776
H          118.30094303605296      113.97538846608361      102.33138136361889
H          117.66540477809254      112.21957740111360      100.70481789000098
H          115.96573689908500      112.41575588089951      101.14310674540926
H          116.46949569413138      111.68823660461690      103.45643734134573
H          118.17126593926834      111.48941733765571      103.03145643443222
H          117.55762527633296      109.77945232142248      101.34264306048169
H          115.85067693225793      109.99995013072071      101.72692027072011
H          116.26148143189033      109.24243472398297      104.04986275950819
H          117.97608852919922      109.03274012252609      103.68771438036644
H          117.41387582438011      107.31207561640817      101.99093691156210
H          115.69614864044107      107.54048648118288      102.31489397968001
H          116.01927338764747      106.80562516913162      104.65280937751523
H          117.75082520411520      106.62068658893924      104.37344649249827
H          117.28547539306190      104.87975777213617      102.66224922701365
H          115.55332246117685      105.06364728516388      102.94299858202545
H          115.85977998004536      104.40711036347918      105.31438348282670
H          117.58689557849387      104.18530106606188      105.03751018811887
H          115.36904582515319      102.62637610100855      103.63421831190590
H          116.27768293661259      102.06058064417118      105.03290084703254
H          118.40037405583911      102.34332258448089      103.64618278194757
H          117.36018152347233      102.59631447965515      102.24105242528870
H          116.24649315071473      100.39021855822746      102.74472616545614
H          117.44682918924497      100.11314859116820      104.00159374559898
H          117.98123079816223      100.46992172700268      101.02295553787003
H          117.99015719976127       98.94461955992541      101.90291910915668
H          119.95571184581391      101.24711989519612      102.28166108717350
H          120.25312007944065       99.72539062193125      101.45197951547242
H          119.74619998610935       98.53340833023789      103.65548569011963
H          119.75822535012658      100.12162091689913      104.42609059065374
H          122.08089216092117      100.49621388198943      103.63907299700726
H          122.03977765354792       98.95622442189388      102.78941702333479
H          123.25658669014470       98.48801830473786      104.69374462032259
H          121.66736241407432       97.83356824290222      105.06487009988466
H          122.38723468264821      100.63320463936067      105.96033202196611
H          123.05671843709085       99.25491326900834      106.82591434368811
H          120.72632241553221       98.38681051824540      107.17893816527263
H          120.10051577961033       99.89847623166550      106.52461618691348
H          121.94108739502761       99.66861186944729      108.94636676804426
H          120.19031056241472       99.85495789906329      109.01338656590040
H          120.42100070913460      102.02137536933338      107.74639085509632
H          122.17270823805303      101.87205597081790      107.87349926745952
H          121.99157572725416      101.86798726769952      110.35977894470004
H          120.24342795319590      102.03533946987292      110.22739014898083
H          120.63619831954038      104.16295013536019      108.88246970378212
H          122.34401946455685      104.03594193311199      109.29250383839106
H          121.75130050856610      104.14749145564750      111.71872698996143
H          120.04664281102448      104.24613917159537      111.28782380117309
H          120.56712791540016      106.34720698851319      109.96807527714242
H          122.21312526386076      106.27202424500126      110.58897047508299
H          121.33742599262263      106.42726340556011      112.91668488495048
H          119.69013087789766      106.43829158295991      112.29583920412341
H          120.20910779220462      108.68817820980981      112.79753633519493
H          120.25930673716147      108.57472843249033      111.03976377925562
H          122.74642548545899      108.38938986739515      111.13890577579204
H          122.68145185412799      108.52676183810313      112.89527862843119
H          121.71760034686579      110.64469812972334      110.92131536765397
H          123.27967563556403      110.65000417714418      111.73876759744712
H          122.05959766917226      110.70137615363437      113.94681615081322
H          120.54661519977068      110.89752218621261      113.05817598232672
H          121.54419518151302      112.92880944242098      111.93319602469933
H          122.92116120373882      112.80142286439268      113.02766300138393
H          120.01631246531490      113.13260563850237      113.89962274012076
H          121.17516526325622      114.45403863094586      113.75116556298748
H          122.60872979381554      113.37720797738596      115.49027311493440
H          121.41218097911813      112.09343057190519      115.66362385665026
H          119.68872657657063      113.80446328354495      116.24681612903370
H          120.92439623328670      115.05657442168700      116.17624907524507
H          122.14257966635701      114.00902854066581      118.04210768691729
H          121.02856776574991      112.64275956179951      118.03610701410790
H          119.14835254696065      114.16012857898551      118.60013508432117
H          120.25365868945997      115.53180522198161      118.63817632109999
H          121.45423752427561      114.57931409564256      120.54859712976901
H          120.57481090186762      113.06171240637765      120.38464282994509
H          118.45730162209314      114.18391081896334      120.95789964443041
H          119.27081409250491      115.74072871656259      121.03077872156305
H          118.85144063187680      114.81081304584642      123.26966918703755
H          120.56416554625548      115.08884680446192      122.96389538719318
H          120.15895798980246      112.98063562284926      124.16924171112454
H          120.97532009516362      112.71738993338462      122.63470672656649
H          118.84071150312241      112.01248507149498      121.59519010843096
H          117.98435414655407      112.34465096707736      123.09956612919405
H          119.22635397577602      110.57082213262579      124.24710154867749
H          120.25674048001147      110.32581553618701      122.83864369139346
H          118.33290532566893      109.60375908796718      121.50052800094086
H          117.23445417010412      109.94877925490499      122.83426487549879
H          118.48190552094719      108.23945532864390      124.21950844601726
H          119.38704652677143      107.79169459841681      122.77592072225649
H          116.34588958341746      107.70289763997923      123.01386225116221
H          117.40021954120080      106.31660435981148      123.28629804822644
H          118.19845859391225      106.42255752906702      120.95581886188654
H          117.21318625977625      107.85581929487108      120.66207728096592
H          115.15692363478281      106.57727667967741      121.13324774756659
H          116.10859513765584      105.12968855184572      121.45427901653443
H          116.90996173155263      105.08448896598027      119.13454761392680
H          116.13307469458766      106.62870876797415      118.79659004882403
H          113.91236609313877      105.63102002995353      119.22620744114234
H          114.66164971788756      104.08275767840854      119.59347226557870
H          115.42455342902004      103.81925390872929      117.29888057903045
H          115.04428862656049      105.50119978515389      116.93254193706139
H          113.31464254709755      104.17240500965642      115.94638700591641
H          112.61933219748950      105.01449467871839      117.32446862436245
H          112.96792946517432      102.88837255749512      118.68159546995385
H          113.45150634254010      102.08456286150609      117.19124667844298
H          111.24137833451921      102.71075791323098      116.17686621785032
H          110.77991203296227      103.45831311426889      117.70426702641261
H          111.31068408964343      100.50032010789165      117.21142227651052
H          109.76240104684297      101.27808646626127      117.51679347010004
H          111.08570406109114      102.08779396131992      119.74604441144459
H          111.94621556366057      100.57669551560679      119.45196069650065
H          108.94658348164646      100.96745469593290      119.79564212059688
H          110.05152269587366      100.31466188717677      121.00018153930523
H          110.45972650628489       98.33544571185821      119.53944722353906
H          109.33916654523222       98.99613583489715      118.34834436251104
H          107.57368547091723       99.08805075738671      120.15509378069773
H          108.67523746360425       98.22196919467578      121.22415669006082
H          108.65082946776519       96.27618931328313      119.69720546994354
H          107.64986567911915       97.17418326054649      118.55227052901461
H          105.93127614246403       97.45264579718790      120.38408824749999
H          106.86145996567656       96.34037152064712      121.38031202011877
H          106.45525006408907       94.50799817566904      119.81920522183917
H          105.83350779911986       95.61956037822733      118.60501929113204
H          104.00894288428910       96.26328968183564      120.27819690852715
H          104.51640816088920       94.88769446631991      121.25210152965226
H          103.95480361995679       93.34987516354573      119.39073679026916
H          103.62242918642904       94.72456409829046      118.33991610029794
H          101.86167426501009       95.46875554686676      120.02280875833797
H          102.05535026959926       93.90948029916157      120.82059431289545
H          101.37901662028948       92.77210466907998      118.69044722292038
H          101.21822572754705       94.34947199098025      117.91965385411193
H           99.54548317184172       94.97111302967294      119.72848436583638
H           99.58344264125166       93.29321200932550      120.26745145738029
H           98.89979111810042       92.59224339236540      117.93775028220783
H           98.73688140781356       94.29290919903684      117.51431545591052
H           97.14609980965946       92.77338366169084      119.61860473409597
H           96.56864182101185       93.30041427372498      118.03915674203338
H           97.35140366580606       95.09917776843783      120.37460907593146
H           95.72339516798159       94.72362475880722      119.82915892509774
H           96.26571551380846       95.81837103564656      117.61551062529531
H           97.81337491670860       96.32552995608452      118.29429971295869
H           96.59557909317778       97.49002439370675      120.14501905933447
H           95.06558844080801       97.04268561067539      119.39645740059356
H           95.69798648207903       98.34048408677768      117.35464590017237
H           97.20751752910454       98.81227879319090      118.13380743356134
H           95.92158877806114       99.90583561442365      119.96615034335582
H           94.41389523634108       99.41773090697411      119.20032715214442
H           94.95736511643224      100.80006483907114      117.21382554055586
H           96.48431495464256      101.27981273450230      117.95034039423824
H           95.27751969454634      102.36146482287694      119.81657580262868
H           93.73881934286771      101.79002703834063      119.17220081795587
H           94.06240341209663      103.14596183692937      117.13318226812534
H           95.64245253451639      103.67113803324507      117.71690283958323
H           94.09166400097264      105.45007243551122      118.11091555541890
H           94.51593701598436      104.76148538330671      119.67747583111779
H           92.06944801329740      105.25257597737480      119.46201012508129
H           91.96770706564452      104.10083859718199      118.12934021514413
H           92.36453904048560      103.54227241904279      119.75517683831788
H          108.54565968566104       96.50407044811337       96.99215974781303
H          108.12960657843922       94.89601545813238       97.58795704021796
H          108.13711258637080       95.21978537434185       95.85487397652599
C           99.25523132922861      121.29730660448085      119.85798748571931
C          100.67889705624900      120.94049939868133      119.44960237520957
C          101.27571593032502      121.92248156386151      118.44002532046851
C          100.72322413663566      121.74958618809146      117.02641844317179
C          101.37537007606545      122.72037888423020      116.04481577091771
C          100.96636399716355      122.44958949523573      114.59855229712808
C          101.54816748859692      123.48693754108693      113.64028458679731
C          101.31168589784082      123.13147584009025      112.17414006012262
C          101.93512068012438      124.16107816470304      111.23482650411059
C          101.88313136869567      123.72772798854969      109.77109877285206
C          102.39561054378244      124.82618343312893      108.84241590025120
C          102.45807461207217      124.39062716389368      107.37977578137938
C          102.83150033196652      125.55693558776923      106.46724907881264
C          103.00878254189375      125.13455096754753      105.01070164789876
C          103.37158005408745      126.32533155674065      104.12561614600693
C          103.59114993620459      125.96502547089459      102.65592361433255
C          104.82720770715613      125.09766019000259      102.42355864532428
C          105.14571791861734      124.93213976148280      100.93864611693091
C          106.41433656395049      124.11030178329899      100.72135547213315
C          106.78617983974486      123.97732836912637       99.24493906320482
C          108.10237871786654      123.22344690604207       99.06515201989384