3795
 energy: -5103.638010396404 gnorm: 0.000947373838 xtb: 6.6.1 (8d0f1dd)
C          132.21602207587230      109.59157691852099      121.65639478977610
C          131.05507295436948      109.17293837382341      122.52541584970638
C          131.98074649491488      109.27796904943190      120.17479803898027
C          130.64364417646235      109.80288702674459      119.64523192457591
H          132.80156232820326      109.71954607998170      119.60771092188016
H          132.00765085042821      108.19669774012186      120.02836990712801
C          130.38319973826637      111.27765203854543      119.97012858070630
H          130.61960589412203      109.65641329528947      118.56361894792593
H          129.83601041350539      109.20871902873482      120.07428242909383
C          131.49801076069957      112.18419478086071      119.47864109760721
H          129.44592865446981      111.58914010666662      119.50502948586755
H          130.28532424277518      111.41801752834002      121.04661248163528
N          131.61475133212338      112.22123231027592      118.14368351754382
O          130.72327203898951      110.09707366702021      123.40068048205799
O          130.47996568391648      108.10721059704451      122.43089032794025
H          129.91051475371046      109.87362564087823      123.95513752818574
H          133.09919302305667      109.04897018217652      122.00053972043490
H          132.39183716007258      110.65679297604144      121.80215979329249
C          132.56994977454556      113.03600683173060      117.42799888990405
H          130.97466406712630      111.68139733844558      117.58196224886640
C          131.88066271497081      114.07216035524583      116.53756699008655
H          133.19113636720670      113.52788576316838      118.17957365116297
H          133.20253254726271      112.38601256300549      116.81417405771997
C          130.95551540886248      113.41335063605251      115.51621119574936
H          131.30766075709434      114.75862836713476      117.16229369054948
H          132.65224694323587      114.64527975629819      116.02129625666601
C          130.39385542065943      114.41085979391981      114.50591249112097
H          131.50814007317010      112.63789898772428      114.98025010986350
H          130.12604549661015      112.93403208425036      116.03524737550363
C          129.48338194530703      113.73728272779994      113.47677240842511
H          129.83898509669024      115.19007317245374      115.03133511554512
H          131.22647172580673      114.88906462118257      113.98579919183091
C          128.03930556074073      113.54590536790131      113.93345668425728
H          129.44130180732753      114.34276137560950      112.57002500339783
H          129.90527744713629      112.76732745410177      113.20607263405870
N          127.88512475108305      112.64416688743727      115.05251654159706
H          127.60925545151689      114.50283535975269      114.24301866549973
H          127.45730713096806      113.17439624264129      113.08128331374137
C          127.10874560238389      112.93890619943697      116.10875959667827
H          128.41314269944309      111.77664380091515      115.04498475209489
O          132.22509973218629      112.81317558281563      120.23666208387205
C          127.07154158539825      111.87019712846843      117.18455474728054
C          125.70808188639388      111.17110821371114      117.27542758917971
H          127.85002139176365      111.13175928567327      116.99496535856257
H          127.26307439416408      112.34834739030495      118.14641751661026
C          124.56904590979238      112.15784205646500      117.54324096177682
H          125.51694828714948      110.60224603404586      116.36297184014093
H          125.76525008455529      110.45918823699857      118.10123950789828
C          123.45558024628842      111.57308540390677      118.40394615068303
H          124.98028939701778      113.02038439208054      118.06736741624582
H          124.15786242565252      112.51738147726910      116.59883207969760
C          122.64188729224790      110.47333786754002      117.74987887594088
H          123.86842315053373      111.19558743828478      119.33943318202203
H          122.75124630198674      112.37177702781163      118.65268864478509
N          121.84896405395772      109.82417693554292      118.60384184224958
C          120.89895711291349      108.81175860750557      118.18348284595029
H          121.96885707071645      109.98000100538614      119.59705528000951
O          126.48290276981011      113.99074321884417      116.18799216603452
C          120.21281821514123      108.15502884560729      119.37248682604310
H          120.14931244713330      109.29238244548252      117.54454107705754
H          121.41504294376946      108.06395226526210      117.57304321277007
C          121.17070517154843      107.34895310831494      120.25132090360884
H          119.73016760353397      108.92472862510763      119.97614267501227
H          119.43751991672080      107.49100624977562      118.98597304123393
C          120.39338242398244      106.55060430181453      121.29664433140320
H          121.74633611532533      106.66357128503161      119.62811269164273
H          121.88207030074366      108.01515430066695      120.74057053169027
C          121.28558020801236      105.66302738793811      122.16620508420861
H          119.83785279924713      107.23694932488119      121.93805978938315
H          119.66492502469484      105.92091661133560      120.78160246707029
C          120.42077108108202      104.82336604852276      123.09654986838510
N          121.17577627796912      103.88170230960802      123.90183664522492
H          119.86466071996509      105.46221030226410      123.78911784720144
H          119.68969655847492      104.26837021088289      122.49608627145822
C          120.67769034488585      103.38038546908332      125.03609703824199
H          122.01916382126599      103.47552078190959      123.51299655667805
O          122.64617711952826      110.23891299312513      116.54024532093037
C          121.50658939444739      102.29562814738931      125.69374407604082
C          120.80921100133675      100.93533386648839      125.58403985044509
H          122.48883071457631      102.23684089497203      125.22730795461474
H          121.62086788885911      102.53815304973710      126.75169196395650
C          120.75309935976824      100.42760304515934      124.14545337435358
H          121.35268480898323      100.21441566105162      126.19872332931826
H          119.79332177766740      101.01492386658873      125.97856043596788
C          120.21786101524242       98.99294397849148      124.08502276935863
H          120.10195828821050      101.07636846008945      123.55750985156450
H          121.75217515424636      100.46181579695545      123.70527145583463
C          120.07541309845854       98.54496637737492      122.64345550970954
H          120.91128368382759       98.32097903687743      124.59306458523621
H          119.24622651876508       98.94776713273305      124.57689311023920
N          118.88980577072091       98.82178621211131      122.10037957446652
C          118.51599949987927       98.47200630468862      120.74365970347903
H          118.15345429334901       99.17490408194561      122.70896716534587
H          121.87607568833700      105.00012201439850      121.53371601183474
H          121.97358546498236      106.27229921468636      122.74941286445549
O          119.61869381344005      103.78107809887105      125.52281464450304
O          121.00070828463674       98.02043496617621      122.02015594510918
C          117.29889600346741       99.28349198189592      120.30832432273907
H          119.37670954112961       98.66372822492811      120.09525972129970
H          118.29640891409801       97.39894809085399      120.68055803901473
C          116.00740626835969       98.73997251816873      120.92510149078045
H          117.44202821459258      100.32002618633929      120.61648450991862
H          117.22780010608516       99.25762912667669      119.22120148549331
C          114.86546354560703       99.75518639817007      120.93564081108104
H          115.69785534051483       97.84363226104080      120.38400570624871
H          116.19500584969111       98.44699318460650      121.96000661339171
C          114.52910913988494      100.31364356912221      119.55587966860860
H          113.97903294450190       99.27474565038136      121.35866612479136
H          115.13440223546684      100.57684471461711      121.60251825587224
C          113.26852959358521      101.16739817998848      119.60306332047841
H          115.35518701668485      100.92024883789851      119.18346372622329
H          114.37764529567708       99.48954480688752      118.85672303697841
N          113.07153300213058      101.85913104593178      118.34617504870393
H          112.39887740613123      100.53610174504216      119.82307480268864
H          113.33333680264300      101.90812132194299      120.40755423405665
C          112.30390538248119      102.94392466166515      118.21291641285859
H          113.61755450030648      101.52732078318743      117.56124813466010
C          112.21990684912404      103.49988242541906      116.80535635582392
C          113.57149219842837      103.91856763342436      116.22091757103199
H          111.77333466468434      102.73339651715332      116.16729118756813
H          111.54582846583499      104.35743897869416      116.83462621968896
C          114.22289504744070      105.05428205744960      117.00473669382049
H          114.25203954965228      103.06796524656235      116.19370168617878
H          113.41431033657898      104.24376058507434      115.19232740040687
C          115.42990341377802      105.61564764082298      116.24726151344917
H          113.49629496480620      105.85322338180919      117.16459430625537
H          114.54179371148837      104.68267851976162      117.97966663159444
C          116.23466610416270      106.54142345761268      117.13482182702610
H          116.07060111333425      104.79310192543159      115.92301707240979
H          115.07849538750308      106.16246686258935      115.37092020486598
N          115.67584417010637      107.71878784241791      117.40060629648767
C          116.33013490281226      108.68350594449468      118.26513168433090
H          114.74388857444926      107.93694054229948      117.06197708645824
O          111.67990293630277      103.44132965311867      119.15078853878816
C          115.63686103238227      110.03361883389972      118.17821653583867
H          116.32223109439927      108.30573211479255      119.29232590386646
H          117.37638009119546      108.76416838969246      117.95313366118999
C          116.39441825430244      111.13396551272328      118.91959008449014
H          115.55060541078082      110.31584698977369      117.12754160746583
H          114.62706643051050      109.93665620150560      118.57589746177408
C          116.58609378378344      110.89096872690469      120.41780862268845
H          117.37943129522714      111.25072055915814      118.46790066036667
H          115.85020009171753      112.06732533172608      118.78095973600908
C          115.28854850138470      110.57264587941431      121.16137035364248
H          117.29878037660934      110.08226215814187      120.57792166477012
H          117.01401125239434      111.79709171907365      120.85040883266903
C          115.45386495439155      110.82789219250023      122.65441969099085
H          114.48532153670352      111.20710065487762      120.78815165082635
H          114.99787935727261      109.53317864533432      121.00352004879772
N          114.27179703031240      110.44010589649923      123.39831376293867
H          116.29674038796310      110.25904667728605      123.05750946703134
H          115.65624253184092      111.89405288658671      122.81716143126334
O          117.34474342616929      106.23633674312251      117.57576994789281
C          114.32114750918682      109.96066135383528      124.64451253592568
H          113.38178121406439      110.44994671989571      122.91326119121618
C          112.96691959093918      109.59796455140103      125.22595589523485
C          112.44789783613909      108.27632111498862      124.65900070727253
H          113.07324396998959      109.52290278123941      126.30908740064432
H          112.25592194638156      110.38739029550558      124.98991712614750
C          111.21580787682167      107.77552747701868      125.41237543952847
H          112.19861391172087      108.41656963078186      123.60653839767356
H          113.22776347442858      107.51618356644187      124.73117891596021
C          110.07714760304250      108.79970494677509      125.38552675167929
H          110.87702840381323      106.84635464418909      124.95106600273351
H          111.49473740969484      107.54391030746997      126.44180297579270
C          108.78563776462336      108.20640517496231      125.89898731188170
H          110.33333191383765      109.66516306092741      125.99794219546573
H          109.92225319858920      109.12586546522485      124.35741208967691
N          108.81730520434000      107.84058998539061      127.18515093200209
O          115.36366423002892      109.83676078379736      125.28158780436384
C          107.73039367537811      107.18069011784853      127.87115287174532
H          109.63685929932542      108.04707167666130      127.73403795808861
C          108.24339536953512      106.13087038910966      128.85351949456441
H          107.14090515967506      107.91858577504837      128.43012003802579
H          107.09119976650226      106.73747210601668      127.10625888406382
C          109.17298689125677      105.08944886299993      128.22911568070236
H          108.76826426167010      106.64914428239726      129.65937359357045
H          107.38421956481538      105.63368477608086      129.30285200301910
C          108.52434817740618      104.23882189218068      127.13747781240578
H          110.04285793155488      105.58694377113822      127.79559131927388
H          109.53229862760412      104.43102187406639      129.02264371368355
C          107.36323009601948      103.37903057504749      127.63517464986835
H          108.17646311957678      104.88496847243930      126.33062741770621
H          109.29009700785070      103.58202209726754      126.71745598448203
C          106.99223171200340      102.28963456622735      126.62590056309051
H          107.64235056985623      102.88910980441914      128.56937240986971
H          106.48733679561742      103.99964619244933      127.82520014720563
N          106.65433671961756      102.83512869566846      125.33020640150163
H          107.84049883623396      101.61678970146144      126.47390967413415
H          106.14314190906489      101.70981827163054      127.00197494307596
C          107.35091553120778      102.56923723927540      124.22393737242636
H          105.78832132534001      103.35948390516944      125.25440281125897
O          107.78566571869459      108.07826031680398      125.19361168819012
C          106.84284555179214      103.25755640522652      122.97205682016319
C          107.24069680973432      104.73920955934612      122.93027816043299
H          107.25364460288216      102.73881070079207      122.10532519441774
H          105.75504345717067      103.18378379508626      122.94504063046135
C          108.71309145704036      105.00551057961978      123.23488584569627
H          106.99354422202704      105.12951789187902      121.94139251169589
H          106.64245710094997      105.28621925434129      123.66220793947893
C          109.70179217757307      104.28114448716698      122.32143336989407
H          108.88665908094849      106.08249906623010      123.17378814177727
H          108.93108643090582      104.70025472761634      124.25923492582143
C          111.12149877615444      104.56180894995428      122.77197191269087
H          109.54833362779689      103.20393417744432      122.41155157397843
H          109.57601832502165      104.56411799791432      121.27691053975568
N          112.04370902632790      104.61395498153502      121.81224873016689
C          113.43763497310616      104.87437184519848      122.12975813693919
H          111.82514839648215      104.30410636376847      120.86971430338247
O          108.33713440973663      101.83099795281753      124.21288223037001
C          114.28879173935124      104.95279623640883      120.87034852320328
H          113.48402529804184      105.82388426971644      122.67656570191650
H          113.80053217023600      104.08986032314878      122.80123195034489
C          115.70703861668473      105.45631921273844      121.14896857480382
H          114.32319265457454      103.97020500086023      120.39918296560295
H          113.80404828650030      105.63538367057782      120.16947600572659
C          116.47069395189602      104.65325980685952      122.20412741463822
H          116.26870203835178      105.45210685509092      120.21261132646652
H          115.64201446181167      106.48857276424188      121.49819668829650
C          116.79721489197202      103.22071970244694      121.78709666143807
H          117.40480527046739      105.17336457919139      122.42219959433220
H          115.88989067035115      104.62523606169701      123.12386082814447
C          117.41484912841644      102.42251471837875      122.93941883760596
H          115.89267672718644      102.70802651730138      121.45981943074381
H          117.49592039300308      103.23136511199760      120.94867986145243
N          116.41615912515923      101.99392943099689      123.89570298195973
H          117.90539430290767      101.52016906221452      122.56657599780247
H          118.15692053792672      103.02957683529108      123.46859012255456
C          116.30217875760806      100.75341511884264      124.36502977817820
H          115.80335624221014      102.70750784295802      124.27217279779471
O          111.39350811462359      104.75319976363129      123.96186735610803
C          115.17202948917081      100.54799582250426      125.35404115172238
C          113.81766046019445      100.69862656527982      124.65545855654443
H          115.26642361265421       99.54093300925787      125.76342875378256
H          115.25499516546431      101.26987884187260      126.16782778952650
C          112.67903425751223      100.12098518904384      125.49166405875776
H          113.62558066489140      101.75404054288423      124.45705577326645
H          113.84380743502024      100.16703431740666      123.70412145705357
C          111.32159691954269      100.34454708921440      124.83100596920777
H          112.83951298255174       99.04794298906479      125.61688901416102
H          112.67522088325778      100.58484559084503      126.48055711634117
C          111.18257647462663       99.64486225085281      123.48668149095197
H          110.52531549141703       99.96919545274365      125.47732548374468
H          111.14242878393510      101.41054324663484      124.67948292840094
N          110.08493949596681      100.01689512744223      122.81603896389855
O          117.03016291022536       99.82048151195653      124.02019366269951
C          109.76710318394576       99.55560413905481      121.48374004514650
H          109.43911159825375      100.66873221052276      123.25215873265795
C          109.40834605191988      100.73584368622807      120.58564629608469
H          110.64762671763619       99.02576534474414      121.10985590510853
H          108.93143620671228       98.84619355777205      121.52200822033545
C          109.20579311433990      100.33311740303414      119.12850628531416
H          108.48991862371334      101.18923039826977      120.96486745867966
H          110.20065575837901      101.48514732939888      120.64047508313540
C          108.71917090575107      101.52706187707922      118.31231308815458
H          110.14922110554804       99.96876467132226      118.71783540582256
H          108.47954289409509       99.52007171196027      119.06719158864499
C          108.66166226477553      101.23999466360347      116.81518948392163
H          107.72368535932038      101.81312978481978      118.65932706732289
H          109.38757300206142      102.37132738161692      118.48944810372338
C          107.97401536483707      102.39245537263268      116.08610538300836
H          109.67265728116750      101.11781630697575      116.42266869706346
H          108.11587911286964      100.31232795581769      116.63241501256046
N          108.11426750279918      102.25704544454841      114.65693921478568
H          106.92285313969475      102.42655356194953      116.36358808606420
H          108.42594594717038      103.33800325894377      116.40372333078173
C          107.20614498545412      102.42826094872544      113.69625992900220
H          109.07571598837292      102.07818533316578      114.35282637690804
O          111.98294506988704       98.82203536696910      123.05290102724916
C          105.79851316466807      102.76348708443618      114.14711339234506
C          104.83171896962311      103.09932459593247      113.01278064586275
H          105.42334629678763      101.89502748994670      114.69583840399498
H          105.85955072071347      103.60479087793159      114.84120535071632
C          105.13982083481258      104.45404375649976      112.38032829135942
H          104.87830835593189      102.31941197949364      112.25015015899936
H          103.81766126481011      103.11860629834052      113.41844054967405
C          103.99394492007711      104.94612478653488      111.48712390638343
H          105.31084888495832      105.18017187954381      113.17634039796873
H          106.05569589451713      104.36513259150971      111.79324221785343
C          104.46269791848258      106.09971844029896      110.62252523075723
H          103.65440047417407      104.14419545775057      110.83012845250971
H          103.16015660892647      105.27128760960346      112.11097320872669
N          104.88212127938799      107.16588525268453      111.31060659163472
C          105.61161615015814      108.25941077802128      110.71093625537465
H          104.68825229012083      107.20654374591237      112.30851275394237
O          107.52464403261531      102.29384332636188      112.51025829760863
C          107.09989635814199      108.21630321685025      111.06641208974042
H          105.50513577928324      108.16530889699538      109.62927097096455
H          105.17883115229846      109.20825162766329      111.03843652008790
C          107.89075464881230      109.15736341958760      110.16230323403350
H          107.23302772099528      108.51467977974302      112.10528356980295
H          107.45161305269059      107.19006961768102      110.94860035553653
C          109.32585420266354      109.39011556645154      110.63235498434261
H          107.88266776088284      108.77211498644400      109.14129485488874
H          107.37732994230468      110.12026079652910      110.15017526917686
C          110.19781329012831      108.13440413056341      110.64318998563579
H          109.78354368854620      110.13524879224657      109.97909468683048
H          109.30024171888978      109.80811630524828      111.63955442828714
C          110.32798841927705      107.48741287606066      109.26599532460224
H          111.19454497296287      108.41116489846831      110.99105118953892
H          109.79644361649775      107.40511853544112      111.34529640114656
N          111.57406446439286      106.75190887941432      109.16680158257317
H          109.48204006284776      106.81824840518435      109.06935963037765
H          110.33546023955016      108.24797438519860      108.47818768787769
C          112.11859895964521      106.41328076645723      107.99829377339546
H          112.03410769204578      106.46424913252919      110.02691707902751
O          104.47833217731778      106.04179154009159      109.39320624473505
C          113.49284074184685      105.77859724376968      108.11966806516541
C          114.13632756887046      105.51877012236955      106.75905164356675
H          114.11139635197594      106.45854952556029      108.70716808329611
H          113.39625367558610      104.85308730795430      108.68803647911813
C          115.65637802231737      105.65548814603886      106.78112769477308
H          113.85974236160231      104.52557457132956      106.40120635861923
H          113.72651136593419      106.23309027997126      106.04230094160761
C          116.33984448981396      104.68814173443178      107.75238220819971
H          116.03824043613987      105.47652438813124      105.77472552712857
H          115.91506817852824      106.67781572676581      107.06544789153260
C          115.98393985702076      103.24413901231178      107.47470399784804
H          117.42407023842613      104.78802845588861      107.66881412125805
H          116.04188413674237      104.90729773547484      108.77810618334743
N          116.43891194901680      102.73997360435554      106.32830983089340
O          111.56944133473134      106.63428597453802      106.91800668031604
C          116.28513409371990      101.33848359646518      105.99300713252339
H          116.97928037455162      103.31554346741544      105.69234911919293
C          117.22469335810419      100.89974409357660      104.87372163982397
H          116.47117273143662      100.75193358839297      106.89915979858995
H          115.24994449440219      101.13932634944341      105.68584448468523
C          118.68494453705591      101.31821775265827      105.06426470545844
H          117.15534816110063       99.81271994978324      104.79883117342133
H          116.87096430520951      101.32129135731732      103.93065500721355
C          119.27746442545141      100.93485333633461      106.41868578952244
H          119.27455423259883      100.84514116734157      104.27593330952966
H          118.76229226678049      102.39469010680352      104.92536069256776
C          120.77378484642450      101.23783285728005      106.50028705775208
H          118.76583855609952      101.47708381321902      107.21619668891650
H          119.12638288529979       99.86563325743334      106.58662218032143
C          121.09068993197354      102.73393339950211      106.48005453640548
H          121.17662898968349      100.81092343429329      107.42228047014048
H          121.29280313843961      100.76627568776965      105.66436495940385
N          122.53233359474295      102.93325799043997      106.42452613220451
H          120.66862748732001      103.19176317704388      105.58337060309763
H          120.61775931126132      103.21269251057251      107.35614121191634
H          122.96021023654539      102.62375093532256      107.29035867908152
H          122.74572031341978      103.91685963507818      106.29549009033806
O          115.32184685378927      102.58178294683609      108.27776415887622
C          116.93085391974533      103.78439806242631       99.78072425775429
C          115.56826399334805      104.29854190324271      100.18455530902695
C          118.07231625571438      104.77681335932751      100.00711922828431
C          118.55268213064298      104.82021726706017      101.45743636151134
H          118.91038331832355      104.48529618816573       99.37317060938351
H          117.74013157007617      105.76937710863496       99.69732195156836
C          117.55332793214609      105.50927111638910      102.38851578874721
H          118.73475567245742      103.80419599574331      101.81505029771350
H          119.50002654615568      105.36170861409961      101.49796756208046
C          118.06120190652828      105.47476130194836      103.81470666632455
H          117.39757653339800      106.53780359493513      102.06549815784534
H          116.60127954469520      104.97738468993373      102.35225216758317
N          118.61263521073778      106.60057953349387      104.26268185895489
O          114.78927684225731      103.33261995471935      100.63320686617851
O          115.21411050066887      105.45401842719608      100.07702039615397
H          113.84568158727639      103.62678462728188      100.80534467396987
H          116.84842755669023      103.56876436928945       98.71185079641728
H          117.11228291236171      102.84240545506641      100.29844175708143
C          119.13859039156297      106.69145000221550      105.61268392920282
H          118.51954616629267      107.46454826967275      103.72870552320656
C          119.49747481099239      108.12200913917857      105.98789293349543
H          118.38730703191955      106.29049803886086      106.29834358111384
H          120.02290184287162      106.04922082416778      105.69324151540394
C          119.81406329173964      108.22839302696667      107.48073149390909
H          120.36677499671789      108.42561787426182      105.40285717155768
H          118.67128540403743      108.78740267120388      105.73320683856832
C          118.55931647891201      108.26229314381133      108.35212476458176
H          120.43885603312829      107.38181198946251      107.76284532461777
H          120.38773145448322      109.13538004912523      107.66897499485832
C          118.87536432798279      108.30369385534956      109.84913678587192
H          117.98032973084879      109.14975967229367      108.08775827140244
H          117.93731974330332      107.39046642727388      108.14703626207759
C          119.24069133615420      106.94984287533222      110.44576543815707
H          119.70181355633395      108.99063178932279      110.02639736055940
H          118.00303792222704      108.67750172651047      110.38632932235983
N          120.61378327264546      106.58702456842890      110.15748932039260
H          119.10583418729266      106.98157912869311      111.53251555226949
H          118.59496423069693      106.15836281246060      110.05067775094518