3795
 energy: -5103.641240230028 gnorm: 0.000867842015 xtb: 6.6.1 (8d0f1dd)
C          129.56449597755483      128.14897523964299      126.54090739236437
C          129.79737951185871      127.33766725412825      127.78802179967914
C          130.42028321502971      127.69772770454169      125.35752491048204
C          130.12220506072214      126.25153663593672      124.97552542436736
H          130.21438654846821      128.35329048444791      124.50993716543586
H          131.47441920413229      127.79583402235917      125.61969862697390
C          130.95341521617178      125.78559301183282      123.78328698968176
H          130.34371995875401      125.60138993813956      125.82377571021495
H          129.06149135372675      126.13873462362150      124.74559026752311
C          130.77910879509932      124.29282768039131      123.55119826332381
H          130.64869707147659      126.31664270223865      122.87838102496411
H          132.00858806877582      125.99771287409153      123.96292383535746
N          131.71625662025178      123.74354543793311      122.76339180982447
O          131.02595896169501      126.92741023107448      127.96241784851540
O          128.90396760375552      127.10438020609801      128.58813775162645
H          131.13350648035444      126.36646641308185      128.78795299199558
H          129.79817574779034      129.18685338770931      126.79294849968348
H          128.50045058441202      128.10019828157490      126.30096317049214
C          131.76100003131040      122.33539744805199      122.43115628636463
H          132.40732270177298      124.33539695597595      122.32967926475368
C          131.57956448050433      122.08707322953768      120.93541759269246
H          132.72530998848620      121.93144411655884      122.75565325327858
H          130.96472725640373      121.85236616635804      123.00047135417965
C          131.83085003625976      120.62215361482441      120.59024364962484
H          130.57162959379806      122.37685402323844      120.63639334878381
H          132.28350689764591      122.70685705129917      120.37666775361129
C          131.76570039730345      120.38213480467202      119.08491364300335
H          132.82297622630946      120.34312048034558      120.95059331594818
H          131.10112124609796      119.99165426722833      121.10036470413031
C          132.24258957828076      118.97893819523435      118.71361394347943
H          130.74229485728765      120.52756343817855      118.73661047521999
H          132.39609403654609      121.11866703211558      118.58363674708151
C          132.44301441164450      118.82454468578921      117.21483587938367
H          133.19755252730789      118.78277747126504      119.20287383286717
H          131.52570987413486      118.23076354258336      119.05815558386900
N          131.17862313375522      118.90246873678757      116.50685574603091
H          133.09654016808477      119.61747537644158      116.83611403472752
H          132.92826830105201      117.87007829897922      116.98192204889321
C          131.11067306904485      118.70239857093569      115.19251472645472
H          130.32361672464077      118.85900868924388      117.05021146006384
O          129.87916849515639      123.64060466585343      124.06024551548919
C          129.72586559652882      118.79115153371812      114.57932720727069
C          129.75730599981637      119.69531912044117      113.34847881257744
H          129.44112744464084      117.77948880003643      114.27625730962706
H          129.00404692003752      119.13299001604800      115.31810272733480
C          128.47327338915306      119.62223276079429      112.52684146239091
H          129.93777816152215      120.72652119931890      113.65794228511363
H          130.60453803544891      119.39040302114665      112.72845421511791
C          128.66754500737551      120.31333535559973      111.17535255233750
H          128.20578427811603      118.57555035842790      112.35989601727026
H          127.65614403033672      120.09708461644738      113.07144389321708
C          127.47426666901397      120.13085496968357      110.25813446340996
H          128.84741304684150      121.37773643426264      111.32929605395900
H          129.53636092880916      119.88597605103097      110.67090683324633
N          126.44561233595462      120.94910166557149      110.48897850951462
C          125.28343447174808      120.97073054246957      109.62197985299039
H          126.37805120117770      121.45168844210426      111.36808829577986
O          132.11015293150203      118.46786730359823      114.50661316361318
C          124.15195456606178      121.78560455966003      110.22620585980508
H          125.57725239459212      121.38926103385630      108.65232555222396
H          124.95927931079930      119.94286301437319      109.43013621734923
C          122.98678955258818      121.86222248775255      109.24586355127848
H          123.83177978900311      121.31633102822002      111.15698200938932
H          124.51861851993625      122.78612813570982      110.45893816964859
C          121.73439984947372      122.51723538711101      109.82079540711472
H          123.31355234638630      122.38563453280237      108.34828924297089
H          122.72409387400302      120.84962074605089      108.93898369230865
C          121.88925467122316      123.98351982208885      110.21820674223807
H          120.94368901257664      122.43813650005617      109.07151167570682
H          121.42002704591167      121.95826237118111      110.70384335616113
C          122.33965893909144      124.86471127244879      109.05564718261846
N          122.10152622288228      126.26636643075290      109.33306111673508
H          123.40712913586928      124.71990558089435      108.86083431531621
H          121.78421687379067      124.61396074965647      108.14894157055296
C          121.48801620872624      127.06251537392940      108.46007415295979
H          122.26500779005812      126.55396364378618      110.29579603392025
O          127.47338645605014      119.30316266335785      109.34626571015687
C          121.31312368318970      128.52633992481964      108.82857869670275
C          121.08770650435439      128.92032734213640      110.28792776915199
H          122.22172575113900      129.02317568880684      108.47235202429263
H          120.49026281368199      128.91211006229850      108.22422695984828
C          119.74370034048390      128.46926852830478      110.87212243592299
H          121.90695092455753      128.56561721345631      110.91270061615391
H          121.11798029439662      130.01074061101207      110.32034810449713
C          119.75980624551408      127.04831682373278      111.44970965237680
H          119.46689600963784      129.14725992444889      111.68230996832251
H          118.97150262037270      128.53357847109328      110.10336467432461
C          120.86305479316547      126.97112406814087      112.48288484614811
H          118.80325414748862      126.83402282746187      111.92369328033722
H          119.93628658379397      126.31819929135924      110.66268534910000
N          120.52494154757593      127.44962296948137      113.67986681047167
C          121.49331204652422      127.71675548512169      114.71741952322027
H          119.58436796075343      127.80081602841192      113.82643740913346
H          120.92134068858718      124.33780144809765      110.57961336230429
H          122.59542718726796      124.08795831850153      111.04152358801942
O          121.14081408457687      126.67028519514328      107.34174226980373
O          121.99222846256528      126.55938509528103      112.20991424260454
C          121.65203831189558      129.21987775577426      114.95477203409746
H          121.19137786015882      127.21781508066326      115.64158503216498
H          122.44377002085230      127.29749471948982      114.37944686799231
C          120.50468674814776      129.83370011547623      115.75605246305489
H          122.59102137223415      129.39877374742483      115.48137363789866
H          121.72518871959636      129.71098752855269      113.98210308137786
C          120.48383125723853      129.34203806434115      117.20127204020113
H          120.63755170581776      130.91728797774434      115.75718256597820
H          119.55006539370849      129.60864691129055      115.27800210842292
C          119.51911962639335      130.12348438348062      118.09391862408295
H          120.19258662509507      128.29130532033219      117.23922341787689
H          121.49476164917382      129.39866060286849      117.61058469362544
C          119.90708792775237      131.57651669134222      118.33906381366374
H          118.52308266495939      130.11038029426206      117.64786286274638
H          119.46569771595586      129.62715518958402      119.06253377971409
N          121.23390996264040      131.67571532784245      118.91003081167705
H          119.87854271314119      132.16044060349759      117.41141963081466
H          119.19541747124208      132.03220436908251      119.03287015920168
C          121.74849537649381      132.80397423219401      119.40753113940380
H          121.77524649880127      130.82808814631647      118.97546605401563
C          123.22218146595574      132.70990528969179      119.74909245070934
C          124.06632842381954      133.16871032907861      118.54979409654059
H          123.42967928474610      133.36808566524076      120.59378049455638
H          123.47368502094848      131.68682841955311      120.03125921383266
C          123.84557842268504      132.33619466833167      117.28776687600808
H          123.82459547647714      134.21159701481830      118.33116056914248
H          125.11987878797189      133.12143711952572      118.83192352038606
C          124.74608595671427      132.81745645906122      116.14451605814796
H          124.05935355021565      131.28552654654024      117.49809695264136
H          122.80357589160622      132.41851440651249      116.97129019537850
C          124.48365835313673      132.00992390924679      114.88646809814324
H          124.55425899998107      133.87271610587356      115.95150223272128
H          125.79137837889901      132.68455905063709      116.42864050792636
N          123.70913659782001      132.61197655377296      113.98431469320928
C          123.32896282524815      132.01116166335987      112.72415028684723
H          123.28223779928379      133.50596468984776      114.22395218323783
O          121.09596642252239      133.83755010883297      119.52977039460559
C          123.39180110250891      133.01520907366714      111.57352500529009
H          124.00604538763065      131.17277975006314      112.54822240639371
H          122.30726966815803      131.62069086657726      112.80434378043114
C          122.68349479554695      132.46819841157458      110.33435114359425
H          122.90745205511821      133.94154821330898      111.88996697983053
H          124.43158185286021      133.25063744086631      111.34482790949735
C          122.61306100387858      133.49443013679755      109.20519471293345
H          123.20552358285515      131.57590893295469      109.98503959671565
H          121.67080175336923      132.18485718492181      110.62181303156393
C          121.85815505056945      132.99195732322073      107.97153604177360
H          122.12543483077816      134.39891197172051      109.57451505027385
H          123.62695614421047      133.76675084446015      108.90703441704585
C          120.38372125004436      132.70671506919692      108.25344225370688
H          121.91747562758137      133.75677369321227      107.19513626904818
H          122.33317075620631      132.08864688153102      107.58523124683074
N          119.62181929425326      132.61263537695817      107.02493448131541
H          120.27367941189914      131.77495791967533      108.81868881751254
H          119.94209269222435      133.51815925639156      108.83828805456830
O          124.95044999002468      130.88191072017710      114.72715983165394
C          118.36889660687014      133.05777338355514      106.91620905469279
H          120.04700768935248      132.12506074051322      106.23843704786712
C          117.77475143584662      132.92564063624354      105.52429547667447
C          116.25037772499469      133.01807448575295      105.53954363659872
H          118.18654114960528      133.73920680916029      104.92259889756616
H          118.10910709503095      131.98885151435351      105.07877674853880
C          115.61963516257740      131.83398353117920      106.27835701478389
H          115.96365367393635      133.95621793007840      106.01707584428897
H          115.87915423637759      133.04491523587674      104.51393925252817
C          114.16565518130115      132.08614108130888      106.66494617536146
H          115.65232660506962      130.95773964904257      105.62880316540287
H          116.19911591069170      131.59803240629708      107.17274098560333
C          113.91262173328860      132.99718629000682      107.84878635267548
H          113.62383884396935      132.51247529663968      105.81579496725696
H          113.67472291771726      131.13721348645916      106.89914103239296
N          114.93346342447697      133.60618475635081      108.43045430549485
O          117.75185308151248      133.54930625056602      107.86174063970233
C          114.76881682977934      134.51068491053007      109.54961194960758
H          115.89641438812761      133.49240251548653      108.11294671922042
C          115.56079518234040      135.79930422420253      109.34984262264884
H          113.70282084079349      134.73260984771963      109.64034985201722
H          115.10107810535109      134.00684622594235      110.45917808775403
C          115.31129065600133      136.79745576924321      110.48359342178863
H          116.62265236573633      135.56121395162205      109.27837452308486
H          115.25152129793129      136.25153790185638      108.40529481090579
C          116.11503729243891      136.52408203319141      111.75706145449607
H          115.56595987102669      137.79875227871045      110.13044626329408
H          114.24581030621860      136.79816392757209      110.72415631160010
C          115.66842909854549      137.46490231076589      112.87979654758280
H          115.98101284674830      135.49253114048369      112.08015754298026
H          117.17500000444207      136.67674032991792      111.54579212596211
C          116.69638496250224      137.65000799229648      113.99199622114904
H          115.47157070802041      138.45246203893544      112.45791313562461
H          114.73799165144989      137.09428802644717      113.31229149567838
N          116.91818904728929      136.42865144427603      114.73650152607804
H          117.64510335732443      137.98967468790869      113.56141948228185
H          116.33397512617408      138.43272518795982      114.66937451266982
C          117.70195062916864      136.27445278878616      115.80201227265694
H          116.38143596660660      135.60704113555093      114.46028733362431
O          112.74531162108238      133.14622277469437      108.25896362722503
C          118.46277863932588      137.48405618050941      116.30884855887970
C          119.80371071113895      137.66069741372033      115.56658146292197
H          117.84854121229483      138.37553393680031      116.19823698000276
H          118.65268229273339      137.33270974815406      117.37210811361054
C          121.01305279199607      137.27673907734686      116.42138040590189
H          119.80825943436413      137.05836172547851      114.65524491509180
H          119.91849552778716      138.70491983159806      115.27278082066397
C          121.04443421398773      135.79143277655069      116.79558616275988
H          121.92665688500124      137.51124621461514      115.86934737521820
H          121.01100907052029      137.87131814495459      117.33681495438344
C          121.28395072749062      134.94820483909794      115.56352239406917
H          121.86303749749896      135.61613963417724      117.49581563470976
H          120.11734103292231      135.49131303060130      117.28074655163513
N          120.23222076716594      134.24063209007807      115.14815809775308
C          120.21903105291869      133.46748896455793      113.92508196452172
H          119.34943306905770      134.33883225143381      115.64347282245831
O          117.82627817918259      135.16961828246593      116.33940150545136
C          118.87745489081149      133.57444835057473      113.20972856748773
H          121.02460548224268      133.84465660842699      113.28976958751585
H          120.42623629266376      132.41562982390650      114.15748149283282
C          118.88913666254979      132.77321317381472      111.90635780312284
H          118.09071266484061      133.21739665549538      113.87445029839904
H          118.66467108154551      134.62196606540536      112.98984650733216
C          117.49015385340958      132.61615744652931      111.29503325365958
H          119.54112049623048      133.28700736077280      111.19939835864602
H          119.31938628598589      131.78709088885014      112.09184855279688
C          116.86074584775245      131.24508918997984      111.54519757577704
H          116.83979420304175      133.38051193409299      111.72126597778589
H          117.53855899587971      132.78319800115912      110.21819322766099
C          116.69791906284809      130.96113246788391      113.03925472416786
H          115.87683009365244      131.21294845341930      111.06960025006850
H          117.47537022629656      130.46389540678283      111.09488743855749
N          116.00091376131887      129.72251347542144      113.30646095873261
H          117.67881463167174      130.88006910600313      113.51262969985396
H          116.14454382712434      131.78037170546386      113.50345795246713
C          116.61799687506587      128.64367000320772      113.79746194796736
H          114.99116065659491      129.72435072889360      113.18440302686052
O          122.37271137995073      134.93132866981145      114.98297527081097
C          115.71622380204823      127.48217689025050      114.15617709032378
C          115.40884148382636      127.50760051764105      115.66141353864303
H          114.79647477450403      127.52120522806362      113.57501818433356
H          116.25175016645537      126.55893588626552      113.92569990827813
C          114.50005440230251      128.65930546154729      116.09319743186727
H          114.94107355091317      126.56288519729195      115.94098139390641
H          116.35579245580278      127.58040967482349      116.20155178421062
C          113.06991606856640      128.50055884665315      115.58576231422775
H          114.48414889959639      128.70175180628860      117.18550191507005
H          114.90439625177507      129.60682030599301      115.73576338900823
C          112.14422001370774      129.61412981925855      116.02846885669871
H          113.05580145279220      128.52111375913412      114.49472345162981
H          112.64850306119622      127.55019365849428      115.91129672580973
N          110.84405774473495      129.31442011294658      115.91322786487763
O          117.83605927671631      128.59843741666890      113.97028105349811
C          109.78253631099913      130.25455713964271      116.19836600423838
H          110.58135896100876      128.40389566108277      115.54272982950783
C          108.83484851467580      130.43873296747398      115.01420326417069
H          109.21091104071733      129.90440313030194      117.06286767027900
H          110.25863429831517      131.20421383838664      116.45696785655440
C          107.85087078963120      131.57847581353693      115.26937327011893
H          109.42040238882954      130.65267556363153      114.12052089904648
H          108.28690237734963      129.51111026219792      114.84327077393907
C          106.79309043990503      131.72019221269056      114.17458392940908
H          107.34436204138709      131.40663113782028      116.22080870273290
H          108.40375224870745      132.51625189111803      115.35393866459603
C          107.39152513248055      132.00560319450940      112.79790235186287
H          106.19189277400855      130.81067577909286      114.12424798268690
H          106.12073668167137      132.53858739005867      114.44202260697497
C          106.34732481123702      132.50076528991275      111.80068786136547
H          108.16397777440893      132.77121905957659      112.88497967934288
H          107.85092041674640      131.10009629991413      112.39872675430819
N          105.31015336642513      131.51742953273572      111.57630159312272
H          105.85495824063179      133.40494651190693      112.16756667191315
H          106.83520069761666      132.73713965545829      110.84611843334581
C          104.00445645927894      131.81864439700553      111.55970527779043
H          105.62077683060042      130.57601536809005      111.35935187783838
O          112.54166361839290      130.69789560140740      116.45477846661697
C          103.09753868916337      130.65378871648016      111.18674369005170
C          101.70717115719995      130.79546776269868      111.80568033487890
H          103.01142203749581      130.66974061558037      110.09651674698577
H          103.56873051917673      129.71425942656600      111.47003649932996
C          101.65929845256962      130.38740244988335      113.27872122618308
H          101.41388342085588      131.84352122954130      111.71570774947330
H          100.99029004722826      130.19388893435723      111.24400911048876
C          101.66795511912609      128.87345006936224      113.46103816881292
H          102.50415811291734      130.82802948631729      113.81173756478465
H          100.74940101614874      130.78779921459588      113.73128570229443
C          101.65879451982994      128.44773986814727      114.92311576241042
H          100.80966284381142      128.42525504857343      112.95921587239430
H          102.57207636801405      128.44958742196309      113.01758764487523
N          101.25361324618918      127.18279244520528      115.08623317304067
C          101.19862492319278      126.49103835474342      116.35481279854488
H          100.83119794012251      126.70229801837357      114.29332308120946
O          103.57644097814014      132.94604199856406      111.78650387515522
C           99.87514401446072      125.74923878953162      116.53642298893512
H          102.02671208093311      125.77206323560540      116.40598614923158
H          101.34532353876843      127.23093446501512      117.14429767050525
C           99.99852120551267      124.68243458458730      117.62153934439053
H           99.08910310588129      126.46035062310125      116.79776804820449
H           99.60027882814585      125.29512990361621      115.58300049210482
C           98.68346651404575      123.97173932060893      117.94020704892466
H          100.75344280389319      123.95188620483681      117.32949172374462
H          100.35635845369258      125.16195350692676      118.53168692930674
C           98.15233887558638      123.06781233465287      116.82468558058902
H           98.82795307499133      123.37246135732340      118.84221701861148
H           97.92161551902409      124.72114804331754      118.16633154273430
C           99.09438062958735      121.91773215352778      116.46179348158357
H           97.19525675384149      122.65118706894424      117.14687381766969
H           97.96801794174640      123.65529799277260      115.92479835960117
N           99.47477362880214      121.13639944594644      117.61608898347247
H           98.60205021760291      121.26465708623877      115.73311682647793
H          100.01561546688569      122.29609437135139      116.01707578748368
C          100.74297711213737      120.93634885997142      117.99391400369774
H           98.72467840064712      120.73804411478706      118.15912532569756
O          102.04293539484928      129.16622445633467      115.84013907637456
C          100.91518754457516      120.12785076776636      119.26077175637934
C          101.09550758821810      121.05347133146007      120.47260252272798
H          100.05023343812647      119.48421907710485      119.41630123379925
H          101.80693413813388      119.50817101146117      119.16016725030475
C          102.39643212555407      121.84855077561022      120.40261325543183
H          100.24941672572830      121.73983648531745      120.55120332271780
H          101.10642489910111      120.44223416075720      121.37627456702742
C          102.62924000296560      122.66669312986252      121.67458878339542
H          103.22823183314829      121.14998039791330      120.29371683946428
H          102.39022405623243      122.50796475609883      119.53314634495617
C          101.64848317079814      123.81252795461926      121.82999744226247
H          102.53367129582666      122.01599379972440      122.54373497906752
H          103.63650593467652      123.08506256255839      121.65962997961186
N          101.86130781952805      124.85378821898117      121.01499005911685
O          101.69760093312945      121.38101822259276      117.36236267506125
C          101.02391492759909      126.03547633972134      121.06046039855454
H          102.58740013273169      124.84132994631898      120.30791344553994
C          101.68976896637456      127.18317461793619      120.31620267710208
H          100.04085354555914      125.81376576299989      120.62428087831634
H          100.85167288259019      126.29070628330864      122.11207261419781
C          100.77886574194547      128.40148236820383      120.20326391990700
H          102.60627172074170      127.45474599066772      120.83753701586234
H          101.97003282088636      126.83977242144762      119.31921343207354
C          101.42477399532120      129.52008370940902      119.38847333762102
H           99.83901201701477      128.10876298906231      119.72929019193816
H          100.53964518622534      128.77208685630072      121.20266759916747
C          100.55300043892456      130.77370770598441      119.35025245801333
H          102.39302585669132      129.76653460415295      119.82536815828807
H          101.59706702427104      129.18192722878467      118.36389044727584
C          101.03268398202302      131.78929114022648      118.31266454656155
H           99.52845094185363      130.49295972806789      119.09607426893598
H          100.54183874774867      131.24870920256467      120.33227695811713
N          102.34761277392261      132.31848236078437      118.66566690324782
H          101.02452558133982      131.31067777588271      117.31948171042102
H          100.33391975409531      132.63143808452469      118.28638256474341
H          102.59301511970696      133.06004161822881      118.01911782163890
H          103.03398676469480      131.58203265532873      118.53837472031306
O          100.74254763073273      123.80274100370112      122.65919816925138
C          122.01099366782513      106.73407244030183      119.34704960354107
C          121.02928975992850      105.61512688417152      119.09048281684672
C          121.47607297978158      107.68422168360733      120.42552177727912
C          121.61130964481987      107.12751338139046      121.83957318769622
H          122.02965739974167      108.62146686427884      120.35747235270644
H          120.42662200758637      107.89216333343730      120.21032970393658
C          121.06818772902443      108.12023271610707      122.87480708409893
H          121.06968633957877      106.18309040745574      121.92066672812896
H          122.66638938484967      106.93191714881659      122.04739545624639
C          121.53807646735218      107.72258018866076      124.26371388657063
H          121.44638514289065      109.11632671596371      122.64256597985319
H          119.97987110636069      108.12856970372682      122.84375825707069
N          120.69964858017059      106.92311409608946      124.91485583788686
O          121.45481771462278      104.44500249756452      119.52396559597982
O          119.95625436985398      105.77980553475454      118.55027347171568
H          120.76741341201733      103.71329689546069      119.40983700651249
H          122.12974350711062      107.29941770474520      118.42074103817313
H          122.97067966752856      106.31266274554072      119.64229234680383
C          120.96729114974970      106.35568607364549      126.22024771337716
H          119.78549681967263      106.73284196778235      124.51940900463096
C          120.00401984410664      105.21372552041143      126.52857429162104
H          122.00741260975134      106.01614990443836      126.24489936387698
H          120.85945894538865      107.14012780871083      126.97932334144330
C          120.32065412612820      103.90038203132977      125.81108933988264
H          120.02895377972685      105.03380943275386      127.60408219755134
H          118.99747185691297      105.53626972967734      126.25807583651289
C          120.13279378001042      103.96415429949062      124.29539192266772
H          121.34878364778343      103.60591862674593      126.03274193214966
H          119.66443370283123      103.12439556527958      126.21190014267111
C          120.23657285412216      102.57834992202547      123.65875649664467
H          119.16148754337803      104.40181066061416      124.05857846124775
H          120.90208058629482      104.60577221888097      123.86322767840457
C          120.22946072683335      102.63836285398513      122.13729500222775
H          121.16889429359740      102.10757922026303      123.97581913307221
H          119.40817405562920      101.94869689142634      123.99023303421490
N          118.90432796843416      102.93161401309538      121.62332229986114
H          120.92975755438168      103.40605178787047      121.78715967920533
H          120.55867642698412      101.68313278995069      121.71230533082991