3258
 energy: -3427.489781463327 gnorm: 0.000703028119 xtb: 6.6.1 (8d0f1dd)
C          106.11171422409447      122.69827888362440      105.84323074155476
C          104.61264776044982      122.63183123711966      106.10345159687671
C          104.20045985531128      121.34608403647862      106.81554990825788
C          102.68746731271278      121.26318989385651      107.01084527497807
C          102.26498858471466      119.97800800964976      107.71687536987159
C          100.74996321417345      119.85478386970347      107.86514293693196
C          100.35171806342628      118.48595657586732      108.41052876808156
C           98.84237566697922      118.31571694751808      108.56039459526131
C           98.48272245393036      116.90091849220354      109.00905378081130
C           96.97499420114075      116.68824524707847      109.12190266049863
C           96.58766496731243      115.28040691783778      109.58270476090310
C           96.89839086270702      114.20599621653727      108.54235858076373
C           96.48834797299833      112.79562333211335      108.97100514102543
C           94.97408239030122      112.60503768261245      109.05575997483744
C           94.55027785684969      111.13512166698391      109.08481658741040
C           94.90755067906562      110.40905980766155      110.38040898868688
C           94.41604797915790      108.96226294461974      110.35963256487814
C           94.66879124987237      108.23323727842154      111.67727778474431
C           94.25020787066123      106.76544786902861      111.60941274544260
C           94.47443941558328      106.03741307638140      112.93452097481179
C           94.40321568115965      104.51840233463716      112.78779678498647
C           94.42758454849806      103.81318043624425      114.14264520316848
C           94.65303416031871      102.30280685208332      114.03282992102476
C           96.13328613353868      101.94157725259758      113.92180056583972
C           96.35138029777609      100.44931440222975      113.68109918268303
C           97.82724537198970      100.06403608298385      113.75900937593460
C           98.06700801116151       98.59754578325098      113.40584259064431
C           99.52110097070086       98.18710394552039      113.62614288573339
C           99.80027746464822       96.75099954080565      113.18731401006870
C          101.21208426238367       96.31020507327975      113.56613452613364
C          101.57421488401603       94.93431202957947      113.01244995296699
C          103.00848693743650       94.54497095272161      113.36867116508910
C          103.34849544396876       93.08967475459026      113.04423977069537
C          103.40761110918626       92.75252580680191      111.55273522177177
C          104.65087709885776       93.29018211729610      110.84579867719594
C          104.66927417003053       92.88923531651174      109.37152537471046
C          105.94809731497224       93.32097473421635      108.65617460982392
C          105.89559089115012       93.01786075213158      107.15916018847312
C          107.18035991444769       93.41582191121424      106.43392951002815
C          107.01107446515431       93.41236151967703      104.91495149361607
C          108.30527725245386       93.79494024325668      104.19719173279451
C          108.10399168428842       94.22864130489532      102.74593433047407
C          107.62892778750735       93.12255460583938      101.80812346492679
C          107.47211858748368       93.65075110431165      100.38230592177038
C          107.04352603383602       92.56344985273000       99.39692541477267
C          106.51308521906934       93.12049808557840       98.07423728881376
C          107.56295278233098       93.84562418143980       97.23418206641132
C          106.94215790804974       94.49619031359474       95.99958598060540
C          107.96537113530835       95.24380205705825       95.14556187068348
C          107.28225844668982       96.07700761935999       94.06270344118923
C          108.24844497919084       96.80339683739912       93.12482417472566
C          109.00395595448231       97.95121591569922       93.79277284944348
C          109.78625302820679       98.78795290869434       92.78142704196264
C          110.51428862011336       99.95348456074777       93.44646942140430
C          111.28282906804857      100.81937758640237       92.45059677310307
C          111.97606976843974      101.98824260771192       93.14610591320275
C          112.77828199868324      102.86561174143459       92.18923485877032
C          113.45380276988277      104.02255702579592       92.92172620039740
C          114.27731766516574      104.90579367009745       91.98945877184218
C          114.95749654835966      106.05560882678790       92.72932440679659
C          115.73535460562621      106.95543629053100       91.77252114441966
C          116.36525062180405      108.17513811933658       92.44517178865674
C          117.57566826758318      107.85149539827339       93.31812607292501
C          118.27271299646129      109.12282579107537       93.79871790473642
C          119.48159370353321      108.82711730026830       94.68210695233823
C          120.19493188858593      110.10384275162882       95.12134612172269
C          121.33436837389482      109.82809717455432       96.09960519723144
C          121.99885598862787      111.11555760264650       96.58404225436992
C          123.15154509929410      110.86655170079399       97.55990299092588
C          122.67463933870762      110.45396806515966       98.95077685756681
C          123.83113629820475      110.11090714556212       99.88729310292504
C          123.33352231146596      109.64119161363986      101.25301719021942
C          124.45147162505380      109.36929790182751      102.25982200914117
C          125.44833581130311      108.28528543674933      101.84691569958328
C          124.81553474045252      106.90751332953674      101.66484455414850
C          125.85733721118592      105.86428964875257      101.26489426745705
C          125.25755013515604      104.48654514190602      100.97862300104075
C          124.76654445155395      103.77760906205924      102.23836333816872
C          124.27286119918067      102.35460603510218      101.97673322738311
C          123.02889452808637      102.30430804386370      101.08838687154233
C          122.26371820284311      100.99265423281003      101.25076772542789
C          121.02207485554571      100.92722230490484      100.36106255931280
C          120.00647994152310       99.87986051018983      100.81961424178957
C          120.52034289613896       98.44579026003609      100.72073921232298
C          119.52489160583460       97.41587971709576      101.25957848512441
C          118.22519439426765       97.35901627621791      100.45743904235913
C          117.38863339391807       96.11140238616477      100.74322469932093
C          116.82760591424584       96.05846722689597      102.16295277483664
C          115.92531848908835       94.84130930192185      102.35715209193776
C          115.43936865018685       94.65793620488539      103.79523579698584
C          114.43970110137333       95.72117587101125      104.24572001188193
C          113.84233509624943       95.37750671874804      105.60832596079017
C          112.94060576216476       96.46579923149618      106.18804943065668
C          111.70418579396505       96.74843725549226      105.33746884759930
C          110.70294165232170       97.66591010767766      106.04238577074132
C          109.88960306500421       96.94872708887605      107.11620769995979
C          108.96467184999750       97.89736330242150      107.87376762350345
C          108.22058162803448       97.17208053822729      108.99104171314579
C          107.31218536038456       98.07300329631225      109.82596989720882
C          108.06283226940246       99.13338063366753      110.62729245520308
C          107.16873943320731       99.80505855275176      111.66591341080101
C          107.88856337628890      100.93323129842156      112.39959661374451
C          107.05116560762143      101.51752737677208      113.53378405904306
C          107.76476393128522      102.66522761779221      114.24598553322767
C          107.10268396664597      103.07851723077547      115.56140720493396
C          105.73424923011262      103.72204615675807      115.36621820718277
C          105.05730869918452      104.12747048231384      116.67546206037592
C          105.75699894746339      105.24342413360665      117.45266774551256
C          105.90184515844938      106.54212332480972      116.66080744182206
C          106.17124107915627      107.73672205840333      117.57372339115385
C          106.42843691596292      109.02289216845769      116.79032518489255
C          106.30604163537744      110.27730644536312      117.65347690699988
C          106.48724757253898      111.55354227928920      116.83264341911455
C          106.03725064879796      112.80578005498317      117.58203503544649
C          106.05591137907855      114.04905291367976      116.69316366573501
C          105.23563258938668      115.19654619763966      117.27816450796279
C          105.03775271933016      116.33502521204225      116.28113617263686
C          104.13980890419870      117.43867844156011      116.83232720108293
C          103.85708082503071      118.53387904113826      115.80799677010904
C          102.95725872856913      119.61869430907075      116.38684922764510
H          104.79972373233601      118.97768127458193      115.47709661091746
H          103.37864563758794      118.09276670987254      114.92967878307526
H          103.18916741462179      117.00429689178200      117.15246531571849
H          104.61162127401587      117.88481675054037      117.71160436583615
H          106.00937864313777      116.75916407226595      116.01799474770226
H          104.59155199327756      115.93573455562571      115.36582963842521
H          104.25438329052052      114.81848391083726      117.57714607674974
H          105.72465669232299      115.57918135736395      118.17584262861419
H          107.08497438751301      114.37365759172100      116.52812397777490
H          105.63830445366428      113.78918405495540      115.71736387398030
H          105.01779074577712      112.64512019632274      117.94441159748274
H          106.67077297712905      112.96810243617082      118.45692207353342
H          107.53241599212795      111.65716123543176      116.53455289735849
H          105.89019742553660      111.46553445646734      115.92077699544808
H          105.31319482084447      110.29150684497651      118.11273810874771
H          107.03975456959159      110.24279553447741      118.46234213059512
H          107.42317086953577      108.98231148763949      116.34286507276275
H          105.70292494669080      109.09187730192608      115.97374142504570
H          105.30374710036507      107.88092830052555      118.22384074246341
H          107.02984135689137      107.52094139731305      118.21499466849271
H          106.71421780553055      106.44851110613679      115.93707005224597
H          104.98148499610907      106.72602042962485      116.10270906708597
H          105.16283769649392      105.44617089329492      118.34798413546233
H          106.73943511340636      104.90754898721228      117.79107226348843
H          104.03789375012761      104.45178176675584      116.44743281299775
H          104.97868130288906      103.24768683584811      117.32035770946926
H          105.84096487784764      104.59625989651857      114.72164794931236
H          105.07623610592034      103.01444149008159      114.85686019183197
H          107.00152657834616      102.20218946560476      116.20646507117939
H          107.75914479719194      103.78688104442841      116.06968260203807
H          108.79094078471003      102.35355544375821      114.45749454595692
H          107.81391361465040      103.52992542260614      113.57885373435221
H          106.09893026509796      101.86412964797287      113.12768058904877
H          106.83297551803371      100.72759125920224      114.25773116544394
H          108.83123784232312      100.55264413184845      112.80222732123258
H          108.13710752386375      101.72654774739517      111.69121303512301
H          106.28230288663606      100.20549851739899      111.17044765600122
H          106.83256686253547       99.05882271584501      112.38907338412375
H          108.91545959698753       98.67103786613791      111.13055648858881
H          108.45142615526248       99.89589650649481      109.95023278979195
H          106.58858010475039       98.56751597134588      109.17304004893846
H          106.75340051688676       97.43927398922425      110.52080881372578
H          107.61341440511475       96.37622769551646      108.54885216864290
H          108.94975881025906       96.69679762458952      109.65072995605627
H          109.56365348069686       98.70571099477903      108.29655838011936
H          108.24535853507511       98.33885077138103      107.17915830039919
H          109.29608372519516       96.15645956209181      106.65120309430905
H          110.56356934539700       96.47220739509390      107.83154484899659
H          111.24422409850246       98.49761310908684      106.50029422195850
H          110.01553830364001       98.08485094302145      105.30356124934087
H          112.01632853180634       97.21718403002924      104.40283758459726
H          111.21329505949613       95.80402573950357      105.08564865381625
H          112.62665505122328       96.14714395314047      107.18420437804285
H          113.51483766984985       97.38788395806451      106.30666878818440
H          113.27224554416196       94.44967710926355      105.52548265489146
H          114.65850452192915       95.19862504347938      106.31076335163878
H          114.93611157053593       96.69020274027694      104.30564885952865
H          113.64468245021720       95.79260825154870      103.50172975587462
H          114.96371145350096       93.67619029738762      103.87720230235102
H          116.30116770411851       94.65840750740928      104.46793140074202
H          115.05986181561840       94.92403877702347      101.69414939044702
H          116.48035588213287       93.94660759857294      102.05959783585152
H          117.64883903305704       96.01167474318451      102.88077791104224
H          116.26068477347825       96.97058444867261      102.35516386236900
H          116.55362444763200       96.08348943069032      100.03708593446321
H          117.99627461950176       95.22057226519979      100.56123686834223
H          117.62352826406384       98.24359281886478      100.66988230387143
H          118.47191353646949       97.37108731492229       99.39203961048689
H          119.99898053069390       96.43082953473021      101.23365671443668
H          119.30301864667746       97.64901348563485      102.30307478240887
H          120.75022399856626       98.21511834469413       99.67697493867148
H          121.44820115391389       98.35597905251110      101.28981259069650
H          119.72930960167743      100.08586758181235      101.85599289247129
H          119.10827365696197       99.97962116519000      100.20716049640308
H          120.53251879739085      101.90408757432319      100.37490323491460
H          121.31803123813371      100.72557396078453       99.32870416134266
H          122.93138933013529      100.15816260516077      101.02706371432340
H          121.95571434288364      100.89767751762795      102.29511354458093
H          122.36905548866864      103.13216463406077      101.35979046222639
H          123.30904688274568      102.43529343777176      100.04120261316132
H          125.07292576865601      101.76488001189341      101.52267544681662
H          124.03411048531544      101.89493500762907      102.93887229409469
H          125.58695177992122      103.73697598739686      102.95986377237283
H          123.95630652527592      104.35110289402461      102.69198195339551
H          124.43235093105108      104.59860680808357      100.27293787887508
H          126.01873802535769      103.86306843431313      100.50162899910396
H          126.37146293872910      106.21574322115640      100.36579027240118
H          126.60760277455469      105.77533652090140      102.05492879573438
H          124.32894905891595      106.61317813458123      102.59640387186927
H          124.05114744987465      106.95203305791455      100.88748921355590
H          125.94793806402055      108.57993079608094      100.92175123015583
H          126.22048267685673      108.21755478884521      102.61901902572923
H          125.00341741155918      110.29876906666533      102.42582600392414
H          123.99317983536092      109.08192811496050      103.20982651111871
H          122.68546470005909      110.41214812785358      101.67638025176377
H          122.72553409233383      108.74431140584313      101.12739820629386
H          124.43362518764638      109.32649989009994       99.42494407200715
H          124.47150856313559      110.98801166519875      100.01457493843810
H          122.08914528708758      111.27028663245657       99.38003483142091
H          122.02103513920241      109.58408143605874       98.86931959696111
H          123.80377891537991      110.08967702789138       97.15243449909626
H          123.74734447543884      111.77885776236121       97.64982907057592
H          122.37898992181167      111.66111190146258       95.71615418574578
H          121.24965488509389      111.74702282068620       97.06827003470642
H          120.94103651106464      109.27769149110902       96.95605648870630
H          122.08298035693844      109.19422925258289       95.61726756932264
H          120.58918902746322      110.61938485035427       94.24161532688471
H          119.47018771160303      110.76830122962510       95.59556287713455
H          119.14720106058112      108.27868710481772       95.56577217427774
H          120.18201188062298      108.18584334011560       94.14035118790643
H          118.59605395134800      109.70380948971705       92.93063538361868
H          117.56266296739116      109.73488010942040       94.35991302877588
H          117.26345019251939      107.26407862779510       94.18388701845450
H          118.28541750736549      107.25203622617778       92.74236832386595
H          116.67892056136212      108.87518454897537       91.66616479917754
H          115.60983897458580      108.67677069215547       93.05339585622852
H          116.51635596304922      106.37241356412490       91.27818975918063
H          115.04928678871924      107.30467271614424       90.99589848515859
H          114.19883516154634      106.65005076681958       93.24321435852156
H          115.62877514676890      105.64835288826745       93.48715735996340
H          115.03810015922721      104.29850330749213       91.49248870230271
H          113.62602984818847      105.31367182942772       91.21140233043505
H          112.68981040051473      104.63093855197236       93.40970209852786
H          114.10274825068009      103.61963602933440       93.70173265009716
H          113.53853863937215      102.25902235556336       91.68961949537642
H          112.11645057043572      103.26133118057506       91.41389618963476
H          111.22458715360450      102.60129218740221       93.64676108158443
H          112.64631883197823      101.59697309754965       93.91383961099730
H          112.02752016502784      100.20750750366589       91.93403717836907
H          110.59351651595802      101.20155105783591       91.69254715700100
H          109.78743556835093      100.57556963602453       93.97235436832656
H          111.21135030203358       99.56311981548383       94.19149785590716
H          110.51002199733718       98.15173735015460       92.26477878541904
H          109.09740128999543       99.17641458173850       92.02594860021307
H          108.29125863713216       98.59609564918057       94.31156448119758
H          109.69622442801315       97.55508359570705       94.53814550949126
H          108.96266563482254       96.08684359982124       92.71116740452746
H          107.67294059157845       97.20894687293402       92.28763239844372
H          106.64609076802506       95.41745956964877       93.46560600497718
H          106.63432814588840       96.81508996716386       94.54216268023417
H          108.55485440742545       95.89582717559492       95.79110198805196
H          108.64840983995063       94.52767348551293       94.68170220809236
H          106.44686257695015       93.73425117194716       95.39191529984262
H          106.17372469747950       95.20223478135443       96.32537344059870
H          108.03932814700366       94.62149544324379       97.83392155798234
H          108.33526653170465       93.13705380201296       96.92498537525309
H          106.09628222314490       92.29816622940065       97.48619832581677
H          105.69386211765452       93.81096620750854       98.29152350099221
H          107.88340867487304       91.89170109774038       99.20151248593349
H          106.24990633712271       91.96747940064215       99.85664858844652
H          106.72465767979824       94.44833110953282      100.38341117605520
H          108.41904030743443       94.08737476824042      100.06054558004365
H          108.34611491443783       92.29778878538437      101.81743941290158
H          106.66992508169980       92.72986369084018      102.15317882265768
H          107.37904942771833       95.04386218800296      102.71820344002609
H          109.05111478511887       94.61985781636612      102.36610733482247
H          108.76436272997647       94.62938125178651      104.73552385898068
H          109.00354250742782       92.95774191481004      104.23766570265437
H          106.68161906236871       92.42298685503089      104.58991165154880
H          106.22755630478994       94.12544088877890      104.64832755559826
H          107.47263860733500       94.41978329915354      106.75406951554484
H          107.98836017476098       92.73672779434128      106.71729128921933
H          105.70768267841318       91.95153377810682      107.00988957545142
H          105.05576316309710       93.56010696119681      106.71675246633717
H          106.09525393566649       94.39476425758737      108.80062825488004
H          106.80387564897285       92.80972006423322      109.10326665393457
H          104.56535075370708       91.80374871987397      109.29322822996303
H          103.80628075184124       93.33543684341304      108.86969138587280
H          104.68312881158815       94.37864266232855      110.92411636143213
H          105.54501367408177       92.89798036240377      111.33666681129155
H          103.39770502848705       91.66408990576195      111.44659669046685
H          102.51418922891823       93.13336294221915      111.05487194995574
H          104.31485372617868       92.84784287790553      113.49456358733525
H          102.60071469483889       92.44778589870418      113.51789176303548
H          103.70399253759088       95.21235194089724      112.85776519791774
H          103.14692362932742       94.69098054226987      114.44329671034532
H          100.88471329645213       94.18921756382721      113.41828149461385
H          101.45048177726447       94.94389217363722      111.92774310519177
H          101.92793838832449       97.04423405089706      113.19115412486039
H          101.30093376085129       96.29660851686033      114.65418491083547
H           99.07427334450645       96.07972631201741      113.65316185740235
H           99.67135176285854       96.67272541223882      112.10467429698323
H          100.17447277515544       98.86266701817766      113.06858339521357
H           99.76331954532215       98.29250939423009      114.68585663116444
H           97.41919513721376       97.96786215530223      114.02100206493812
H           97.79384941767960       98.42664960736641      112.36119976221556
H           98.40275275633152      100.69540353428755      113.07730834317793
H           98.19067326771734      100.25223274718789      114.77188936385738
H           95.79382300155274       99.87839072667506      114.42801846258021
H           95.95423409496290      100.17931334948764      112.69897676155364
H           96.58923198357807      102.50695237890274      113.10608902259118
H           96.63675354010539      102.23041473134080      114.84786726707986
H           94.24324292126536      101.81075829234670      114.91830573549659
H           94.11335755624151      101.91686778999885      113.16447195416904
H           95.22284443528444      104.24241586310238      114.75559982950735
H           93.48166043811295      104.00589589407964      114.65300753000935
H           93.48883794579993      104.24407731665018      112.25501108891939
H           95.24950387765348      104.18250193060290      112.18632485357011
H           95.45931826113925      106.30354681522469      113.32685560222082
H           93.72930286743782      106.37023972917407      113.66114414982667
H           93.19565352616759      106.69773825119223      111.33048467567866
H           94.82422769746299      106.27039233144200      110.82182041046032
H           95.73285295700525      108.28931073068210      111.92055872848056
H           94.11842033855609      108.73145190084264      112.47978590593847
H           93.34444301050318      108.94874673838942      110.14292496100192
H           94.91914767446488      108.42632516419297      109.55047053807064
H           95.98896532926230      110.41895246362952      110.52564580440227
H           94.45264110107509      110.93400237341190      111.22446521961979
H           93.46654795384089      111.08297893989733      108.94701391856928
H           95.01111088987346      110.61292770752429      108.24238713907212
H           94.58306471105486      113.10684701752446      109.94297663083660
H           94.51495426590635      113.07496737585487      108.18149756201865
H           96.88417073936782      112.08854350480090      108.23642138525416
H           96.94581512121978      112.56657608203977      109.93437998916724
H           96.39297758931765      114.45711854249889      107.60576448702696
H           97.97204921682821      114.20384600494090      108.34369771186127
H           97.11213909387524      115.04731935455929      110.51175479714865
H           95.51683540869058      115.27122827045909      109.79586610932469
H           96.57239130483896      117.41409399570882      109.83372785804931
H           96.50910098542928      116.88857537547925      108.15322505983353
H           98.90213396327600      116.19265779263021      108.29236054591101
H           98.94510634895376      116.70555319206110      109.97946183064187
H           98.46383689338970      119.03914430620925      109.28680662082229
H           98.35636745896679      118.52462861838711      107.60344172696884
H          100.72866819822835      117.71415428718642      107.73392630676156
H          100.82477964736944      118.33309811455520      109.38203324497803
H          100.38106144629974      120.63754371867546      108.53192923457460
H          100.27940369863683      120.00356766693626      106.88941633892483
H          102.63399939140037      119.12297985119777      107.14756030009536
H          102.72838815326908      119.93837903327727      108.70607419539833
H          102.34582793007606      122.12420216073824      107.59011807880346
H          102.19808486893541      121.31189152197426      106.03389742450999
H          104.53546061589758      120.48523868937872      106.23232274455349
H          104.69808434952347      121.29616754072283      107.78719481616744
H          104.31349730507009      123.48598926901084      106.71205071169544
H          104.07567049981219      122.70708284611756      105.15370561606396
H          106.37460666649939      123.63499813814514      105.35576308381997
H          106.66521016882636      122.62921632667954      106.77520185102020
H          106.42554710891375      121.88134331744925      105.20048958130522
H          102.01290389077131      119.19254124107529      116.71961346717872
H          103.43548937849525      120.09685035849881      117.23948138318073
H          102.73993574450581      120.38275783688083      115.64312352042532
C          111.77715485076166      100.76997207061606      114.86100646076754
C          110.60096949016319       99.93125129582401      115.34198887496703
C          110.05450471964595      100.41657105623074      116.68168447326487
C          108.74926197055271       99.71554386932353      117.04355962603616
C          108.23691753376966      100.09684371251900      118.43114819752492
C          106.77438935578623       99.70033025507725      118.61116772283874
C          106.26609709404840       99.91381377927992      120.03349957004873
C          104.76028060970748       99.68521203768496      120.13138955008674
C          104.24121497999953       99.80376143212710      121.56140042543315
C          102.72714533385856       99.62454497705968      121.63546307438394
C          102.18675800249166       99.80050084515939      123.05297391893598
C          100.66031328328999       99.80126375682457      123.07009553817851
C          100.05175110779146       99.89635398162358      124.46999287150709
C          100.46407203941153      101.13142767518056      125.27513332966122
C          100.19530761738031      102.45289285917387      124.55804866410750
C          100.36265166784935      103.65186824894062      125.49091000499648
C          100.40721603000067      104.96720200329639      124.71841980993622
C          100.43668623119036      106.19394804125498      125.62801788332689
C          100.57092518978681      107.48052801126215      124.81600926222313
C          100.41054077899825      108.74120487080667      125.66236555813310
C          100.63361415010525      110.03280252144724      124.87121752976230