      -----------------------------------------------------------      
     |                   =====================                   |     
     |                           x T B                           |     
     |                   =====================                   |     
     |                         S. Grimme                         |     
     |          Mulliken Center for Theoretical Chemistry        |     
     |                    University of Bonn                     |     
      -----------------------------------------------------------      

   * xtb version 6.6.1 (8d0f1dd) compiled by 'stahn@M-Bot' on 2023-08-01

   xtb is free software: you can redistribute it and/or modify it under
   the terms of the GNU Lesser General Public License as published by
   the Free Software Foundation, either version 3 of the License, or
   (at your option) any later version.
   
   xtb is distributed in the hope that it will be useful,
   but WITHOUT ANY WARRANTY; without even the implied warranty of
   MERCHANTABILITY or FITNESS FOR A PARTICULAR PURPOSE.  See the
   GNU Lesser General Public License for more details.
   
   Cite this work as:
   * C. Bannwarth, E. Caldeweyher, S. Ehlert, A. Hansen, P. Pracht,
     J. Seibert, S. Spicher, S. Grimme, WIREs Comput. Mol. Sci., 2020, 11,
     e01493. DOI: 10.1002/wcms.1493
   
   for GFN2-xTB:
   * C. Bannwarth, S. Ehlert and S. Grimme., J. Chem. Theory Comput., 2019,
     15, 1652-1671. DOI: 10.1021/acs.jctc.8b01176
   for GFN1-xTB:
   * S. Grimme, C. Bannwarth, P. Shushkov, J. Chem. Theory Comput., 2017,
     13, 1989-2009. DOI: 10.1021/acs.jctc.7b00118
   for GFN0-xTB:
   * P. Pracht, E. Caldeweyher, S. Ehlert, S. Grimme, ChemRxiv, 2019, preprint.
     DOI: 10.26434/chemrxiv.8326202.v1
   for GFN-FF:
   * S. Spicher and S. Grimme, Angew. Chem. Int. Ed., 2020, 59, 15665-15673.
     DOI: 10.1002/anie.202004239
   
   for ALPB and GBSA implicit solvation:
   * S. Ehlert, M. Stahn, S. Spicher, S. Grimme, J. Chem. Theory Comput.,
     2021, 17, 4250-4261. DOI: 10.1021/acs.jctc.1c00471
   
   for DFT-D4:
   * E. Caldeweyher, C. Bannwarth and S. Grimme, J. Chem. Phys., 2017,
     147, 034112. DOI: 10.1063/1.4993215
   * E. Caldeweyher, S. Ehlert, A. Hansen, H. Neugebauer, S. Spicher,
     C. Bannwarth and S. Grimme, J. Chem. Phys., 2019, 150, 154122.
     DOI: 10.1063/1.5090222
   * E. Caldeweyher, J.-M. Mewes, S. Ehlert and S. Grimme, Phys. Chem. Chem. Phys.
     2020, 22, 8499-8512. DOI: 10.1039/D0CP00502A
   
   for sTDA-xTB:
   * S. Grimme and C. Bannwarth, J. Chem. Phys., 2016, 145, 054103.
     DOI: 10.1063/1.4959605
   
   in the mass-spec context:
   * V. Asgeirsson, C. Bauer and S. Grimme, Chem. Sci., 2017, 8, 4879.
     DOI: 10.1039/c7sc00601b
   * J. Koopman and S. Grimme, ACS Omega 2019, 4, 12, 15120-15133.
     DOI: 10.1021/acsomega.9b02011
   
   for metadynamics refer to:
   * S. Grimme, J. Chem. Theory Comput., 2019, 155, 2847-2862
     DOI: 10.1021/acs.jctc.9b00143
   
   for SPH calculations refer to:
   * S. Spicher and S. Grimme, J. Chem. Theory Comput., 2021, 17, 1701-1714
     DOI: 10.1021/acs.jctc.0c01306
   
   with help from (in alphabetical order)
   P. Atkinson, C. Bannwarth, F. Bohle, G. Brandenburg, E. Caldeweyher
   M. Checinski, S. Dohm, S. Ehlert, S. Ehrlich, I. Gerasimov, C. Hölzer
   A. Katbashev, J. Koopman, C. Lavigne, S. Lehtola, F. März, M. Müller,
   F. Musil, H. Neugebauer, J. Pisarek, C. Plett, P. Pracht, F. Pultar,
   J. Seibert, P. Shushkov, S. Spicher, M. Stahn, M. Steiner, T. Strunk,
   J. Stückrath, T. Rose, and J. Unsleber
   
 * started run on 2024/10/03 at 21:21:22.737     

           -------------------------------------------------
          |                Calculation Setup                |
           -------------------------------------------------

          program call               : /home/abt-grimme/AK-bin/xtb input.xyz --input input.inp --opt
          hostname                   : boar067.thch.uni-bonn.de
          coordinate file            : input.xyz
          omp threads                :                     8

   ID    Z sym.   atoms
    1    6 C      1-120, 363-482, 725-844, 1087-1206, 1449-1568, 1811-1930,
                  2173-2292, 2535-2654, 2897-3016
    2    1 H      121-362, 483-724, 845-1086, 1207-1448, 1569-1810,
                  1931-2172, 2293-2534, 2655-2896, 3017-3258

molecular fragmentation (1/2 indicates fragments):
111111111111111111111111111111111111111111111111111111111111111111111111
111111111111111111111111111111111111111111111111111111111111111111111111
111111111111111111111111111111111111111111111111111111111111111111111111
111111111111111111111111111111111111111111111111111111111111111111111111
111111111111111111111111111111111111111111111111111111111111111111111111
112222222222222222222222222222222222222222222222222222222222222222222222
222222222222222222222222222222222222222222222222222222222222222222222222
222222222222222222222222222222222222222222222222222222222222222222222222
222222222222222222222222222222222222222222222222222222222222222222222222
222222222222222222222222222222222222222222222222222222222222222222222222
222222222222222222222222222222222222222222222222222222222222222222222222
222222222222222222222222222222222222222222222222222222222222222222222222
222222222222222222222222222222222222222222222222222222222222222222222222
222222222222222222222222222222222222222222222222222222222222222222222222
222222222222222222222222222222222222222222222222222222222222222222222222
222222222222222222222222222222222222222222222222222222222222222222222222
222222222222222222222222222222222222222222222222222222222222222222222222
222222222222222222222222222222222222222222222222222222222222222222222222
222222222222222222222222222222222222222222222222222222222222222222222222
222222222222222222222222222222222222222222222222222222222222222222222222
222222222222222222222222222222222222222222222222222222222222222222222222
222222222222222222222222222222222222222222222222222222222222222222222222
222222222222222222222222222222222222222222222222222222222222222222222222
222222222222222222222222222222222222222222222222222222222222222222222222
222222222222222222222222222222222222222222222222222222222222222222222222
222222222222222222222222222222222222222222222222222222222222222222222222
222222222222222222222222222222222222222222222222222222222222222222222222
222222222222222222222222222222222222222222222222222222222222222222222222
222222222222222222222222222222222222222222222222222222222222222222222222
222222222222222222222222222222222222222222222222222222222222222222222222
222222222222222222222222222222222222222222222222222222222222222222222222
222222222222222222222222222222222222222222222222222222222222222222222222
222222222222222222222222222222222222222222222222222222222222222222222222
222222222222222222222222222222222222222222222222222222222222222222222222
222222222222222222222222222222222222222222222222222222222222222222222222
222222222222222222222222222222222222222222222222222222222222222222222222
222222222222222222222222222222222222222222222222222222222222222222222222
222222222222222222222222222222222222222222222222222222222222222222222222
222222222222222222222222222222222222222222222222222222222222222222222222
222222222222222222222222222222222222222222222222222222222222222222222222
222222222222222222222222222222222222222222222222222222222222222222222222
222222222222222222222222222222222222222222222222222222222222222222222222
222222222222222222222222222222222222222222222222222222222222222222222222
222222222222222222222222222222222222222222222222222222222222222222222222
222222222222222222222222222222222222222222222222222222222222222222222222
222222222222222222
# atoms in fragment 1/2:   362  2896
 fragment masses (1/2) :     1685.21    13481.68
CMA distance (Bohr)    :  14.602
constraining FC (au)   :  0.0500

           -------------------------------------------------
          |                 G F N 2 - x T B                 |
           -------------------------------------------------

        Reference                      10.1021/acs.jctc.8b01176
      * Hamiltonian:
        H0-scaling (s, p, d)           1.850000    2.230000    2.230000
        zeta-weighting                 0.500000
      * Dispersion:
        s8                             2.700000
        a1                             0.520000
        a2                             5.000000
        s9                             5.000000
      * Repulsion:
        kExp                           1.500000    1.000000
        rExp                           1.000000
      * Coulomb:
        alpha                          2.000000
        third order                    shell-resolved
        anisotropic                    true
        a3                             3.000000
        a5                             4.000000
        cn-shift                       1.200000
        cn-exp                         4.000000
        max-rad                        5.000000


          ...................................................
          :                      SETUP                      :
          :.................................................:
          :  # basis functions                6498          :
          :  # atomic orbitals                6498          :
          :  # shells                         4338          :
          :  # electrons                      6498          :
          :  max. iterations                   250          :
          :  Hamiltonian                  GFN2-xTB          :
          :  restarted?                      false          :
          :  GBSA solvation                  false          :
          :  PC potential                    false          :
          :  electronic temp.          300.0000000     K    :
          :  accuracy                    1.0000000          :
          :  -> integral cutoff          0.2500000E+02      :
          :  -> integral neglect         0.1000000E-07      :
          :  -> SCF convergence          0.1000000E-05 Eh   :
          :  -> wf. convergence          0.1000000E-03 e    :
          :  Broyden damping             0.4000000          :
          ...................................................

 iter      E             dE          RMSdq      gap      omega  full diag
   1  -3473.4057694 -0.347341E+04  0.244E+00   11.41       0.0  T
   2  -3478.5059288 -0.510016E+01  0.135E+00   11.51       1.0  T
   3  -3478.7096476 -0.203719E+00  0.597E-01   11.47       1.0  T
   4  -3478.7301886 -0.205410E-01  0.755E-02   11.51       1.0  T
   5  -3478.7311604 -0.971788E-03  0.393E-02   11.51       1.0  T
   6  -3478.7313642 -0.203789E-03  0.632E-03   11.51       1.0  T
   7  -3478.7313804 -0.162819E-04  0.124E-03   11.51       1.4  T
   8  -3478.7313815 -0.107924E-05  0.393E-04   11.51       4.5  T
   9  -3478.7313816 -0.638274E-07  0.143E-04   11.51      12.3  T
  10  -3478.7313816 -0.396858E-08  0.430E-05   11.51      40.7  T

   *** convergence criteria satisfied after 10 iterations ***

         #    Occupation            Energy/Eh            Energy/eV
      -------------------------------------------------------------
         1        2.0000           -0.6250156             -17.0075
       ...           ...                  ...                  ...
      3243        2.0000           -0.4022774             -10.9465
      3244        2.0000           -0.4022155             -10.9448
      3245        2.0000           -0.4021703             -10.9436
      3246        2.0000           -0.4021091             -10.9419
      3247        2.0000           -0.4019572             -10.9378
      3248        2.0000           -0.4017320             -10.9317
      3249        2.0000           -0.4015212             -10.9259 (HOMO)
      3250                          0.0215307               0.5859 (LUMO)
      3251                          0.0216688               0.5896
      3252                          0.0234728               0.6387
      3253                          0.0242538               0.6600
      3254                          0.0260324               0.7084
       ...                                ...                  ...
      6498                          0.3816578              10.3854
      -------------------------------------------------------------
                  HL-Gap            0.4230519 Eh           11.5118 eV
             Fermi-level           -0.1899953 Eh           -5.1700 eV

 SCC (total)                   0 d,  0 h, 14 min, 15.099 sec
 SCC setup                      ...        0 min,  0.439 sec (  0.051%)
 Dispersion                     ...        0 min,  3.548 sec (  0.415%)
 classical contributions        ...        0 min,  0.146 sec (  0.017%)
 integral evaluation            ...        0 min,  5.962 sec (  0.697%)
 iterations                     ...       10 min,  0.308 sec ( 70.203%)
 molecular gradient             ...        3 min, 56.126 sec ( 27.614%)
 printout                       ...        0 min,  8.569 sec (  1.002%)

         :::::::::::::::::::::::::::::::::::::::::::::::::::::
         ::                     SUMMARY                     ::
         :::::::::::::::::::::::::::::::::::::::::::::::::::::
         :: total energy           -3427.486172143723 Eh    ::
         :: gradient norm              0.018296686245 Eh/a0 ::
         :: HOMO-LUMO gap             11.511827442343 eV    ::
         ::.................................................::
         :: SCC energy             -3478.731381590116 Eh    ::
         :: -> isotropic ES            0.420897809165 Eh    ::
         :: -> anisotropic ES          1.116839269355 Eh    ::
         :: -> anisotropic XC          1.945882755398 Eh    ::
         :: -> dispersion             -4.026434249534 Eh    ::
         :: repulsion energy          50.606045364271 Eh    ::
         :: add. restraining           0.000000000000 Eh    ::
         :: total charge              -0.000000000016 e     ::
         :::::::::::::::::::::::::::::::::::::::::::::::::::::

      ----------------------------------------------------------- 
     |              Fast Inertial Relaxation Engine              |
      ----------------------------------------------------------- 

          ...................................................
          :                      SETUP                      :
          :.................................................:
          :   energy convergence        0.5000000E-05 Eh    :
          :   grad. convergence         0.1000000E-02 Eh/a0 :
          :   optimization log               true           :
          :   writing optlog all                1     steps :
          :   Hessian reset                    20     steps :
          :   time step scaling                 5     steps :
          :   maximium step len.        1.0000000     a0    :
          :   initial time step         0.2500000     fs    :
          :   maximum time step         1.2500000     fs    :
          :   power reset thr           0.0000000     au    :
          :   alpha parameter           0.1000000           :
          :   BFGS update                   false           :
          :   preconditioning               false           :
          ...................................................

........................................................................
.............................. CYCLE    1 ..............................
........................................................................

 iter      E             dE          RMSdq      gap      omega  full diag
   1  -3478.7349662 -0.347873E+04  0.265E-04   11.51       0.0  T
   2  -3478.7349663 -0.283812E-07  0.151E-04   11.51      11.6  T
   3  -3478.7349663 -0.561613E-09  0.490E-05   11.51      35.8  T
     SCC iter.                  ...        3 min,  4.964 sec
     gradient                   ...        3 min, 54.439 sec
 * total energy  : -3427.4862098 Eh     change    :  -0.3761814E-04 Eh
   gradient norm :     0.0168171 Eh/a0  converged?    E=F G=F D=F
   time step     :     0.2500000 fs     power     :   0.1913608E-08
   step length   :     0.0021443 a0     speed     :   0.2074757E-03

........................................................................
.............................. CYCLE    2 ..............................
........................................................................

 iter      E             dE          RMSdq      gap      omega  full diag
   1  -3478.7401833 -0.347874E+04  0.384E-04   11.51       0.0  T
   2  -3478.7401833 -0.594700E-07  0.218E-04   11.51       8.0  T
   3  -3478.7401833 -0.128375E-08  0.709E-05   11.51      24.7  T
     SCC iter.                  ...        2 min, 57.389 sec
     gradient                   ...        3 min, 55.972 sec
 * total energy  : -3427.4862590 Eh     change    :  -0.4928378E-04 Eh
   gradient norm :     0.0146888 Eh/a0  converged?    E=F G=F D=F
   time step     :     0.2500000 fs     power     :   0.2436689E-08
   step length   :     0.0031296 a0     speed     :   0.3028073E-03

........................................................................
.............................. CYCLE    3 ..............................
........................................................................

 iter      E             dE          RMSdq      gap      omega  full diag
   1  -3478.7468035 -0.347875E+04  0.488E-04   11.51       0.0  T
   2  -3478.7468036 -0.955652E-07  0.278E-04   11.51       6.3  T
   3  -3478.7468036 -0.203909E-08  0.898E-05   11.51      19.5  T
     SCC iter.                  ...        3 min,  3.062 sec
     gradient                   ...        3 min, 55.093 sec
 * total energy  : -3427.4863122 Eh     change    :  -0.5315178E-04 Eh
   gradient norm :     0.0120305 Eh/a0  converged?    E=F G=F D=F
   time step     :     0.2500000 fs     power     :   0.2533540E-08
   step length   :     0.0039892 a0     speed     :   0.3859800E-03

........................................................................
.............................. CYCLE    4 ..............................
........................................................................

 iter      E             dE          RMSdq      gap      omega  full diag
   1  -3478.7545312 -0.347875E+04  0.572E-04   11.51       0.0  T
   2  -3478.7545314 -0.129758E-06  0.326E-04   11.51       5.4  T
   3  -3478.7545314 -0.287764E-08  0.104E-04   11.51      16.8  T
     SCC iter.                  ...        3 min,  6.327 sec
     gradient                   ...        3 min, 54.927 sec
 * total energy  : -3427.4863611 Eh     change    :  -0.4890755E-04 Eh
   gradient norm :     0.0090315 Eh/a0  converged?    E=F G=F D=F
   time step     :     0.2500000 fs     power     :   0.2201437E-08
   step length   :     0.0046896 a0     speed     :   0.4537471E-03

........................................................................
.............................. CYCLE    5 ..............................
........................................................................

 iter      E             dE          RMSdq      gap      omega  full diag
   1  -3478.7630023 -0.347876E+04  0.631E-04   11.51       0.0  T
   2  -3478.7630025 -0.154922E-06  0.360E-04   11.51       4.9  T
   3  -3478.7630025 -0.348473E-08  0.114E-04   11.51      15.4  T
     SCC iter.                  ...        2 min, 59.983 sec
     gradient                   ...        3 min, 55.322 sec
 * total energy  : -3427.4863986 Eh     change    :  -0.3749559E-04 Eh
   gradient norm :     0.0060444 Eh/a0  converged?    E=F G=F D=F
   time step     :     0.2500000 fs     power     :   0.1516990E-08
   step length   :     0.0052021 a0     speed     :   0.5033300E-03

........................................................................
.............................. CYCLE    6 ..............................
........................................................................

 iter      E             dE          RMSdq      gap      omega  full diag
   1  -3478.7726597 -0.347877E+04  0.730E-04   11.51       0.0  T
   2  -3478.7726599 -0.199097E-06  0.417E-04   11.51       4.2  T
   3  -3478.7726599 -0.451018E-08  0.128E-04   11.51      13.7  T
     SCC iter.                  ...        2 min, 57.841 sec
     gradient                   ...        3 min, 55.696 sec
 * total energy  : -3427.4864214 Eh     change    :  -0.2282176E-04 Eh
   gradient norm :     0.0039287 Eh/a0  converged?    E=F G=F D=F
   time step     :     0.2750000 fs     power     :   0.5396639E-09
   step length   :     0.0060741 a0     speed     :   0.5342736E-03

........................................................................
.............................. CYCLE    7 ..............................
........................................................................

 iter      E             dE          RMSdq      gap      omega  full diag
   1  -3478.7824604 -0.347878E+04  0.774E-04   11.51       0.0  T
   2  -3478.7824606 -0.199506E-06  0.444E-04   11.51       3.9  T
   3  -3478.7824606 -0.476984E-08  0.125E-04   11.51      14.0  T
     SCC iter.                  ...        3 min,  3.848 sec
     gradient                   ...        3 min, 55.902 sec
 * total energy  : -3427.4864244 Eh     change    :  -0.2996828E-05 Eh
   gradient norm :     0.0050284 Eh/a0  converged?    E=T G=F D=F
   time step     :     0.3025000 fs     power     :  -0.4022185E-09
   step length   :     0.0065477 a0     speed     :   0.5235745E-03

........................................................................
.............................. CYCLE    8 ..............................
........................................................................
 * reset velocities

 iter      E             dE          RMSdq      gap      omega  full diag
   1  -3478.7823380 -0.347878E+04  0.136E-05   11.51       0.0  T
   2  -3478.7823380 -0.800355E-10  0.718E-06   11.51     244.0  T
   3  -3478.7823380  0.222826E-10  0.332E-06   11.51     527.1  T
     SCC iter.                  ...        2 min, 57.464 sec
     gradient                   ...        3 min, 54.964 sec
 * total energy  : -3427.4864250 Eh     change    :  -0.5402858E-06 Eh
   gradient norm :     0.0049667 Eh/a0  converged?    E=T G=F D=T
   time step     :     0.1512500 fs     power     :   0.4699422E-10
   step length   :     0.0001079 a0     speed     :   0.1724840E-04

........................................................................
.............................. CYCLE    9 ..............................
........................................................................

 iter      E             dE          RMSdq      gap      omega  full diag
   1  -3478.7820950 -0.347878E+04  0.269E-05   11.51       0.0  T
   2  -3478.7820950 -0.180989E-09  0.157E-05   11.51     111.7  T
   3  -3478.7820950 -0.322871E-10  0.391E-06   11.51     448.4  T
     SCC iter.                  ...        3 min,  0.237 sec
     gradient                   ...        3 min, 55.794 sec
 * total energy  : -3427.4864260 Eh     change    :  -0.1052586E-05 Eh
   gradient norm :     0.0048521 Eh/a0  converged?    E=T G=F D=T
   time step     :     0.1512500 fs     power     :   0.9124353E-10
   step length   :     0.0002144 a0     speed     :   0.3428497E-04

........................................................................
.............................. CYCLE   10 ..............................
........................................................................

 iter      E             dE          RMSdq      gap      omega  full diag
   1  -3478.7817370 -0.347878E+04  0.395E-05   11.51       0.0  T
   2  -3478.7817370 -0.457931E-09  0.230E-05   11.51      76.1  T
   3  -3478.7817370  0.682121E-10  0.578E-06   11.51     302.9  T
     SCC iter.                  ...        2 min, 59.976 sec
     gradient                   ...        3 min, 57.112 sec
 * total energy  : -3427.4864275 Eh     change    :  -0.1512465E-05 Eh
   gradient norm :     0.0046850 Eh/a0  converged?    E=T G=F D=T
   time step     :     0.1512500 fs     power     :   0.1308171E-09
   step length   :     0.0003184 a0     speed     :   0.5092664E-04

........................................................................
.............................. CYCLE   11 ..............................
........................................................................

 iter      E             dE          RMSdq      gap      omega  full diag
   1  -3478.7812716 -0.347878E+04  0.518E-05   11.51       0.0  T
   2  -3478.7812716 -0.691216E-09  0.302E-05   11.51      58.0  T
   3  -3478.7812716  0.636646E-11  0.754E-06   11.51     232.2  T
     SCC iter.                  ...        3 min,  0.386 sec
     gradient                   ...        3 min, 59.425 sec
 * total energy  : -3427.4864294 Eh     change    :  -0.1920421E-05 Eh
   gradient norm :     0.0044706 Eh/a0  converged?    E=T G=F D=T
   time step     :     0.1512500 fs     power     :   0.1640527E-09
   step length   :     0.0004189 a0     speed     :   0.6698950E-04

........................................................................
.............................. CYCLE   12 ..............................
........................................................................

 iter      E             dE          RMSdq      gap      omega  full diag
   1  -3478.7807098 -0.347878E+04  0.635E-05   11.51       0.0  T
   2  -3478.7807098 -0.105774E-08  0.370E-05   11.51      47.4  T
   3  -3478.7807098  0.254659E-10  0.913E-06   11.51     191.8  T
     SCC iter.                  ...        2 min, 59.196 sec
     gradient                   ...        3 min, 57.903 sec
 * total energy  : -3427.4864317 Eh     change    :  -0.2231493E-05 Eh
   gradient norm :     0.0042160 Eh/a0  converged?    E=T G=F D=T
   time step     :     0.1512500 fs     power     :   0.1897161E-09
   step length   :     0.0005146 a0     speed     :   0.8230122E-04

........................................................................
.............................. CYCLE   13 ..............................
........................................................................

 iter      E             dE          RMSdq      gap      omega  full diag
   1  -3478.7800651 -0.347878E+04  0.742E-05   11.51       0.0  T
   2  -3478.7800651 -0.130103E-08  0.433E-05   11.51      40.5  T
   3  -3478.7800651 -0.509317E-10  0.105E-05   11.51     166.4  T
     SCC iter.                  ...        3 min,  1.688 sec
     gradient                   ...        3 min, 57.430 sec
 * total energy  : -3427.4864341 Eh     change    :  -0.2453100E-05 Eh
   gradient norm :     0.0039308 Eh/a0  converged?    E=T G=F D=T
   time step     :     0.1512500 fs     power     :   0.2071015E-09
   step length   :     0.0006047 a0     speed     :   0.9670537E-04

........................................................................
.............................. CYCLE   14 ..............................
........................................................................

 iter      E             dE          RMSdq      gap      omega  full diag
   1  -3478.7792752 -0.347878E+04  0.933E-05   11.51       0.0  T
   2  -3478.7792753 -0.205864E-08  0.545E-05   11.51      32.2  T
   3  -3478.7792753 -0.413820E-10  0.130E-05   11.51     134.5  T
     SCC iter.                  ...        3 min,  3.310 sec
     gradient                   ...        3 min, 56.244 sec
 * total energy  : -3427.4864370 Eh     change    :  -0.2856360E-05 Eh
   gradient norm :     0.0035944 Eh/a0  converged?    E=T G=F D=T
   time step     :     0.1663750 fs     power     :   0.2164722E-09
   step length   :     0.0007663 a0     speed     :   0.1114060E-03

........................................................................
.............................. CYCLE   15 ..............................
........................................................................

 iter      E             dE          RMSdq      gap      omega  full diag
   1  -3478.7783391 -0.347878E+04  0.115E-04   11.51       0.0  T
   2  -3478.7783391 -0.305135E-08  0.672E-05   11.51      26.1  T
   3  -3478.7783391 -0.181899E-11  0.156E-05   11.51     112.2  T
     SCC iter.                  ...        2 min, 59.948 sec
     gradient                   ...        3 min, 55.570 sec
 * total energy  : -3427.4864402 Eh     change    :  -0.3181119E-05 Eh
   gradient norm :     0.0032216 Eh/a0  converged?    E=T G=F D=T
   time step     :     0.1830125 fs     power     :   0.2157022E-09
   step length   :     0.0009535 a0     speed     :   0.1260240E-03

........................................................................
.............................. CYCLE   16 ..............................
........................................................................

 iter      E             dE          RMSdq      gap      omega  full diag
   1  -3478.7772756 -0.347878E+04  0.138E-04   11.51       0.0  T
   2  -3478.7772756 -0.410864E-08  0.811E-05   11.51      21.6  T
   3  -3478.7772756 -0.118234E-09  0.180E-05   11.51      97.1  T
     SCC iter.                  ...        2 min, 58.280 sec
     gradient                   ...        3 min, 54.482 sec
 * total energy  : -3427.4864436 Eh     change    :  -0.3384837E-05 Eh
   gradient norm :     0.0028487 Eh/a0  converged?    E=T G=F D=F
   time step     :     0.2013138 fs     power     :   0.2038145E-09
   step length   :     0.0011655 a0     speed     :   0.1400419E-03

........................................................................
.............................. CYCLE   17 ..............................
........................................................................

 iter      E             dE          RMSdq      gap      omega  full diag
   1  -3478.7761378 -0.347878E+04  0.163E-04   11.51       0.0  T
   2  -3478.7761378 -0.513955E-08  0.954E-05   11.51      18.4  T
   3  -3478.7761378 -0.841283E-10  0.199E-05   11.51      88.2  T
     SCC iter.                  ...        3 min,  1.066 sec
     gradient                   ...        3 min, 56.572 sec
 * total energy  : -3427.4864470 Eh     change    :  -0.3425488E-05 Eh
   gradient norm :     0.0025422 Eh/a0  converged?    E=T G=F D=F
   time step     :     0.2214451 fs     power     :   0.1822871E-09
   step length   :     0.0013986 a0     speed     :   0.1527705E-03

........................................................................
.............................. CYCLE   18 ..............................
........................................................................

 iter      E             dE          RMSdq      gap      omega  full diag
   1  -3478.7750309 -0.347878E+04  0.185E-04   11.51       0.0  T
   2  -3478.7750309 -0.568843E-08  0.109E-04   11.51      16.1  T
   3  -3478.7750309 -0.110958E-09  0.204E-05   11.51      85.9  T
     SCC iter.                  ...        3 min,  3.375 sec
     gradient                   ...        3 min, 57.608 sec
 * total energy  : -3427.4864503 Eh     change    :  -0.3301712E-05 Eh
   gradient norm :     0.0023852 Eh/a0  converged?    E=T G=F D=F
   time step     :     0.2435896 fs     power     :   0.1564207E-09
   step length   :     0.0016449 a0     speed     :   0.1633452E-03

........................................................................
.............................. CYCLE   19 ..............................
........................................................................

 iter      E             dE          RMSdq      gap      omega  full diag
   1  -3478.7741203 -0.347877E+04  0.205E-04   11.51       0.0  T
   2  -3478.7741203 -0.529826E-08  0.121E-04   11.51      14.5  T
   3  -3478.7741203 -0.132786E-09  0.190E-05   11.51      92.2  T
     SCC iter.                  ...        3 min,  0.301 sec
     gradient                   ...        3 min, 56.913 sec
 * total energy  : -3427.4864535 Eh     change    :  -0.3210077E-05 Eh
   gradient norm :     0.0024076 Eh/a0  converged?    E=T G=F D=F
   time step     :     0.2679486 fs     power     :   0.1350912E-09
   step length   :     0.0018944 a0     speed     :   0.1710163E-03

........................................................................
.............................. CYCLE   20 ..............................
........................................................................

 iter      E             dE          RMSdq      gap      omega  full diag
   1  -3478.7736093 -0.347877E+04  0.220E-04   11.51       0.0  T
   2  -3478.7736093 -0.406862E-08  0.130E-04   11.51      13.5  T
   3  -3478.7736093 -0.959517E-10  0.161E-05   11.51     108.8  T
     SCC iter.                  ...        3 min,  1.777 sec
     gradient                   ...        3 min, 54.713 sec
 * total energy  : -3427.4864567 Eh     change    :  -0.3241086E-05 Eh
   gradient norm :     0.0025246 Eh/a0  converged?    E=T G=F D=F
   time step     :     0.2947435 fs     power     :   0.1266405E-09
   step length   :     0.0021454 a0     speed     :   0.1760713E-03
 * RMSD in coord.:     0.0005466 a0     energy gain  -0.2845865E-03 Eh

........................................................................
.............................. CYCLE   21 ..............................
........................................................................

 iter      E             dE          RMSdq      gap      omega  full diag
   1  -3478.7736431 -0.347877E+04  0.178E-04   11.51       0.0  T
   2  -3478.7736431 -0.162163E-08  0.105E-04   11.51      16.6  T
   3  -3478.7736431 -0.427463E-10  0.104E-05   11.51     168.3  T
     SCC iter.                  ...        3 min,  7.902 sec
     gradient                   ...        3 min, 55.593 sec
 * total energy  : -3427.4864595 Eh     change    :  -0.2743127E-05 Eh
   gradient norm :     0.0025749 Eh/a0  converged?    E=T G=F D=F
   time step     :     0.2500000 fs     power     :   0.1349073E-09
   step length   :     0.0018310 a0     speed     :   0.1771549E-03

........................................................................
.............................. CYCLE   22 ..............................
........................................................................

 iter      E             dE          RMSdq      gap      omega  full diag
   1  -3478.7741363 -0.347877E+04  0.174E-04   11.51       0.0  T
   2  -3478.7741363 -0.125692E-08  0.102E-04   11.51      17.2  T
   3  -3478.7741363 -0.545697E-11  0.100E-05   11.51     175.2  T
     SCC iter.                  ...        3 min,  2.622 sec
     gradient                   ...        3 min, 55.375 sec
 * total energy  : -3427.4864624 Eh     change    :  -0.2963335E-05 Eh
   gradient norm :     0.0025095 Eh/a0  converged?    E=T G=F D=F
   time step     :     0.2500000 fs     power     :   0.1480547E-09
   step length   :     0.0018494 a0     speed     :   0.1789427E-03

........................................................................
.............................. CYCLE   23 ..............................
........................................................................

 iter      E             dE          RMSdq      gap      omega  full diag
   1  -3478.7750481 -0.347878E+04  0.173E-04   11.51       0.0  T
   2  -3478.7750481 -0.158070E-08  0.101E-04   11.51      17.4  T
   3  -3478.7750481 -0.736691E-10  0.111E-05   11.51     158.5  T
     SCC iter.                  ...        3 min,  3.949 sec
     gradient                   ...        3 min, 55.055 sec
 * total energy  : -3427.4864656 Eh     change    :  -0.3170790E-05 Eh
   gradient norm :     0.0023153 Eh/a0  converged?    E=T G=F D=F
   time step     :     0.2500000 fs     power     :   0.1576668E-09
   step length   :     0.0018828 a0     speed     :   0.1821726E-03

........................................................................
.............................. CYCLE   24 ..............................
........................................................................

 iter      E             dE          RMSdq      gap      omega  full diag
   1  -3478.7763122 -0.347878E+04  0.176E-04   11.51       0.0  T
   2  -3478.7763122 -0.234240E-08  0.102E-04   11.51      17.2  T
   3  -3478.7763122 -0.164164E-09  0.130E-05   11.51     134.4  T
     SCC iter.                  ...        3 min,  0.605 sec
     gradient                   ...        3 min, 55.315 sec
 * total energy  : -3427.4864688 Eh     change    :  -0.3195592E-05 Eh
   gradient norm :     0.0020140 Eh/a0  converged?    E=T G=F D=F
   time step     :     0.2500000 fs     power     :   0.1573887E-09
   step length   :     0.0019299 a0     speed     :   0.1867285E-03

........................................................................
.............................. CYCLE   25 ..............................
........................................................................

 iter      E             dE          RMSdq      gap      omega  full diag
   1  -3478.7778383 -0.347878E+04  0.181E-04   11.51       0.0  T
   2  -3478.7778383 -0.342425E-08  0.104E-04   11.51      16.9  T
   3  -3478.7778383 -0.149157E-09  0.153E-05   11.51     114.4  T
     SCC iter.                  ...        3 min,  4.204 sec
     gradient                   ...        3 min, 55.678 sec
 * total energy  : -3427.4864718 Eh     change    :  -0.3007402E-05 Eh
   gradient norm :     0.0016634 Eh/a0  converged?    E=T G=F D=F
   time step     :     0.2500000 fs     power     :   0.1446314E-09
   step length   :     0.0019844 a0     speed     :   0.1920008E-03

........................................................................
.............................. CYCLE   26 ..............................
........................................................................

 iter      E             dE          RMSdq      gap      omega  full diag
   1  -3478.7796800 -0.347878E+04  0.201E-04   11.51       0.0  T
   2  -3478.7796800 -0.526416E-08  0.115E-04   11.51      15.2  T
   3  -3478.7796800 -0.113232E-09  0.189E-05   11.51      92.9  T
     SCC iter.                  ...        3 min,  5.237 sec
     gradient                   ...        3 min, 55.085 sec
 * total energy  : -3427.4864747 Eh     change    :  -0.2876430E-05 Eh
   gradient norm :     0.0013501 Eh/a0  converged?    E=T G=F D=F
   time step     :     0.2750000 fs     power     :   0.1186140E-09
   step length   :     0.0022501 a0     speed     :   0.1979200E-03

........................................................................
.............................. CYCLE   27 ..............................
........................................................................

 iter      E             dE          RMSdq      gap      omega  full diag
   1  -3478.7816444 -0.347878E+04  0.216E-04   11.51       0.0  T
   2  -3478.7816444 -0.612545E-08  0.123E-04   11.51      14.2  T
   3  -3478.7816444 -0.180535E-09  0.202E-05   11.51      86.7  T
     SCC iter.                  ...        3 min,  6.831 sec
     gradient                   ...        3 min, 56.262 sec
 * total energy  : -3427.4864771 Eh     change    :  -0.2454775E-05 Eh
   gradient norm :     0.0012916 Eh/a0  converged?    E=T G=F D=F
   time step     :     0.3025000 fs     power     :   0.8693699E-10
   step length   :     0.0025310 a0     speed     :   0.2023874E-03

........................................................................
.............................. CYCLE   28 ..............................
........................................................................

 iter      E             dE          RMSdq      gap      omega  full diag
   1  -3478.7833762 -0.347878E+04  0.216E-04   11.51       0.0  T
   2  -3478.7833762 -0.483533E-08  0.124E-04   11.51      14.2  T
   3  -3478.7833762 -0.215550E-09  0.174E-05   11.51     100.9  T
     SCC iter.                  ...        3 min,  4.100 sec
     gradient                   ...        3 min, 55.267 sec
 * total energy  : -3427.4864792 Eh     change    :  -0.2085249E-05 Eh
   gradient norm :     0.0015042 Eh/a0  converged?    E=T G=F D=F
   time step     :     0.3327500 fs     power     :   0.6581519E-10
   step length   :     0.0027769 a0     speed     :   0.2018616E-03

........................................................................
.............................. CYCLE   29 ..............................
........................................................................

 iter      E             dE          RMSdq      gap      omega  full diag
   1  -3478.7845390 -0.347878E+04  0.204E-04   11.51       0.0  T
   2  -3478.7845390 -0.231694E-08  0.118E-04   11.51      14.9  T
   3  -3478.7845390 -0.222826E-09  0.117E-05   11.51     150.2  T
     SCC iter.                  ...        3 min,  5.469 sec
     gradient                   ...        3 min, 55.795 sec
 * total energy  : -3427.4864813 Eh     change    :  -0.2086990E-05 Eh
   gradient norm :     0.0017142 Eh/a0  converged?    E=T G=F D=F
   time step     :     0.3660250 fs     power     :   0.6440850E-10
   step length   :     0.0029834 a0     speed     :   0.1971616E-03

........................................................................
.............................. CYCLE   30 ..............................
........................................................................

 iter      E             dE          RMSdq      gap      omega  full diag
   1  -3478.7849104 -0.347878E+04  0.193E-04   11.51       0.0  T
   2  -3478.7849104 -0.101863E-08  0.112E-04   11.51      15.6  T
   3  -3478.7849104 -0.160981E-09  0.826E-06   11.51     212.2  T
     SCC iter.                  ...        3 min,  2.429 sec
     gradient                   ...        3 min, 56.857 sec
 * total energy  : -3427.4864839 Eh     change    :  -0.2548359E-05 Eh
   gradient norm :     0.0017246 Eh/a0  converged?    E=T G=F D=F
   time step     :     0.4026275 fs     power     :   0.7600415E-10
   step length   :     0.0032123 a0     speed     :   0.1929850E-03

........................................................................
.............................. CYCLE   31 ..............................
........................................................................

 iter      E             dE          RMSdq      gap      omega  full diag
   1  -3478.7843905 -0.347878E+04  0.193E-04   11.51       0.0  T
   2  -3478.7843905 -0.236287E-08  0.114E-04   11.51      15.4  T
   3  -3478.7843905 -0.786713E-10  0.108E-05   11.51     161.8  T
     SCC iter.                  ...        3 min,  1.132 sec
     gradient                   ...        3 min, 55.117 sec
 * total energy  : -3427.4864870 Eh     change    :  -0.3140377E-05 Eh
   gradient norm :     0.0014968 Eh/a0  converged?    E=T G=F D=F
   time step     :     0.4428903 fs     power     :   0.8461128E-10
   step length   :     0.0035198 a0     speed     :   0.1922396E-03

........................................................................
.............................. CYCLE   32 ..............................
........................................................................

 iter      E             dE          RMSdq      gap      omega  full diag
   1  -3478.7830852 -0.347878E+04  0.204E-04   11.51       0.0  T
   2  -3478.7830852 -0.589762E-08  0.121E-04   11.51      14.5  T
   3  -3478.7830852 -0.145064E-09  0.185E-05   11.51      94.9  T
     SCC iter.                  ...        3 min,  3.705 sec
     gradient                   ...        3 min, 55.953 sec
 * total energy  : -3427.4864904 Eh     change    :  -0.3354590E-05 Eh
   gradient norm :     0.0012213 Eh/a0  converged?    E=T G=F D=F
   time step     :     0.4871793 fs     power     :   0.7747239E-10
   step length   :     0.0039257 a0     speed     :   0.1949126E-03

........................................................................
.............................. CYCLE   33 ..............................
........................................................................

 iter      E             dE          RMSdq      gap      omega  full diag
   1  -3478.7815169 -0.347878E+04  0.205E-04   11.51       0.0  T
   2  -3478.7815169 -0.769023E-08  0.121E-04   11.51      14.5  T
   3  -3478.7815169 -0.154159E-09  0.219E-05   11.51      79.9  T
     SCC iter.                  ...        2 min, 57.069 sec
     gradient                   ...        3 min, 56.252 sec
 * total energy  : -3427.4864935 Eh     change    :  -0.3129252E-05 Eh
   gradient norm :     0.0012967 Eh/a0  converged?    E=T G=F D=F
   time step     :     0.5358972 fs     power     :   0.6222231E-10
   step length   :     0.0043893 a0     speed     :   0.1981192E-03

........................................................................
.............................. CYCLE   34 ..............................
........................................................................

 iter      E             dE          RMSdq      gap      omega  full diag
   1  -3478.7806036 -0.347878E+04  0.185E-04   11.51       0.0  T
   2  -3478.7806036 -0.341606E-08  0.110E-04   11.51      15.9  T
   3  -3478.7806036 -0.158707E-09  0.125E-05   11.51     140.1  T
     SCC iter.                  ...        2 min, 58.896 sec
     gradient                   ...        3 min, 55.171 sec
 * total energy  : -3427.4864967 Eh     change    :  -0.3230204E-05 Eh
   gradient norm :     0.0015280 Eh/a0  converged?    E=T G=F D=F
   time step     :     0.5894869 fs     power     :   0.6344057E-10
   step length   :     0.0048291 a0     speed     :   0.1981571E-03

........................................................................
.............................. CYCLE   35 ..............................
........................................................................

 iter      E             dE          RMSdq      gap      omega  full diag
   1  -3478.7810264 -0.347878E+04  0.195E-04   11.51       0.0  T
   2  -3478.7810264 -0.939053E-09  0.114E-04   11.51      15.4  T
   3  -3478.7810264 -0.945874E-10  0.682E-06   11.51     257.0  T
     SCC iter.                  ...        2 min, 57.200 sec
     gradient                   ...        3 min, 56.276 sec
 * total energy  : -3427.4865009 Eh     change    :  -0.4184948E-05 Eh
   gradient norm :     0.0014459 Eh/a0  converged?    E=T G=F D=F
   time step     :     0.6484356 fs     power     :   0.7944539E-10
   step length   :     0.0053377 a0     speed     :   0.1991139E-03

........................................................................
.............................. CYCLE   36 ..............................
........................................................................

 iter      E             dE          RMSdq      gap      omega  full diag
   1  -3478.7829337 -0.347878E+04  0.253E-04   11.51       0.0  T
   2  -3478.7829337 -0.683622E-08  0.146E-04   11.51      12.0  T
   3  -3478.7829337 -0.203272E-09  0.211E-05   11.51      82.8  T
     SCC iter.                  ...        2 min, 57.342 sec
     gradient                   ...        3 min, 55.081 sec
 * total energy  : -3427.4865059 Eh     change    :  -0.5021766E-05 Eh
   gradient norm :     0.0011061 Eh/a0  converged?    E=F G=F D=F
   time step     :     0.7132792 fs     power     :   0.8150028E-10
   step length   :     0.0060472 a0     speed     :   0.2050753E-03

........................................................................
.............................. CYCLE   37 ..............................
........................................................................

 iter      E             dE          RMSdq      gap      omega  full diag
   1  -3478.7854271 -0.347879E+04  0.284E-04   11.51       0.0  T
   2  -3478.7854271 -0.122127E-07  0.164E-04   11.51      10.7  T
   3  -3478.7854271 -0.397449E-09  0.297E-05   11.51      59.0  T
     SCC iter.                  ...        3 min,  0.826 sec
     gradient                   ...        3 min, 56.609 sec
 * total energy  : -3427.4865108 Eh     change    :  -0.4868867E-05 Eh
   gradient norm :     0.0012154 Eh/a0  converged?    E=T G=F D=F
   time step     :     0.7846071 fs     power     :   0.6707031E-10
   step length   :     0.0069277 a0     speed     :   0.2135742E-03

........................................................................
.............................. CYCLE   38 ..............................
........................................................................

 iter      E             dE          RMSdq      gap      omega  full diag
   1  -3478.7865733 -0.347879E+04  0.246E-04   11.51       0.0  T
   2  -3478.7865733 -0.544287E-08  0.145E-04   11.51      12.1  T
   3  -3478.7865733 -0.290129E-09  0.203E-05   11.51      86.2  T
     SCC iter.                  ...        3 min,  8.291 sec
     gradient                   ...        3 min, 55.340 sec
 * total energy  : -3427.4865161 Eh     change    :  -0.5328608E-05 Eh
   gradient norm :     0.0013359 Eh/a0  converged?    E=F G=F D=F
   time step     :     0.8630678 fs     power     :   0.7387469E-10
   step length   :     0.0077800 a0     speed     :   0.2180462E-03

........................................................................
.............................. CYCLE   39 ..............................
........................................................................

 iter      E             dE          RMSdq      gap      omega  full diag
   1  -3478.7855483 -0.347879E+04  0.272E-04   11.51       0.0  T
   2  -3478.7855483 -0.844830E-08  0.158E-04   11.51      11.1  T
   3  -3478.7855483 -0.292403E-09  0.264E-05   11.51      66.5  T
     SCC iter.                  ...        3 min,  0.752 sec
     gradient                   ...        3 min, 56.006 sec
 * total energy  : -3427.4865227 Eh     change    :  -0.6542696E-05 Eh
   gradient norm :     0.0010430 Eh/a0  converged?    E=F G=F D=F
   time step     :     0.9493746 fs     power     :   0.7987946E-10
   step length   :     0.0088348 a0     speed     :   0.2250986E-03

........................................................................
.............................. CYCLE   40 ..............................
........................................................................

 iter      E             dE          RMSdq      gap      omega  full diag
   1  -3478.7839221 -0.347878E+04  0.306E-04   11.51       0.0  T
   2  -3478.7839221 -0.104646E-07  0.177E-04   11.51       9.9  T
   3  -3478.7839221 -0.248292E-09  0.259E-05   11.51      67.7  T
     SCC iter.                  ...        2 min, 55.714 sec
     gradient                   ...        3 min, 55.773 sec
 * total energy  : -3427.4865293 Eh     change    :  -0.6649104E-05 Eh
   gradient norm :     0.0012493 Eh/a0  converged?    E=F G=F D=F
   time step     :     1.0443120 fs     power     :   0.7082381E-10
   step length   :     0.0101701 a0     speed     :   0.2355648E-03

........................................................................
.............................. CYCLE   41 ..............................
........................................................................

 iter      E             dE          RMSdq      gap      omega  full diag
   1  -3478.7847926 -0.347878E+04  0.316E-04   11.51       0.0  T
   2  -3478.7847926 -0.447289E-08  0.184E-04   11.51       9.5  T
   3  -3478.7847926 -0.304681E-09  0.133E-05   11.51     131.9  T
     SCC iter.                  ...        3 min,  2.850 sec
     gradient                   ...        3 min, 56.251 sec
 * total energy  : -3427.4865373 Eh     change    :  -0.8036372E-05 Eh
   gradient norm :     0.0011094 Eh/a0  converged?    E=F G=F D=F
   time step     :     1.1487432 fs     power     :   0.8510929E-10
   step length   :     0.0115472 a0     speed     :   0.2431468E-03

........................................................................
.............................. CYCLE   42 ..............................
........................................................................

 iter      E             dE          RMSdq      gap      omega  full diag
   1  -3478.7872916 -0.347879E+04  0.389E-04   11.51       0.0  T
   2  -3478.7872916 -0.187943E-07  0.227E-04   11.51       7.7  T
   3  -3478.7872916 -0.605723E-09  0.331E-05   11.51      53.0  T
     SCC iter.                  ...        3 min,  0.497 sec
     gradient                   ...        3 min, 56.182 sec
 * total energy  : -3427.4865461 Eh     change    :  -0.8786144E-05 Eh
   gradient norm :     0.0011694 Eh/a0  converged?    E=F G=F D=F
   time step     :     1.2500000 fs     power     :   0.7720728E-10
   step length   :     0.0132302 a0     speed     :   0.2560195E-03
 * RMSD in coord.:     0.0016841 a0     energy gain  -0.8940498E-04 Eh

........................................................................
.............................. CYCLE   43 ..............................
........................................................................

 iter      E             dE          RMSdq      gap      omega  full diag
   1  -3478.7873490 -0.347879E+04  0.597E-05   11.51       0.0  T
   2  -3478.7873490 -0.100954E-09  0.352E-05   11.51      49.8  T
   3  -3478.7873490 -0.477485E-10  0.211E-06   11.51     831.3  T
     SCC iter.                  ...        2 min, 59.459 sec
     gradient                   ...        4 min,  1.276 sec
 * total energy  : -3427.4865478 Eh     change    :  -0.1677165E-05 Eh
   gradient norm :     0.0011900 Eh/a0  converged?    E=T G=F D=F
   time step     :     0.2500000 fs     power     :   0.8756584E-10
   step length   :     0.0025550 a0     speed     :   0.2472123E-03

........................................................................
.............................. CYCLE   44 ..............................
........................................................................

 iter      E             dE          RMSdq      gap      omega  full diag
   1  -3478.7870058 -0.347879E+04  0.590E-05   11.51       0.0  T
   2  -3478.7870058 -0.322871E-09  0.344E-05   11.51      51.0  T
   3  -3478.7870058  0.136424E-10  0.440E-06   11.51     398.2  T
     SCC iter.                  ...        2 min, 55.693 sec
     gradient                   ...        3 min, 55.110 sec
 * total energy  : -3427.4865497 Eh     change    :  -0.1845689E-05 Eh
   gradient norm :     0.0011038 Eh/a0  converged?    E=T G=F D=F
   time step     :     0.2500000 fs     power     :   0.9602981E-10
   step length   :     0.0024910 a0     speed     :   0.2410199E-03

........................................................................
.............................. CYCLE   45 ..............................
........................................................................

 iter      E             dE          RMSdq      gap      omega  full diag
   1  -3478.7863529 -0.347879E+04  0.690E-05   11.51       0.0  T
   2  -3478.7863529 -0.893124E-09  0.399E-05   11.51      43.9  T
   3  -3478.7863529  0.140972E-10  0.798E-06   11.51     219.6  T
     SCC iter.                  ...        2 min, 57.317 sec
     gradient                   ...        3 min, 56.537 sec
 * total energy  : -3427.4865516 Eh     change    :  -0.1915863E-05 Eh
   gradient norm :     0.0009662 Eh/a0  converged?    E=T G=T D=F
   time step     :     0.2500000 fs     power     :   0.9823933E-10
   step length   :     0.0024598 a0     speed     :   0.2379955E-03

   *** GEOMETRY OPTIMIZATION CONVERGED AFTER 45 CYCLES ***

------------------------------------------------------------------------
 total energy gain   :        -0.0003794 Eh       -0.2381 kcal/mol
 total RMSD          :         0.0020329 a0        0.0011 Å
 total power (kW/mol):        -0.0221376 (step)   -0.0001 (real)
------------------------------------------------------------------------

 FIRE (total)                  0 d,  5 h, 27 min, 10.645 sec
 setup                          ...        0 min,  0.116 sec (  0.001%)
 velocities                     ...        0 min,  0.003 sec (  0.000%)
 propagation                    ...        0 min,  0.005 sec (  0.000%)
 singlepoint calculation        ...      327 min,  9.771 sec ( 99.996%)
 log and printout               ...        0 min,  0.686 sec (  0.003%)
 preconditioner                 ...        0 min,  0.000 sec (  0.000%)
 model hessian                  ...        0 min,  0.000 sec (  0.000%)
 hessian update                 ...        0 min,  0.000 sec (  0.000%)

================
 final structure:
================
3258
 xtb: 6.6.1 (8d0f1dd)
C          106.11060164154328      122.69796812486476      105.84228346974039
C          104.61122178551091      122.63154436073658      106.10255995673400
C          104.19965813640937      121.34562269225849      106.81537102412821
C          102.68638398852625      121.26276876747892      107.01042343820281
C          102.26406318356051      119.97736709192418      107.71665698245248
C          100.74878666222466      119.85460386388561      107.86495176609684
C          100.35091931987401      118.48542966778280      108.41028110924681
C           98.84142525990600      118.31542270084378      108.56046513033117
C           98.48265462605671      116.90020322441792      109.00908567966361
C           96.97480882683216      116.68779335370202      109.12249726747966
C           96.58721607855051      115.28003451463312      109.58327673860464
C           96.89787071337307      114.20581814233731      108.54257261079945
C           96.48828573470007      112.79513318504806      108.97135851424495
C           94.97395298295810      112.60459641259023      109.05654743412799
C           94.55059524828859      111.13467438057836      109.08494616171261
C           94.90753544473536      110.40895953884527      110.38095640938000
C           94.41630158639931      108.96196353921393      110.35943478323800
C           94.66890406669427      108.23306854804630      111.67733400517994
C           94.25048411180514      106.76509947906767      111.60894488499754
C           94.47490965656289      106.03720185402673      112.93427472540863
C           94.40363949166981      104.51804293218272      112.78744996063529
C           94.42787533257093      103.81330530857221      114.14275424791226
C           94.65341012413492      102.30290530588316      114.03296525002192
C           96.13388494048532      101.94189065229111      113.92203710121163
C           96.35160323997044      100.44944684243501      113.68119931228347
C           97.82773389940006      100.06447582358473      113.75873926984825
C           98.06680585145281       98.59753014052262      113.40631160273531
C           99.52134632526537       98.18761621845540      113.62575436940448
C           99.80006787919861       96.75114425733956      113.18717123117432
C          101.21211270260982       96.31043172188411      113.56595509153186
C          101.57400443594130       94.93423280819023      113.01232958049178
C          103.00853185777345       94.54512196301526      113.36857285382574
C          103.34815541196285       93.08969652590012      113.04345920573894
C          103.40781080137474       92.75324743200140      111.55193809294047
C          104.65162848699671       93.29085119360670      110.84560639716973
C          104.66949948942205       92.88986533447604      109.37120339578520
C          105.94868664258948       93.32153896054508      108.65617515999200
C          105.89508344856992       93.01855756798207      107.15900940500141
C          107.18013494231357       93.41627894993557      106.43390526153945
C          107.01016197522064       93.41243387804865      104.91478551447624
C          108.30481407222015       93.79462282191986      104.19728520846991
C          108.10346163727640       94.22849795682909      102.74574048191950
C          107.62806091216285       93.12226641538285      101.80806180571834
C          107.47188759899669       93.65132043560386      100.38231046673313
C          107.04334115200477       92.56408397355969       99.39667405581517
C          106.51296853067278       93.12142949546536       98.07421357367798
C          107.56308417879836       93.84644594838177       97.23418958883042
C          106.94198672086227       94.49691747366072       95.99957526539885
C          107.96564362062281       95.24441116399734       95.14583789003248
C          107.28234086387606       96.07753188122709       94.06289556690740
C          108.24867937287109       96.80344648065606       93.12493234173358
C          109.00433712540764       97.95134550303520       93.79283435100778
C          109.78661230682141       98.78775128879047       92.78101236555516
C          110.51448897617577       99.95345600218759       93.44627100451486
C          111.28320232643181      100.81899915243740       92.44997037335057
C          111.97638575025508      101.98798803894459       93.14572608019226
C          112.77865443184638      102.86510285632710       92.18833609154312
C          113.45413416765378      104.02215059956522       92.92108450899397
C          114.27769953784062      104.90525622738791       91.98840354331323
C          114.95779585252697      106.05503381081451       92.72877786170889
C          115.73602394607032      106.95463154820375       91.77177691445289
C          116.36569178403305      108.17445551073426       92.44452338175638
C          117.57621030294655      107.85054088228682       93.31758072158424
C          118.27313343155969      109.12218264572773       93.79808571927546
C          119.48162168744128      108.82634976813011       94.68223152604524
C          120.19494000484035      110.10335481938452       95.12126154876547
C          121.33421667567744      109.82713711753622       96.09979621939310
C          121.99881352399515      111.11477020470822       96.58405839164961
C          123.15165803873415      110.86522096842850       97.55949266095092
C          122.67446690516370      110.45303125925786       98.95051858907526
C          123.83121953728600      110.10977465954679       99.88687041960097
C          123.33324870783598      109.64044557133444      101.25275332558074
C          124.45176886152429      109.36903758510367      102.25952498272005
C          125.44829300452743      108.28473704781423      101.84635200048621
C          124.81517092093873      106.90685041169338      101.66510716083617
C          125.85718095144129      105.86354305622980      101.26547064080802
C          125.25710933314822      104.48607198045346      100.97902632687901
C          124.76595905955527      103.77755155883611      102.23904119398176
C          124.27283732043873      102.35432571228961      101.97721342393061
C          123.02856417054291      102.30425974978166      101.08908077257503
C          122.26363484332352      100.99231388018575      101.25173219251789
C          121.02216300288690      100.92706815031413      100.36155410882591
C          120.00619441705035       99.87977154147802      100.82037978302182
C          120.52024151349963       98.44558092716380      100.72169370659516
C          119.52453009401758       97.41604931342593      101.26078370848450
C          118.22486399463611       97.35968517416146      100.45824672271995
C          117.38832832104760       96.11185028900232      100.74357332974705
C          116.82720834025312       96.05917419992949      102.16346241030386
C          115.92483969999921       94.84175961563028      102.35712557940622
C          115.43947495875943       94.65770745541795      103.79530010044935
C          114.43974121979575       95.72122119600355      104.24580251700561
C          113.84226938853233       95.37690114015923      105.60846301172216
C          112.94078699393107       96.46555607378772      106.18860702495118
C          111.70417094234996       96.74799096339079      105.33771199222112
C          110.70292805245565       97.66587092132445      106.04275209840840
C          109.88981793256093       96.94767829426151      107.11649099295555
C          108.96500734828021       97.89727973661117      107.87363839313450
C          108.22131231991013       97.17168647419041      108.99140676706612
C          107.31221195945416       98.07285317639848      109.82572775849246
C          108.06335869022740       99.13343807666202      110.62705492435903
C          107.16851143784545       99.80483631079250      111.66579263154075
C          107.88885753669632      100.93333277021975      112.39927654229010
C          107.05077030752378      101.51731156852553      113.53366890263302
C          107.76503919516000      102.66519852743052      114.24567336814535
C          107.10313464249325      103.07826156129212      115.56169041484395
C          105.73454965878716      103.72208328352639      115.36578077146035
C          105.05757190029291      104.12701789340201      116.67547407078628
C          105.75756403510935      105.24296707559137      117.45286028239219
C          105.90172959338315      106.54182142195269      116.66039996160880
C          106.17135310208177      107.73627014830186      117.57409829600969
C          106.42863929815563      109.02259315934393      116.79018301189363
C          106.30565843658904      110.27692380177264      117.65407515952782
C          106.48699924336958      111.55312221544173      116.83249208146221
C          106.03638313130426      112.80528007775476      117.58248051107977
C          106.05552064901177      114.04870831863481      116.69314367265986
C          105.23501311212637      115.19637183197018      117.27857570624553
C          105.03708899606241      116.33466259855868      116.28078507499762
C          104.13924900743751      117.43864957823183      116.83237145303933
C          103.85667783515770      118.53347636535807      115.80715128884405
C          102.95727652461117      119.61826385685819      116.38720793974633
H          104.79946035269322      118.97606161137563      115.47576116620337
H          103.37791570632544      118.09100722740209      114.93001984718484
H          103.18894652921125      117.00405991707014      117.15195873421339
H          104.61179783088595      117.88435892520266      117.71102087443771
H          106.00888869831493      116.75786438885316      116.01785640299563
H          104.59071455598006      115.93468058738220      115.36626026313564
H          104.25438592958436      114.81781616558088      117.57749369937291
H          105.72494995410703      115.57868157706926      118.17541506997286
H          107.08452845639293      114.37277923586387      116.52866969446778
H          105.63808311023419      113.78857243749135      115.71760910348863
H          105.01709412097152      112.64418304999597      117.94378968155419
H          106.66999503995588      112.96731865143084      118.45678573901777
H          107.53206660096728      111.65674600033374      116.53503325680209
H          105.89003260183053      111.46470399375971      115.92092413609330
H          105.31285433739838      110.29106171885155      118.11218542811979
H          107.03946905777372      110.24248066102109      118.46220487761778
H          107.42342007128850      108.98227211260821      116.34345047713614
H          105.70329654634742      109.09150764439332      115.97388965980416
H          105.30385535639461      107.88064410372658      118.22331829594087
H          107.03000003926080      107.52015454937248      118.21436780793651
H          106.71381419939719      106.44847837435809      115.93672872560640
H          104.98116516195883      106.72549259666179      116.10311180141343
H          105.16319517172811      105.44592597521545      118.34740923961456
H          106.73999481360903      104.90762001910664      117.79048163529025
H          104.03866832859454      104.45150504515901      116.44739225986370
H          104.98024328277123      103.24749490988886      117.31993498584494
H          105.84185139870593      104.59626792533864      114.72166961740361
H          105.07701506878543      103.01445365133783      114.85682448464276
H          107.00133449641915      102.20228564208446      116.20631899380533
H          107.75930970289370      103.78682562854988      116.06949001958583
H          108.79082895315378      102.35343539560509      114.45701794795161
H          107.81336815203031      103.52987722942495      113.57901139664013
H          106.09921285084943      101.86439942073541      113.12753111522709
H          106.83326895112943      100.72783292941256      114.25756189699894
H          108.83105349578598      100.55286036155863      112.80204028513340
H          108.13687634698429      101.72678422147501      111.69127346567386
H          106.28254881508747      100.20558169100731      111.17046867032330
H          106.83328625126754       99.05909072055189      112.38925353558487
H          108.91541583492689       98.67144096051756      111.13076347900132
H          108.45156837044730       99.89625327957204      109.95047414810503
H          106.58948623664217       98.56791378025343      109.17292082161089
H          106.75418968412902       97.43971848752322      110.52091236636656
H          107.61439112291104       96.37659015135394      108.54927621932104
H          108.95063751422759       96.69776179781431      109.65124589693458
H          109.56391992977964       98.70596343171249      108.29562449869046
H          108.24576781383298       98.33798172050966      107.17895304617834
H          109.29630703946201       96.15643649628070      106.65122746702407
H          110.56382944922279       96.47167995950502      107.83146275410479
H          111.24382021686907       98.49750150659862      106.50098084509284
H          110.01548324072455       98.08494460642770      105.30427113887660
H          112.01584176673646       97.21677095590702      104.40313120315071
H          111.21314632370569       95.80395004400461      105.08727501227223
H          112.62592113772141       96.14701464083404      107.18418387626897
H          113.51450098464193       97.38784865337237      106.30716129135641
H          113.27136884927683       94.45014768638326      105.52538897836877
H          114.65810271433288       95.19881774184746      106.31093314372313
H          114.93578613120738       96.69039365020883      104.30668435254145
H          113.64445960703851       95.79333209545965      103.50230584066112
H          114.96299819162068       93.67697108589982      103.87743308210952
H          116.30066791243173       94.65933439905135      104.46802258806478
H          115.05940615034086       94.92425904497634      101.69432101268323
H          116.48056596963148       93.94816733625241      102.06043683457858
H          117.64826745348742       96.01161860759777      102.88102683527384
H          116.26076031353787       96.97166575721414      102.35636768383939
H          116.55357470023534       96.08375412483706      100.03733057125748
H          117.99638973537961       95.22187419054443      100.56311769423719
H          117.62312644102025       98.24449425802226      100.67033559181881
H          118.47203142609335       97.37152382877922       99.39335083937104
H          119.99788689158272       96.43127764695392      101.23366354665990
H          119.30271995607185       97.64879476977468      102.30436320906738
H          120.74906195745842       98.21552470070581       99.67816214290100
H          121.44749597473236       98.35632124983299      101.29103383230246
H          119.72856751582292      100.08603973309864      101.85673491362370
H          119.10825043086290       99.97975852199279      100.20769539559099
H          120.53249053947532      101.90398830855166      100.37456776185827
H          121.31793056386650      100.72440033419704       99.32992112042216
H          122.93102597130675      100.15863814836405      101.02716476255830
H          121.95545287904547      100.89692098257549      102.29596595033559
H          122.36877406783562      103.13238889815497      101.36027672922290
H          123.30831050339363      102.43461174057123      100.04214674696391
H          125.07246495377836      101.76608470051097      101.52192373912514
H          124.03484248947883      101.89393269886547      102.93912212362291
H          125.58623621766257      103.73693467863995      102.96030528510693
H          123.95581519740298      104.35109993255591      102.69301628586221
H          124.43211613533947      104.59794822998651      100.27311240998964
H          126.01827549159745      103.86242034617172      100.50339949708736
H          126.37077520847730      106.21506049918784      100.36662459672429
H          126.60646315220883      105.77470129579092      102.05598045924037
H          124.32873693252583      106.61319310281284      102.59710697939892
H          124.05056910885179      106.95094348623367      100.88796048519234
H          125.94649732072540      108.57922589372917      100.92094380275300
H          126.22010907063739      108.21717197798371      102.61828378522561
H          125.00300851454179      110.29880834491556      102.42424733866797
H          123.99315739712034      109.08285264659874      103.20987269079546
H          122.68500937277415      110.41109235147810      101.67653064367119
H          122.72509832302275      108.74348348725371      101.12785973489935
H          124.43271840616170      109.32485369206526       99.42514867596743
H          124.47086936068101      110.98665618730108      100.01454227373729
H          122.08935945981139      111.26973522788674       99.37968281846841
H          122.02031153155713      109.58342422272239       98.86953324125830
H          123.80286591686269      110.08806909709516       97.15219671145155
H          123.74687514942002      111.77730966612016       97.64977693535023
H          122.37879104622370      111.65923885413881       95.71599582756139
H          121.24988508762102      111.74661509292731       97.06825849597924
H          120.94093224145560      109.27619934475685       96.95601502806188
H          122.08223049555951      109.19389135585234       95.61688280636453
H          120.58966738556362      110.61748631701234       94.24156235134495
H          119.47009998504097      110.76856860640693       95.59458625471410
H          119.14688583956763      108.27766531509681       95.56572855266924
H          120.18178949066862      108.18579569878413       94.14047221540238
H          118.59731230721715      109.70193862553525       92.93010828301198
H          117.56265086014740      109.73489240441072       94.35836188671843
H          117.26392787196018      107.26295652673103       94.18332484602446
H          118.28585427846326      107.25187837489516       92.74169801259400
H          116.67982546783723      108.87409716097302       91.66587878270609
H          115.61041408527180      108.67631517301423       93.05300255550091
H          116.51718270993081      106.37155284186801       91.27884493696548
H          115.04999133547474      107.30391306528169       90.99576319361448
H          114.19934026016156      106.64966629862245       93.24303228264125
H          115.62868554453209      105.64780630475410       93.48701030167955
H          115.03864238695145      104.29815079060619       91.49273697922638
H          113.62630190934254      105.31333476348782       91.21130063417351
H          112.69038248234355      104.63068486207747       93.40952315280016
H          114.10302190072639      103.61956240513939       93.70139667779706
H          113.53897791670667      102.25865668640496       91.69008880155111
H          112.11670752716721      103.26106128687664       91.41402841267281
H          111.22511297329947      102.60125032702683       93.64673047540182
H          112.64656100380606      101.59706926640017       93.91380235176668
H          112.02806251718964      100.20724854807173       91.93491574478777
H          110.59400216402459      101.20145312922270       91.69272827899283
H          109.78776339441414      100.57576434522568       93.97236468992283
H          111.21139522938950       99.56335946766312       94.19162922205098
H          110.51075281979826       98.15177585559147       92.26584720470824
H          109.09788450718084       99.17628573322314       92.02612170557050
H          108.29193080606481       98.59646650948898       94.31201373822307
H          109.69670319905869       97.55533454538444       94.53819985963253
H          108.96305329554293       96.08705578109000       92.71252747874566
H          107.67341924532742       97.20913331792777       92.28810143895093
H          106.64721629059370       95.41734852065748       93.46623412941241
H          106.63394930484174       96.81539171693638       94.54210797547972
H          108.55585801415381       95.89602963650225       95.79141805302889
H          108.64779853636318       94.52812304390065       94.68197272720099
H          106.44820339510623       93.73465451686489       95.39214266351492
H          106.17302475053187       95.20255328977385       96.32498858955613
H          108.04048287393199       94.62210029612892       97.83383386803850
H          108.33458186120360       93.13771002321364       96.92449982541304
H          106.09757513992560       92.29912848336565       97.48620501302045
H          105.69335679575809       93.81143102304000       98.29130176143023
H          107.88349765188956       91.89325831978644       99.20162395285725
H          106.24981527137457       91.96906105597679       99.85679579378721
H          106.72491089152555       94.44950502004276      100.38371776935338
H          108.41901915673367       94.08832791544026      100.06141660787925
H          108.34532173437036       92.29826819301641      101.81751848931940
H          106.66899936881480       92.73111423256019      102.15314992899701
H          107.37887203519007       95.04413250444959      102.71793009160544
H          109.05069951169554       94.61988066694312      102.36617363590886
H          108.76467663038426       94.62897927570174      104.73529174039692
H          109.00236731395312       92.95731830859238      104.23697841305571
H          106.68187522560228       92.42324040504775      104.59028476496754
H          106.22690811580799       94.12543218706217      104.64770794153458
H          107.47313739572732       94.42019972241522      106.75395045259455
H          107.98765106952625       92.73704382854537      106.71689750421243
H          105.70811211424513       91.95267652771301      107.01033656134156
H          105.05540774950137       93.56083845749572      106.71677073859141
H          106.09655480181500       94.39527017009399      108.80134736103554
H          106.80470814391339       92.80998578494697      109.10251304149953
H          104.56605610597460       91.80491370165642      109.29319421896261
H          103.80699841687959       93.33658347873998      108.86950600163347
H          104.68469024668821       94.37938942883065      110.92413337169513
H          105.54578836960955       92.89843336654508      111.33614431472890
H          103.39862676951003       91.66528809407330      111.44578076163992
H          102.51494290058378       93.13448315235456      111.05391214421917
H          104.31382381695465       92.84742694786848      113.49457344804809
H          102.59933249246525       92.44897044364505      113.51596266377270
H          103.70416314945345       95.21297759829267      112.85817769687566
H          103.14687210440462       94.69044978270786      114.44323227305993
H          100.88540244968927       94.18993321506956      113.41949462751442
H          101.45024843502574       94.94369271672817      111.92793576931807
H          101.92821951363956       97.04461837137499      113.19123976202575
H          101.30106926100304       96.29685068361317      114.65386328935693
[...]
  3011   6 C     3012   6 C                                       1.5274285
  3012   6 C     3013   6 C                                       1.5306547
  3013   6 C     3014   6 C                                       1.5296722
  3014   6 C     3015   6 C                                       1.5257187
  3015   6 C     3016   6 C                                       1.5234388
  3015   6 C     3017   1 H                                       1.0905702
  3015   6 C     3018   1 H                                       1.0922052
  3014   6 C     3019   1 H                                       1.0934230
  3014   6 C     3020   1 H                                       1.0917435
  3013   6 C     3021   1 H                                       1.0922983
  3013   6 C     3022   1 H                                       1.0932003
  3012   6 C     3023   1 H                                       1.0922393
  3012   6 C     3024   1 H                                       1.0936638
  3011   6 C     3025   1 H                                       1.0926169
  3011   6 C     3026   1 H                                       1.0915452
  3010   6 C     3027   1 H                                       1.0929795
  3010   6 C     3028   1 H                                       1.0927423
  3009   6 C     3029   1 H                                       1.0926600
  3009   6 C     3030   1 H                                       1.0931359
  3008   6 C     3031   1 H                                       1.0928883
  3008   6 C     3032   1 H                                       1.0919986
  3007   6 C     3033   1 H                                       1.0923637
  3007   6 C     3034   1 H                                       1.0922690
  3006   6 C     3035   1 H                                       1.0934698
  3006   6 C     3036   1 H                                       1.0926323
  3005   6 C     3037   1 H                                       1.0923929
  3005   6 C     3038   1 H                                       1.0916940
  3004   6 C     3039   1 H                                       1.0925657
  3004   6 C     3040   1 H                                       1.0915353
  3003   6 C     3041   1 H                                       1.0923728
  3003   6 C     3042   1 H                                       1.0928537
  3002   6 C     3043   1 H                                       1.0926289
  3002   6 C     3044   1 H                                       1.0904300
  3001   6 C     3045   1 H                                       1.0912578
  3001   6 C     3046   1 H                                       1.0923178
  3000   6 C     3047   1 H                                       1.0924208
  3000   6 C     3048   1 H                                       1.0927163
  2999   6 C     3049   1 H                                       1.0898096
  2999   6 C     3050   1 H                                       1.0927916
  2998   6 C     3051   1 H                                       1.0928561
  2998   6 C     3052   1 H                                       1.0931890
  2997   6 C     3053   1 H                                       1.0926562
  2997   6 C     3054   1 H                                       1.0930650
  2996   6 C     3055   1 H                                       1.0921742
  2996   6 C     3056   1 H                                       1.0907096
  2995   6 C     3057   1 H                                       1.0925457
  2995   6 C     3058   1 H                                       1.0927048
  2994   6 C     3059   1 H                                       1.0924917
  2994   6 C     3060   1 H                                       1.0934316
  2993   6 C     3061   1 H                                       1.0910678
  2993   6 C     3062   1 H                                       1.0922273
  2992   6 C     3063   1 H                                       1.0937330
  2992   6 C     3064   1 H                                       1.0911210
  2991   6 C     3065   1 H                                       1.0920237
  2991   6 C     3066   1 H                                       1.0935087
  2990   6 C     3067   1 H                                       1.0904404
  2990   6 C     3068   1 H                                       1.0911966
  2989   6 C     3069   1 H                                       1.0934582
  2989   6 C     3070   1 H                                       1.0916757
  2988   6 C     3071   1 H                                       1.0923659
  2988   6 C     3072   1 H                                       1.0918210
  2987   6 C     3073   1 H                                       1.0918278
  2987   6 C     3074   1 H                                       1.0933582
  2986   6 C     3075   1 H                                       1.0919654
  2986   6 C     3076   1 H                                       1.0922980
  2985   6 C     3077   1 H                                       1.0929446
  2985   6 C     3078   1 H                                       1.0933849
  2984   6 C     3079   1 H                                       1.0915900
  2984   6 C     3080   1 H                                       1.0925107
  2983   6 C     3081   1 H                                       1.0925280
  2983   6 C     3082   1 H                                       1.0932795
  2982   6 C     3083   1 H                                       1.0916070
  2982   6 C     3084   1 H                                       1.0909672
  2981   6 C     3085   1 H                                       1.0923578
  2981   6 C     3086   1 H                                       1.0931683
  2980   6 C     3087   1 H                                       1.0915358
  2980   6 C     3088   1 H                                       1.0927830
  2979   6 C     3089   1 H                                       1.0925642
  2979   6 C     3090   1 H                                       1.0930910
  2978   6 C     3091   1 H                                       1.0910442
  2978   6 C     3092   1 H                                       1.0908352
  2977   6 C     3093   1 H                                       1.0907793
  2977   6 C     3094   1 H                                       1.0937312
  2976   6 C     3095   1 H                                       1.0922467
  2976   6 C     3096   1 H                                       1.0926858
  2975   6 C     3097   1 H                                       1.0937456
  2975   6 C     3098   1 H                                       1.0921183
  2974   6 C     3099   1 H                                       1.0938561
  2974   6 C     3100   1 H                                       1.0911985
  2973   6 C     3101   1 H                                       1.0897335
  2973   6 C     3102   1 H                                       1.0912536
  2972   6 C     3103   1 H                                       1.0935435
  2972   6 C     3104   1 H                                       1.0927343
  2971   6 C     3105   1 H                                       1.0939321
  2971   6 C     3106   1 H                                       1.0935141
  2970   6 C     3107   1 H                                       1.0907818
  2970   6 C     3108   1 H                                       1.0903027
  2969   6 C     3109   1 H                                       1.0936151
  2969   6 C     3110   1 H                                       1.0909802
  2968   6 C     3111   1 H                                       1.0923757
  2968   6 C     3112   1 H                                       1.0923700
  2967   6 C     3113   1 H                                       1.0929644
  2967   6 C     3114   1 H                                       1.0898654
  2966   6 C     3115   1 H                                       1.0923674
  2966   6 C     3116   1 H                                       1.0932082
  2965   6 C     3117   1 H                                       1.0935627
  2965   6 C     3118   1 H                                       1.0930007
  2964   6 C     3119   1 H                                       1.0896886
  2964   6 C     3120   1 H                                       1.0931370
  2963   6 C     3121   1 H                                       1.0930234
  2963   6 C     3122   1 H                                       1.0915810
  2962   6 C     3123   1 H                                       1.0921363
  2962   6 C     3124   1 H                                       1.0928003
  2961   6 C     3125   1 H                                       1.0930736
  2961   6 C     3126   1 H                                       1.0906901
  2960   6 C     3127   1 H                                       1.0924746
  2960   6 C     3128   1 H                                       1.0926120
  2959   6 C     3129   1 H                                       1.0915487
  2959   6 C     3130   1 H                                       1.0916963
  2958   6 C     3131   1 H                                       1.0911740
  2958   6 C     3132   1 H                                       1.0927828
  2957   6 C     3133   1 H                                       1.0930914
  2957   6 C     3134   1 H                                       1.0910849
  2956   6 C     3135   1 H                                       1.0923636
  2956   6 C     3136   1 H                                       1.0910624
  2955   6 C     3137   1 H                                       1.0917919
  2955   6 C     3138   1 H                                       1.0932532
  2954   6 C     3139   1 H                                       1.0919867
  2954   6 C     3140   1 H                                       1.0917819
  2953   6 C     3141   1 H                                       1.0917806
  2953   6 C     3142   1 H                                       1.0924445
  2952   6 C     3143   1 H                                       1.0918466
  2952   6 C     3144   1 H                                       1.0928268
  2951   6 C     3145   1 H                                       1.0931229
  2951   6 C     3146   1 H                                       1.0935501
  2950   6 C     3147   1 H                                       1.0900156
  2950   6 C     3148   1 H                                       1.0911906
  2949   6 C     3149   1 H                                       1.0903189
  2949   6 C     3150   1 H                                       1.0918817
  2948   6 C     3151   1 H                                       1.0932903
  2948   6 C     3152   1 H                                       1.0933984
  2947   6 C     3153   1 H                                       1.0924670
  2947   6 C     3154   1 H                                       1.0923268
  2946   6 C     3155   1 H                                       1.0917191
  2946   6 C     3156   1 H                                       1.0915970
  2945   6 C     3157   1 H                                       1.0928095
  2945   6 C     3158   1 H                                       1.0922837
  2944   6 C     3159   1 H                                       1.0929172
  2944   6 C     3160   1 H                                       1.0933220
  2943   6 C     3161   1 H                                       1.0926065
  2943   6 C     3162   1 H                                       1.0913770
  2942   6 C     3163   1 H                                       1.0915215
  2942   6 C     3164   1 H                                       1.0931635
  2941   6 C     3165   1 H                                       1.0922792
  2941   6 C     3166   1 H                                       1.0933523
  2940   6 C     3167   1 H                                       1.0935779
  2940   6 C     3168   1 H                                       1.0919229
  2939   6 C     3169   1 H                                       1.0929120
  2939   6 C     3170   1 H                                       1.0907577
  2938   6 C     3171   1 H                                       1.0921753
  2938   6 C     3172   1 H                                       1.0932845
  2937   6 C     3173   1 H                                       1.0937410
  2937   6 C     3174   1 H                                       1.0931631
  2936   6 C     3175   1 H                                       1.0902371
  2936   6 C     3176   1 H                                       1.0924524
  2935   6 C     3177   1 H                                       1.0926865
  2935   6 C     3178   1 H                                       1.0926916
  2934   6 C     3179   1 H                                       1.0930908
  2934   6 C     3180   1 H                                       1.0932322
  2933   6 C     3181   1 H                                       1.0920978
  2933   6 C     3182   1 H                                       1.0923211
  2932   6 C     3183   1 H                                       1.0922273
  2932   6 C     3184   1 H                                       1.0912740
  2931   6 C     3185   1 H                                       1.0925635
  2931   6 C     3186   1 H                                       1.0931319
  2930   6 C     3187   1 H                                       1.0939446
  2930   6 C     3188   1 H                                       1.0921853
  2929   6 C     3189   1 H                                       1.0918670
  2929   6 C     3190   1 H                                       1.0928133
  2928   6 C     3191   1 H                                       1.0915023
  2928   6 C     3192   1 H                                       1.0931930
  2927   6 C     3193   1 H                                       1.0935016
  2927   6 C     3194   1 H                                       1.0923248
  2926   6 C     3195   1 H                                       1.0919205
  2926   6 C     3196   1 H                                       1.0933227
  2925   6 C     3197   1 H                                       1.0930140
  2925   6 C     3198   1 H                                       1.0912682
  2924   6 C     3199   1 H                                       1.0930320
  2924   6 C     3200   1 H                                       1.0912751
  2923   6 C     3201   1 H                                       1.0931913
  2923   6 C     3202   1 H                                       1.0916647
  2922   6 C     3203   1 H                                       1.0926967
  2922   6 C     3204   1 H                                       1.0923814
  2921   6 C     3205   1 H                                       1.0918334
  2921   6 C     3206   1 H                                       1.0930636
  2920   6 C     3207   1 H                                       1.0935333
  2920   6 C     3208   1 H                                       1.0896923
  2919   6 C     3209   1 H                                       1.0920776
  2919   6 C     3210   1 H                                       1.0929260
  2918   6 C     3211   1 H                                       1.0928269
  2918   6 C     3212   1 H                                       1.0915818
  2917   6 C     3213   1 H                                       1.0920277
  2917   6 C     3214   1 H                                       1.0923916
  2916   6 C     3215   1 H                                       1.0923212
  2916   6 C     3216   1 H                                       1.0931081
  2915   6 C     3217   1 H                                       1.0930352
  2915   6 C     3218   1 H                                       1.0928279
  2914   6 C     3219   1 H                                       1.0912004
  2914   6 C     3220   1 H                                       1.0931167
  2913   6 C     3221   1 H                                       1.0930424
  2913   6 C     3222   1 H                                       1.0922444
  2912   6 C     3223   1 H                                       1.0905636
  2912   6 C     3224   1 H                                       1.0930733
  2911   6 C     3225   1 H                                       1.0935102
  2911   6 C     3226   1 H                                       1.0898393
  2910   6 C     3227   1 H                                       1.0931023
  2910   6 C     3228   1 H                                       1.0924134
  2909   6 C     3229   1 H                                       1.0905657
  2909   6 C     3230   1 H                                       1.0924321
  2908   6 C     3231   1 H                                       1.0934144
  2908   6 C     3232   1 H                                       1.0914062
  2907   6 C     3233   1 H                                       1.0926641
  2907   6 C     3234   1 H                                       1.0930161
  2906   6 C     3235   1 H                                       1.0923295
  2906   6 C     3236   1 H                                       1.0916369
  2905   6 C     3237   1 H                                       1.0928478
  2905   6 C     3238   1 H                                       1.0925726
  2904   6 C     3239   1 H                                       1.0914658
  2904   6 C     3240   1 H                                       1.0933988
  2903   6 C     3241   1 H                                       1.0916613
  2903   6 C     3242   1 H                                       1.0921705
  2902   6 C     3243   1 H                                       1.0935930
  2902   6 C     3244   1 H                                       1.0915984
  2901   6 C     3245   1 H                                       1.0932809
  2901   6 C     3246   1 H                                       1.0932047
  2900   6 C     3247   1 H                                       1.0917124
  2900   6 C     3248   1 H                                       1.0933969
  2899   6 C     3249   1 H                                       1.0927241
  2899   6 C     3250   1 H                                       1.0913733
  2898   6 C     3251   1 H                                       1.0927312
  2898   6 C     3252   1 H                                       1.0929257
  2897   6 C     3253   1 H                                       1.0878836
  2897   6 C     3254   1 H                                       1.0875361
  2897   6 C     3255   1 H                                       1.0877026
  3016   6 C     3256   1 H                                       1.0878256
  3016   6 C     3257   1 H                                       1.0881853
  3016   6 C     3258   1 H                                       1.0880572

 * 2 distinct bonds (by element types)

   Z      Z             #   av. dist./Å        max./Å        min./Å
   1 H    6 C        2178     1.0922687     1.0943714     1.0858456
   6 C    6 C        1071     1.5275801     1.5358915     1.5220901


optimized geometry written to: xtbopt.xyz


           -------------------------------------------------
          | TOTAL ENERGY            -3427.486551573905 Eh   |
          | GRADIENT NORM               0.000966836516 Eh/α |
          | HOMO-LUMO GAP              11.513689527287 eV   |
           -------------------------------------------------

------------------------------------------------------------------------
 * finished run on 2024/10/04 at 03:10:42.128     
------------------------------------------------------------------------
 total:
 * wall-time:     0 d,  5 h, 49 min, 19.381 sec
 *  cpu-time:     1 d,  5 h, 50 min, 33.984 sec
 * ratio c/w:     5.126 speedup
 SCF:
 * wall-time:     0 d,  0 h, 14 min, 15.222 sec
 *  cpu-time:     0 d,  1 h, 29 min, 24.560 sec
 * ratio c/w:     6.273 speedup
 ANC optimizer:
 * wall-time:     0 d,  5 h, 34 min, 22.495 sec
 *  cpu-time:     1 d,  4 h, 20 min, 12.056 sec
 * ratio c/w:     5.085 speedup

