3258
 energy: -3427.486551573905 gnorm: 0.000966836516 xtb: 6.6.1 (8d0f1dd)
C          106.11060164154328      122.69796812486476      105.84228346974039
C          104.61122178551091      122.63154436073658      106.10255995673400
C          104.19965813640937      121.34562269225849      106.81537102412821
C          102.68638398852625      121.26276876747892      107.01042343820281
C          102.26406318356051      119.97736709192418      107.71665698245248
C          100.74878666222466      119.85460386388561      107.86495176609684
C          100.35091931987401      118.48542966778280      108.41028110924681
C           98.84142525990600      118.31542270084378      108.56046513033117
C           98.48265462605671      116.90020322441792      109.00908567966361
C           96.97480882683216      116.68779335370202      109.12249726747966
C           96.58721607855051      115.28003451463312      109.58327673860464
C           96.89787071337307      114.20581814233731      108.54257261079945
C           96.48828573470007      112.79513318504806      108.97135851424495
C           94.97395298295810      112.60459641259023      109.05654743412799
C           94.55059524828859      111.13467438057836      109.08494616171261
C           94.90753544473536      110.40895953884527      110.38095640938000
C           94.41630158639931      108.96196353921393      110.35943478323800
C           94.66890406669427      108.23306854804630      111.67733400517994
C           94.25048411180514      106.76509947906767      111.60894488499754
C           94.47490965656289      106.03720185402673      112.93427472540863
C           94.40363949166981      104.51804293218272      112.78744996063529
C           94.42787533257093      103.81330530857221      114.14275424791226
C           94.65341012413492      102.30290530588316      114.03296525002192
C           96.13388494048532      101.94189065229111      113.92203710121163
C           96.35160323997044      100.44944684243501      113.68119931228347
C           97.82773389940006      100.06447582358473      113.75873926984825
C           98.06680585145281       98.59753014052262      113.40631160273531
C           99.52134632526537       98.18761621845540      113.62575436940448
C           99.80006787919861       96.75114425733956      113.18717123117432
C          101.21211270260982       96.31043172188411      113.56595509153186
C          101.57400443594130       94.93423280819023      113.01232958049178
C          103.00853185777345       94.54512196301526      113.36857285382574
C          103.34815541196285       93.08969652590012      113.04345920573894
C          103.40781080137474       92.75324743200140      111.55193809294047
C          104.65162848699671       93.29085119360670      110.84560639716973
C          104.66949948942205       92.88986533447604      109.37120339578520
C          105.94868664258948       93.32153896054508      108.65617515999200
C          105.89508344856992       93.01855756798207      107.15900940500141
C          107.18013494231357       93.41627894993557      106.43390526153945
C          107.01016197522064       93.41243387804865      104.91478551447624
C          108.30481407222015       93.79462282191986      104.19728520846991
C          108.10346163727640       94.22849795682909      102.74574048191950
C          107.62806091216285       93.12226641538285      101.80806180571834
C          107.47188759899669       93.65132043560386      100.38231046673313
C          107.04334115200477       92.56408397355969       99.39667405581517
C          106.51296853067278       93.12142949546536       98.07421357367798
C          107.56308417879836       93.84644594838177       97.23418958883042
C          106.94198672086227       94.49691747366072       95.99957526539885
C          107.96564362062281       95.24441116399734       95.14583789003248
C          107.28234086387606       96.07753188122709       94.06289556690740
C          108.24867937287109       96.80344648065606       93.12493234173358
C          109.00433712540764       97.95134550303520       93.79283435100778
C          109.78661230682141       98.78775128879047       92.78101236555516
C          110.51448897617577       99.95345600218759       93.44627100451486
C          111.28320232643181      100.81899915243740       92.44997037335057
C          111.97638575025508      101.98798803894459       93.14572608019226
C          112.77865443184638      102.86510285632710       92.18833609154312
C          113.45413416765378      104.02215059956522       92.92108450899397
C          114.27769953784062      104.90525622738791       91.98840354331323
C          114.95779585252697      106.05503381081451       92.72877786170889
C          115.73602394607032      106.95463154820375       91.77177691445289
C          116.36569178403305      108.17445551073426       92.44452338175638
C          117.57621030294655      107.85054088228682       93.31758072158424
C          118.27313343155969      109.12218264572773       93.79808571927546
C          119.48162168744128      108.82634976813011       94.68223152604524
C          120.19494000484035      110.10335481938452       95.12126154876547
C          121.33421667567744      109.82713711753622       96.09979621939310
C          121.99881352399515      111.11477020470822       96.58405839164961
C          123.15165803873415      110.86522096842850       97.55949266095092
C          122.67446690516370      110.45303125925786       98.95051858907526
C          123.83121953728600      110.10977465954679       99.88687041960097
C          123.33324870783598      109.64044557133444      101.25275332558074
C          124.45176886152429      109.36903758510367      102.25952498272005
C          125.44829300452743      108.28473704781423      101.84635200048621
C          124.81517092093873      106.90685041169338      101.66510716083617
C          125.85718095144129      105.86354305622980      101.26547064080802
C          125.25710933314822      104.48607198045346      100.97902632687901
C          124.76595905955527      103.77755155883611      102.23904119398176
C          124.27283732043873      102.35432571228961      101.97721342393061
C          123.02856417054291      102.30425974978166      101.08908077257503
C          122.26363484332352      100.99231388018575      101.25173219251789
C          121.02216300288690      100.92706815031413      100.36155410882591
C          120.00619441705035       99.87977154147802      100.82037978302182
C          120.52024151349963       98.44558092716380      100.72169370659516
C          119.52453009401758       97.41604931342593      101.26078370848450
C          118.22486399463611       97.35968517416146      100.45824672271995
C          117.38832832104760       96.11185028900232      100.74357332974705
C          116.82720834025312       96.05917419992949      102.16346241030386
C          115.92483969999921       94.84175961563028      102.35712557940622
C          115.43947495875943       94.65770745541795      103.79530010044935
C          114.43974121979575       95.72122119600355      104.24580251700561
C          113.84226938853233       95.37690114015923      105.60846301172216
C          112.94078699393107       96.46555607378772      106.18860702495118
C          111.70417094234996       96.74799096339079      105.33771199222112
C          110.70292805245565       97.66587092132445      106.04275209840840
C          109.88981793256093       96.94767829426151      107.11649099295555
C          108.96500734828021       97.89727973661117      107.87363839313450
C          108.22131231991013       97.17168647419041      108.99140676706612
C          107.31221195945416       98.07285317639848      109.82572775849246
C          108.06335869022740       99.13343807666202      110.62705492435903
C          107.16851143784545       99.80483631079250      111.66579263154075
C          107.88885753669632      100.93333277021975      112.39927654229010
C          107.05077030752378      101.51731156852553      113.53366890263302
C          107.76503919516000      102.66519852743052      114.24567336814535
C          107.10313464249325      103.07826156129212      115.56169041484395
C          105.73454965878716      103.72208328352639      115.36578077146035
C          105.05757190029291      104.12701789340201      116.67547407078628
C          105.75756403510935      105.24296707559137      117.45286028239219
C          105.90172959338315      106.54182142195269      116.66039996160880
C          106.17135310208177      107.73627014830186      117.57409829600969
C          106.42863929815563      109.02259315934393      116.79018301189363
C          106.30565843658904      110.27692380177264      117.65407515952782
C          106.48699924336958      111.55312221544173      116.83249208146221
C          106.03638313130426      112.80528007775476      117.58248051107977
C          106.05552064901177      114.04870831863481      116.69314367265986
C          105.23501311212637      115.19637183197018      117.27857570624553
C          105.03708899606241      116.33466259855868      116.28078507499762
C          104.13924900743751      117.43864957823183      116.83237145303933
C          103.85667783515770      118.53347636535807      115.80715128884405
C          102.95727652461117      119.61826385685819      116.38720793974633
H          104.79946035269322      118.97606161137563      115.47576116620337
H          103.37791570632544      118.09100722740209      114.93001984718484
H          103.18894652921125      117.00405991707014      117.15195873421339
H          104.61179783088595      117.88435892520266      117.71102087443771
H          106.00888869831493      116.75786438885316      116.01785640299563
H          104.59071455598006      115.93468058738220      115.36626026313564
H          104.25438592958436      114.81781616558088      117.57749369937291
H          105.72494995410703      115.57868157706926      118.17541506997286
H          107.08452845639293      114.37277923586387      116.52866969446778
H          105.63808311023419      113.78857243749135      115.71760910348863
H          105.01709412097152      112.64418304999597      117.94378968155419
H          106.66999503995588      112.96731865143084      118.45678573901777
H          107.53206660096728      111.65674600033374      116.53503325680209
H          105.89003260183053      111.46470399375971      115.92092413609330
H          105.31285433739838      110.29106171885155      118.11218542811979
H          107.03946905777372      110.24248066102109      118.46220487761778
H          107.42342007128850      108.98227211260821      116.34345047713614
H          105.70329654634742      109.09150764439332      115.97388965980416
H          105.30385535639461      107.88064410372658      118.22331829594087
H          107.03000003926080      107.52015454937248      118.21436780793651
H          106.71381419939719      106.44847837435809      115.93672872560640
H          104.98116516195883      106.72549259666179      116.10311180141343
H          105.16319517172811      105.44592597521545      118.34740923961456
H          106.73999481360903      104.90762001910664      117.79048163529025
H          104.03866832859454      104.45150504515901      116.44739225986370
H          104.98024328277123      103.24749490988886      117.31993498584494
H          105.84185139870593      104.59626792533864      114.72166961740361
H          105.07701506878543      103.01445365133783      114.85682448464276
H          107.00133449641915      102.20228564208446      116.20631899380533
H          107.75930970289370      103.78682562854988      116.06949001958583
H          108.79082895315378      102.35343539560509      114.45701794795161
H          107.81336815203031      103.52987722942495      113.57901139664013
H          106.09921285084943      101.86439942073541      113.12753111522709
H          106.83326895112943      100.72783292941256      114.25756189699894
H          108.83105349578598      100.55286036155863      112.80204028513340
H          108.13687634698429      101.72678422147501      111.69127346567386
H          106.28254881508747      100.20558169100731      111.17046867032330
H          106.83328625126754       99.05909072055189      112.38925353558487
H          108.91541583492689       98.67144096051756      111.13076347900132
H          108.45156837044730       99.89625327957204      109.95047414810503
H          106.58948623664217       98.56791378025343      109.17292082161089
H          106.75418968412902       97.43971848752322      110.52091236636656
H          107.61439112291104       96.37659015135394      108.54927621932104
H          108.95063751422759       96.69776179781431      109.65124589693458
H          109.56391992977964       98.70596343171249      108.29562449869046
H          108.24576781383298       98.33798172050966      107.17895304617834
H          109.29630703946201       96.15643649628070      106.65122746702407
H          110.56382944922279       96.47167995950502      107.83146275410479
H          111.24382021686907       98.49750150659862      106.50098084509284
H          110.01548324072455       98.08494460642770      105.30427113887660
H          112.01584176673646       97.21677095590702      104.40313120315071
H          111.21314632370569       95.80395004400461      105.08727501227223
H          112.62592113772141       96.14701464083404      107.18418387626897
H          113.51450098464193       97.38784865337237      106.30716129135641
H          113.27136884927683       94.45014768638326      105.52538897836877
H          114.65810271433288       95.19881774184746      106.31093314372313
H          114.93578613120738       96.69039365020883      104.30668435254145
H          113.64445960703851       95.79333209545965      103.50230584066112
H          114.96299819162068       93.67697108589982      103.87743308210952
H          116.30066791243173       94.65933439905135      104.46802258806478
H          115.05940615034086       94.92425904497634      101.69432101268323
H          116.48056596963148       93.94816733625241      102.06043683457858
H          117.64826745348742       96.01161860759777      102.88102683527384
H          116.26076031353787       96.97166575721414      102.35636768383939
H          116.55357470023534       96.08375412483706      100.03733057125748
H          117.99638973537961       95.22187419054443      100.56311769423719
H          117.62312644102025       98.24449425802226      100.67033559181881
H          118.47203142609335       97.37152382877922       99.39335083937104
H          119.99788689158272       96.43127764695392      101.23366354665990
H          119.30271995607185       97.64879476977468      102.30436320906738
H          120.74906195745842       98.21552470070581       99.67816214290100
H          121.44749597473236       98.35632124983299      101.29103383230246
H          119.72856751582292      100.08603973309864      101.85673491362370
H          119.10825043086290       99.97975852199279      100.20769539559099
H          120.53249053947532      101.90398830855166      100.37456776185827
H          121.31793056386650      100.72440033419704       99.32992112042216
H          122.93102597130675      100.15863814836405      101.02716476255830
H          121.95545287904547      100.89692098257549      102.29596595033559
H          122.36877406783562      103.13238889815497      101.36027672922290
H          123.30831050339363      102.43461174057123      100.04214674696391
H          125.07246495377836      101.76608470051097      101.52192373912514
H          124.03484248947883      101.89393269886547      102.93912212362291
H          125.58623621766257      103.73693467863995      102.96030528510693
H          123.95581519740298      104.35109993255591      102.69301628586221
H          124.43211613533947      104.59794822998651      100.27311240998964
H          126.01827549159745      103.86242034617172      100.50339949708736
H          126.37077520847730      106.21506049918784      100.36662459672429
H          126.60646315220883      105.77470129579092      102.05598045924037
H          124.32873693252583      106.61319310281284      102.59710697939892
H          124.05056910885179      106.95094348623367      100.88796048519234
H          125.94649732072540      108.57922589372917      100.92094380275300
H          126.22010907063739      108.21717197798371      102.61828378522561
H          125.00300851454179      110.29880834491556      102.42424733866797
H          123.99315739712034      109.08285264659874      103.20987269079546
H          122.68500937277415      110.41109235147810      101.67653064367119
H          122.72509832302275      108.74348348725371      101.12785973489935
H          124.43271840616170      109.32485369206526       99.42514867596743
H          124.47086936068101      110.98665618730108      100.01454227373729
H          122.08935945981139      111.26973522788674       99.37968281846841
H          122.02031153155713      109.58342422272239       98.86953324125830
H          123.80286591686269      110.08806909709516       97.15219671145155
H          123.74687514942002      111.77730966612016       97.64977693535023
H          122.37879104622370      111.65923885413881       95.71599582756139
H          121.24988508762102      111.74661509292731       97.06825849597924
H          120.94093224145560      109.27619934475685       96.95601502806188
H          122.08223049555951      109.19389135585234       95.61688280636453
H          120.58966738556362      110.61748631701234       94.24156235134495
H          119.47009998504097      110.76856860640693       95.59458625471410
H          119.14688583956763      108.27766531509681       95.56572855266924
H          120.18178949066862      108.18579569878413       94.14047221540238
H          118.59731230721715      109.70193862553525       92.93010828301198
H          117.56265086014740      109.73489240441072       94.35836188671843
H          117.26392787196018      107.26295652673103       94.18332484602446
H          118.28585427846326      107.25187837489516       92.74169801259400
H          116.67982546783723      108.87409716097302       91.66587878270609
H          115.61041408527180      108.67631517301423       93.05300255550091
H          116.51718270993081      106.37155284186801       91.27884493696548
H          115.04999133547474      107.30391306528169       90.99576319361448
H          114.19934026016156      106.64966629862245       93.24303228264125
H          115.62868554453209      105.64780630475410       93.48701030167955
H          115.03864238695145      104.29815079060619       91.49273697922638
H          113.62630190934254      105.31333476348782       91.21130063417351
H          112.69038248234355      104.63068486207747       93.40952315280016
H          114.10302190072639      103.61956240513939       93.70139667779706
H          113.53897791670667      102.25865668640496       91.69008880155111
H          112.11670752716721      103.26106128687664       91.41402841267281
H          111.22511297329947      102.60125032702683       93.64673047540182
H          112.64656100380606      101.59706926640017       93.91380235176668
H          112.02806251718964      100.20724854807173       91.93491574478777
H          110.59400216402459      101.20145312922270       91.69272827899283
H          109.78776339441414      100.57576434522568       93.97236468992283
H          111.21139522938950       99.56335946766312       94.19162922205098
H          110.51075281979826       98.15177585559147       92.26584720470824
H          109.09788450718084       99.17628573322314       92.02612170557050
H          108.29193080606481       98.59646650948898       94.31201373822307
H          109.69670319905869       97.55533454538444       94.53819985963253
H          108.96305329554293       96.08705578109000       92.71252747874566
H          107.67341924532742       97.20913331792777       92.28810143895093
H          106.64721629059370       95.41734852065748       93.46623412941241
H          106.63394930484174       96.81539171693638       94.54210797547972
H          108.55585801415381       95.89602963650225       95.79141805302889
H          108.64779853636318       94.52812304390065       94.68197272720099
H          106.44820339510623       93.73465451686489       95.39214266351492
H          106.17302475053187       95.20255328977385       96.32498858955613
H          108.04048287393199       94.62210029612892       97.83383386803850
H          108.33458186120360       93.13771002321364       96.92449982541304
H          106.09757513992560       92.29912848336565       97.48620501302045
H          105.69335679575809       93.81143102304000       98.29130176143023
H          107.88349765188956       91.89325831978644       99.20162395285725
H          106.24981527137457       91.96906105597679       99.85679579378721
H          106.72491089152555       94.44950502004276      100.38371776935338
H          108.41901915673367       94.08832791544026      100.06141660787925
H          108.34532173437036       92.29826819301641      101.81751848931940
H          106.66899936881480       92.73111423256019      102.15314992899701
H          107.37887203519007       95.04413250444959      102.71793009160544
H          109.05069951169554       94.61988066694312      102.36617363590886
H          108.76467663038426       94.62897927570174      104.73529174039692
H          109.00236731395312       92.95731830859238      104.23697841305571
H          106.68187522560228       92.42324040504775      104.59028476496754
H          106.22690811580799       94.12543218706217      104.64770794153458
H          107.47313739572732       94.42019972241522      106.75395045259455
H          107.98765106952625       92.73704382854537      106.71689750421243
H          105.70811211424513       91.95267652771301      107.01033656134156
H          105.05540774950137       93.56083845749572      106.71677073859141
H          106.09655480181500       94.39527017009399      108.80134736103554
H          106.80470814391339       92.80998578494697      109.10251304149953
H          104.56605610597460       91.80491370165642      109.29319421896261
H          103.80699841687959       93.33658347873998      108.86950600163347
H          104.68469024668821       94.37938942883065      110.92413337169513
H          105.54578836960955       92.89843336654508      111.33614431472890
H          103.39862676951003       91.66528809407330      111.44578076163992
H          102.51494290058378       93.13448315235456      111.05391214421917
H          104.31382381695465       92.84742694786848      113.49457344804809
H          102.59933249246525       92.44897044364505      113.51596266377270
H          103.70416314945345       95.21297759829267      112.85817769687566
H          103.14687210440462       94.69044978270786      114.44323227305993
H          100.88540244968927       94.18993321506956      113.41949462751442
H          101.45024843502574       94.94369271672817      111.92793576931807
H          101.92821951363956       97.04461837137499      113.19123976202575
H          101.30106926100304       96.29685068361317      114.65386328935693
H           99.07498623930788       96.08080975405558      113.65438794877149
H           99.67123793294627       96.67307150762180      112.10489158260873
H          100.17419192897056       98.86332029510302      113.06751463006246
H           99.76444428906045       98.29347138573920      114.68519720649353
H           97.42031567975513       97.96889143249231      114.02297829032058
H           97.79350672078674       98.42648078145642      112.36224355796395
H           98.40345004527900      100.69555157963585      113.07664259745988
H           98.19166790572692      100.25317536029344      114.77139938587811
H           95.79508013236537       99.87902272205625      114.42861924167575
H           95.95498583622742      100.18009879744353      112.69927715510076
H           96.59031169458231      102.50743520648088      113.10673501161304
H           96.63744745081713      102.23066138442486      114.84820966186864
H           94.24413053660280      101.81111661883516      114.91840014418331
H           94.11469876575202      101.91760153573638      113.16436827267559
H           95.22296973068379      104.24285191575649      114.75603062863381
H           93.48199561680677      104.00589252633014      114.65248997840037
H           93.48913458673152      104.24447468558000      112.25576074406138
H           95.24978059864509      104.18178988024141      112.18613196255251
H           95.45976659302677      106.30353723608366      113.32719947800543
H           93.72967302437770      106.36967055079050      113.66048943523418
H           93.19616482841968      106.69814105832673      111.33152037488020
H           94.82407329096544      106.27024854310056      110.82111924992360
H           95.73297451462059      108.28964512359357      111.92148495783354
H           94.11793430274570      108.73081118244677      112.47933326874690
H           93.34519302665761      108.94866653867567      110.14348838056458
H           94.91991387273235      108.42647479145531      109.55039052220440
H           95.98904682154480      110.41906795442003      110.52695294713894
H           94.45215006953481      110.93373267179446      111.22461284024131
H           93.46731737967679      111.08272635980246      108.94769462195468
H           95.01199024615998      110.61241565014838      108.24289111379956
H           94.58376231643732      113.10590122098365      109.94415279987798
H           94.51564600717708      113.07450764181311      108.18245833806886
H           96.88395636931736      112.08829699143290      108.23647675224036
H           96.94647816886864      112.56573211433982      109.93444907486156
H           96.39112826574656      114.45658732142661      107.60724836353860
H           97.97132620905064      114.20383054577349      108.34244572668170
H           97.11070083127264      115.04669175110510      110.51288945738358
H           95.51653269005787      115.27082748859924      109.79504407001905
H           96.57351482174988      117.41303948236978      109.83504712310358
H           96.50944197832628      116.88779597744541      108.15414551852595
H           98.90216288465506      116.19231216560570      108.29208068440842
H           98.94575482821860      116.70463454964333      109.97922193605368
H           98.46372176157597      119.03826621908436      109.28714786528069
H           98.35621781443338      118.52344111070437      107.60366401947962
H          100.72784024924309      117.71385744395569      107.73346890936730
H          100.82461936421990      118.33232033833534      109.38156512703551
H          100.38082184888462      120.63684492697435      108.53204030795487
H          100.27925586748526      120.00268838930984      106.88937531374469
H          102.63310668575649      119.12239467668351      107.14727804634018
H          102.72811041359107      119.93749161161558      108.70563480632960
H          102.34528399419581      122.12336769550318      107.58976661568113
H          102.19826634075473      121.31042949384607      106.03352383327041
H          104.53536455935915      120.48482701327130      106.23252964526554
H          104.69789728190334      121.29580335436795      107.78679274938014
H          104.31255168200893      123.48550565724783      106.71110133579765
H          104.07481542441488      122.70547617162096      105.15310471054531
H          106.37344876147463      123.63403921321084      105.35399143139881
H          106.66426318250630      122.62960684675467      106.77438171140331
H          106.42483814922527      121.88044403674212      105.20043447483623
H          102.01396298171782      119.19099806962771      116.72104120616929
H          103.43707750858552      120.09600348872392      117.23898060977518
H          102.73938411464827      120.38121475582008      115.64300076908455
C          111.77740849435418      100.77091668673590      114.86074133625343
C          110.60092061284077       99.93201155611835      115.34194399318358
C          110.05462590951610      100.41758218877509      116.68203768940866
C          108.74926372334991       99.71575856340121      117.04359492303986
C          108.23695551604570      100.09733520838753      118.43146696584739
C          106.77422443379385       99.70006346081435      118.61116697724533
C          106.26616589839630       99.91354146741133      120.03391012595435
C          104.76007442845675       99.68450270975084      120.13146610458816
C          104.24149124022415       99.80323955162686      121.56191613940024
C          102.72718119786070       99.62407658503166      121.63558103983756
C          102.18710920160518       99.80114685842111      123.05321579865212
C          100.66055750705230       99.80153668431717      123.06992733774887
C          100.05319228405007       99.89681837648004      124.47026386303376
C          100.46593523781253      101.13161123556594      125.27535412398305
C          100.19637421572116      102.45299693793747      124.55823835481908
C          100.36364992631756      103.65176157060692      125.49160307681318
C          100.40776873602620      104.96717461602417      124.71893155283279
C          100.43745729910884      106.19389834863637      125.62883050279284
C          100.57167452444509      107.48042477922537      124.81633326344448
C          100.41144330245417      108.74126741833382      125.66286748249125
C          100.63437571681600      110.03307270447634      124.87188052213652