3795
 energy: -5103.636604026990 gnorm: 0.000969394424 xtb: 6.6.1 (8d0f1dd)
C          112.65657500020509      104.56420063675648      111.51887338971409
C          111.98167632150987      105.78189469960658      112.10906521882499
C          113.45318410181606      104.84322340957868      110.24475165167357
C          114.70598034095026      105.67852896419969      110.49654992795060
H          113.75185996410534      103.88280978559892      109.82120720836137
H          112.80404195246258      105.33995004525879      109.52144190330654
C          115.52899106875743      105.80347334123611      109.21151747302017
H          114.41852033872259      106.66875930632543      110.85600129844478
H          115.31246786045469      105.20084938714517      111.26854825015951
C          116.64753456105809      106.82033604606229      109.32485489646473
H          115.95643672170640      104.82839367150403      108.97038950507724
H          114.87621642130821      106.11035128880093      108.39224161919456
N          117.59189709938906      106.54422261335674      110.22045261783511
O          112.33303101212032      105.98038656988416      113.36496974781504
O          111.17912810668055      106.47561395004284      111.52566104159963
H          111.83856329613911      106.73807788592769      113.82431978895448
H          111.86313791441751      103.85194620291368      111.28220687438264
H          113.29523378130193      104.11901137653139      112.28191902015141
C          118.69107870895128      107.44033067989042      110.51081941448366
H          117.53654120757943      105.69051126673401      110.76971469015780
C          120.00385791279264      106.69774478303084      110.72790419357840
H          118.78623271716702      108.14244889538124      109.68062243910506
H          118.45751374135800      108.02668811479305      111.40856952753293
C          120.57348648724084      106.03828866387123      109.47152163456805
H          120.72448163320462      107.42719113568464      111.09910935665806
H          119.85986209047320      105.93696819426357      111.49802294534261
C          121.94964096902943      105.44407256383026      109.77534733378897
H          119.89014956418475      105.25725490800772      109.13741639728137
H          120.66244016548698      106.78145732273369      108.67633786311116
C          122.66525858653870      104.80180094881823      108.58494758819549
H          122.59093652251643      106.24471780770394      110.15330737405139
H          121.84654395051575      104.70303370871964      110.56933157416030
C          121.97123431090138      103.56175326267959      108.03853424592347
H          122.75456061187589      105.52510981798881      107.77249809906080
H          123.67402376677846      104.52450594308475      108.89793060987695
N          121.91229499225811      102.50175828051559      109.02641569653326
H          120.95455874849920      103.81078348626680      107.72253235289541
H          122.50574644859992      103.18758292433230      107.15850410181771
C          121.51231460528258      101.26273599064540      108.74053636510531
H          122.20483100714941      102.71910681888355      109.97060459044965
O          116.67748270092707      107.82734723174974      108.61365444581250
C          121.41202397430868      100.34219992279469      109.94294368538810
C          119.92796100982734      100.04394962879249      110.20507730050608
H          121.94175915793947       99.41134989035000      109.73835849251425
H          121.86451625805837      100.82672135905520      110.80585501028871
C          119.40201064326509       98.94239773306279      109.28023739963115
H          119.79491641312883       99.74568888900424      111.24618561952337
H          119.35436677093443      100.96165675605519      110.04878890702898
C          117.89535649793955       99.03325097048011      109.06294453563571
H          119.92498670616074       98.99182079544612      108.32512752219095
H          119.63113721120351       97.96928557638178      109.71883027864301
C          117.38146417184512      100.20866438737337      108.24645381218076
H          117.55027551182754       98.14024045869162      108.53320522862948
H          117.37684967802534       99.05485711244408      110.02440777656112
N          118.17694934124805      100.70148621826291      107.29797839405882
C          117.75843541118820      101.72074839125732      106.35588495568666
H          119.15333910874212      100.43829547862728      107.25145725143798
O          121.18740862768476      100.90838832046360      107.60586396396381
C          118.81019691889129      102.82093190285494      106.24230253761475
H          117.61275957139362      101.25050649668435      105.37627504754295
H          116.79699626573297      102.10687861610725      106.70114877418737
C          118.62625414115907      103.70691950083554      105.01053053215784
H          118.79325905885177      103.42387625915212      107.15146064818141
H          119.78709820591693      102.33622958280216      106.18219091990218
C          117.43777680112852      104.66727994087762      105.09248092709491
H          119.54332868666204      104.27501202185510      104.85262547137347
H          118.49119223761589      103.06239913716846      104.14024178237615
C          117.60370541426778      105.80140780565685      106.10585131027250
H          117.27538287450821      105.10304062349933      104.10544573289168
H          116.54257421974836      104.09850117462601      105.34573635416402
C          118.72560441329024      106.76507325476179      105.74065346654703
N          118.69868817239531      107.94109926324167      106.59089567140600
H          119.70220843692157      106.28024616353932      105.85082860010412
H          118.62725777016992      107.08687252063014      104.69777948562378
C          119.44023560617488      109.01236892164593      106.33015049758295
H          118.04845567691193      107.94753633105779      107.37408410794184
O          116.23264387808874      100.62189107867897      108.41788577930875
C          119.32727652820185      110.15973710896388      107.30411386595877
C          117.93049287864548      110.78384228375945      107.29907632673404
H          119.57852272225817      109.82399263645931      108.31234318913218
H          120.06840736089787      110.91132449425884      107.02126494514276
C          117.94930497893691      112.09802548522391      108.07166170577102
H          117.61708705679916      110.96868307839577      106.26979563602957
H          117.21883609721621      110.09426307167409      107.75253710902263
C          116.58768317004433      112.79886559092222      108.02811172075135
H          118.23322937631301      111.88954123431330      109.10508332964267
H          118.70425995230198      112.75809627616587      107.63756069512876
C          116.64230872714496      114.02968272523516      108.90388364568918
H          116.35633626286797      113.07411891570439      106.99929089930393
H          115.81573359624868      112.12602807363457      108.40233360628019
N          117.25457280563919      115.08545750869818      108.36819854196231
C          117.64036751251062      116.25348530239827      109.13238508477015
H          117.67325098095088      115.02011692337558      107.44737957686415
H          116.66974799533423      106.36330855985169      106.15372569784888
H          117.79159290969692      105.39577161829659      107.10062031249980
O          120.18613556678233      109.07363252545666      105.34445766379253
O          116.17096160382150      114.04115801635170      110.04284421689501
C          119.15239099377919      116.44252964663906      109.06378237333749
H          117.14695106489995      117.13353705203245      108.71380103078297
H          117.30804247657649      116.10007257749606      110.16092030528765
C          119.91112254883349      115.34974696399219      109.81149426079972
H          119.42873057050201      116.40432950556870      108.01067174750092
H          119.41177226719468      117.42574814421330      109.45473318626438
C          121.40995495657211      115.39368197200277      109.52043298251951
H          119.75071552257374      115.45500703632646      110.88441545997787
H          119.51491706607169      114.38095684485572      109.50808763349188
C          122.17325311212271      114.23094112672743      110.15245469829009
H          121.57351432659918      115.37170032412682      108.44142157725371
H          121.82379106031809      116.32779328911896      109.90297283821650
C          121.88366297564473      112.89618145963252      109.46929465002995
H          123.24627811559220      114.41884458095949      110.07742946338443
H          121.92281734884094      114.15127676465272      111.21161026929271
N          122.58421921940160      111.82081746239555      110.13142161467442
H          120.82227508746746      112.64221866651050      109.50353026447449
H          122.19258306356129      112.94924281253101      108.41864863267978
C          121.98858244932654      110.68959517665790      110.52998679821954
H          123.57048679630577      111.96585076944886      110.31437749538964
C          122.89987587850710      109.77032380266427      111.32300728885335
C          123.05792215258273      110.29079483470419      112.75579129335584
H          122.47664490534433      108.76592159780118      111.33023894973940
H          123.87839832739999      109.74638580678862      110.84040165770230
C          121.76240536234607      110.27457812829311      113.56759842402818
H          123.81206287201213      109.68862342708407      113.26895456244694
H          123.43213923834597      111.31558811668872      112.71581900184133
C          121.33043849184958      108.86086946572102      113.98664750308639
H          121.92063531933071      110.89114562929426      114.45392029511041
H          120.96833074162429      110.73086673332730      112.97869933844149
C          120.56645350286153      108.87418843490369      115.29705164933920
H          120.69681592109080      108.42318924771001      113.21481043923241
H          122.20772064609345      108.22704277524149      114.12048476406613
N          119.44816380881555      109.59532238542272      115.28840495410327
C          118.68954754728541      109.88507647369379      116.48398641303972
H          119.11013819511741      109.99113764423640      114.41272256897388
O          120.81443214680999      110.42697280155271      110.29431860018137
C          118.73895973538185      111.37960530472320      116.80468939675714
H          117.65260354426928      109.57462100070070      116.33811898047352
H          119.12891967629893      109.29907770965956      117.29311761592655
C          118.19036164582170      111.72691062752904      118.18603859611198
H          119.77447226228433      111.71935288792730      116.73203231893488
H          118.15899043882955      111.90550109916857      116.04655386864077
C          119.09764154556217      111.27700760995900      119.32865705374891
H          118.09091897959480      112.81284772378064      118.24575559408389
H          117.20089416579326      111.28815883697526      118.31679218956901
C          118.58472919912947      111.79955808922604      120.66706733389762
H          119.15865222489325      110.18901865918554      119.36867508952912
H          120.10564272990251      111.65772426589848      119.15238640022649
C          119.63452909688245      111.67789947306247      121.76144712805440
H          118.31649130871216      112.84943051928026      120.55825479000458
H          117.69441738906681      111.24190184712840      120.95894895264875
N          119.15182828714536      112.15007267565473      123.04213216043330
H          119.91961658501837      110.63428877069694      121.89242936950794
H          120.52591246609619      112.25379702068993      121.48191161517327
O          120.96262217585800      108.26372723454540      116.29422657248060
C          119.32488627717781      111.45994683219176      124.17373542529432
H          118.56086392060746      112.97716489405165      123.04773167504922
C          118.84934167228569      112.16925324691094      125.43027336936888
C          120.08799018140910      112.79466727275910      126.08478925383960
H          118.10685832302131      112.92693104921906      125.18572246661735
H          118.40408743602688      111.43398057651027      126.10020034804394
C          119.88911392976036      113.19396334632678      127.54304740142366
H          120.89777362879140      112.06377304873729      126.03058139789157
H          120.38737870031372      113.67020817348563      125.50544365820714
C          121.15876287489461      113.82732815796660      128.11018820829219
H          119.06586305215579      113.90235590585628      127.63345707814113
H          119.63105499284603      112.31496788704685      128.13548769500557
C          121.00530618340434      114.22190168097490      129.56689775914614
H          121.98794054172851      113.11669929122176      128.04101113913649
H          121.43147875639823      114.71537932420325      127.53987669735905
N          121.86092446722368      115.15396253841291      129.99127918861566
O          119.91505819902447      110.38273194463731      124.22198061885247
C          121.76510262195690      115.69755234690194      131.33254353839391
H          122.53450944139863      115.55908984564665      129.35180286033855
C          122.78208035082967      116.79574478871231      131.60657211412797
H          120.75066990946230      116.09408416718041      131.45779397180848
H          121.89556275413980      114.87888120444424      132.05093306448055
C          124.22078092538280      116.27688156585872      131.63535967552318
H          122.67437624443367      117.58064358318097      130.85824415543686
H          122.53966767736482      117.22686638431742      132.57945736970089
C          125.14958735721065      117.15468277829068      132.47721030082491
H          124.22309568470722      115.27798961797301      132.07700752884483
H          124.59568879220024      116.18954065776261      130.61665454453095
C          125.36256415411279      118.57049822377392      131.94111750784580
H          124.73478737832480      117.22662059790045      133.48460747177572
H          126.12274041559515      116.66508755162150      132.55984008718696
C          126.21645548811334      118.58428781752812      130.67025852548366
H          124.40608254551655      119.05462818236612      131.74062380829628
H          125.88189115091195      119.15947608625419      132.70061244327769
N          126.52753923207980      119.93069015243350      130.24641549947012
H          127.16406887985097      118.07417955764647      130.87076726525450
H          125.70308784472530      118.05789601337592      129.86754901987334
C          125.88729917047820      120.68711238702677      129.34907849164040
H          127.23457728910476      120.41594903742561      130.79651018744909
O          120.17409731094935      113.70040756109805      130.31000416906758
C          124.76068751218820      120.04759106704155      128.56719282891271
C          125.27034059743779      119.20175068899209      127.39341323111209
H          124.15412453573320      119.44771477077460      129.24220894547202
H          124.13440764258715      120.85111559685029      128.17885015956395
C          125.73411152940943      120.08318425652010      126.23827851764415
H          126.09223744331170      118.55900648466260      127.71351060367471
H          124.45876503203664      118.55682082843052      127.05448328370782
C          126.07095459093729      119.26772353356623      124.98742128721584
H          124.93935639038169      120.78653967180345      125.99468793520916
H          126.60990557079768      120.65520672331486      126.55134211247569
C          126.60752302073374      120.16972199003845      123.89885022361885
H          126.82718756231606      118.51782924696498      125.22101391951954
H          125.17133127191072      118.76693611390628      124.62923938035988
N          125.72633978642826      120.98238693839862      123.33197013441584
C          126.07968999459102      121.96482885894036      122.32157515401207
H          124.73499909816921      120.88531011784828      123.53171913882676
O          126.22803557506364      121.85556078261250      129.15703022025434
C          124.94006672058680      122.94479851865579      122.09187507743702
H          126.97194674432673      122.50607749582215      122.65112099660604
H          126.32078828702969      121.44604187573123      121.39014183233438
C          125.23440946482434      123.93561118524910      120.96454579077977
H          124.03224245477901      122.38583396789656      121.87225004716858
H          124.77523792417827      123.51198879295856      123.00722839400976
C          125.57023620410556      123.29529122371511      119.61582151048989
H          124.35578868488905      124.57302508432493      120.84269659188087
H          126.07634950053807      124.56240509804982      121.26470692486166
C          124.52292386467066      122.28831238108957      119.15079990036386
H          125.65107457163371      124.08733388774880      118.86778502037038
H          126.54571582975865      122.80773766161170      119.66598617925027
C          124.80936985290921      121.79482470002525      117.73218064165334
H          124.52419795729587      121.41987464166672      119.81030854608365
H          123.53356178031244      122.74591159918559      119.18474783503586
N          124.02981023637339      120.61783292876913      117.42526663916989
H          124.56202636136791      122.56098678061147      116.99311707860244
H          125.87459263150137      121.55411654038730      117.63400801494883
C          123.10231956963877      120.56153985710743      116.46290066665651
H          124.22409547124913      119.78825233324282      117.98145439612816
O          127.81202010461979      120.15541374325004      123.59614678469644
C          122.38117763643038      119.22653571949512      116.37660875904800
C          121.05349371837434      119.29451328301792      117.13796133345593
H          122.18611269138515      119.01469607638712      115.32623696406699
H          123.00792423881245      118.44056881494546      116.79731410881170
C          120.21476446565670      118.04055968280031      116.90462657887083
H          121.26976876486810      119.40013541926344      118.20135628005103
H          120.49814867190113      120.17377925033894      116.80811638821297
C          118.97468040828160      117.99173207915221      117.80228288847566
H          119.89973942091257      118.00945256107084      115.86160490225657
H          120.83186728065635      117.16113901732764      117.09840313983604
C          118.26956366632514      116.65668649370404      117.64979736528049
H          119.28554609370747      118.09480103262132      118.84353505445043
H          118.29653948103339      118.80431907732311      117.54580384852744
N          117.24332825085060      116.64370450884788      116.80747835482499
O          122.83636637303219      121.50483140737377      115.72443727828242
C          116.45217847593118      115.46524783362639      116.51834899395281
H          117.02609653203187      117.46307316657307      116.24009198071828
C          116.08594820808193      115.40103340115678      115.03995458244566
H          117.02817480316443      114.58371290147629      116.81708609548959
H          115.53448961877059      115.49615242107649      117.11664683800898
C          115.27422242359785      114.14485641923041      114.73264402770972
H          115.52262611065829      116.29746199568743      114.78528701789378
H          116.99740865760799      115.40555569205353      114.44060836805592
C          114.77621737899995      114.08747688648658      113.28785563844062
H          115.89836436515105      113.26881955528444      114.92449385717369
H          114.41590111851872      114.07879782106139      115.40262550410283
C          113.51733377587652      114.92412616997909      113.06802695997162
H          115.56716178780712      114.39833314480816      112.60550393293954
H          114.53465455466353      113.04936014955696      113.05783946048803
C          112.97137139078788      114.80470037389698      111.64232534927933
H          112.75062180598592      114.57542956828223      113.76061299271737
H          113.71611852139826      115.97447092746241      113.27948680974599
N          113.71068542886310      115.62643525947253      110.70851696949018
H          113.02605851038143      113.76592818542089      111.30938359886386
H          111.93250743138023      115.13665527215960      111.60329429733051
C          113.18560550935005      116.68021052182758      110.09126935049510
H          114.67310126176601      115.35252270837464      110.54455097207530
O          118.64007569433944      115.65709286808844      118.27560268597291
C          114.14882802976287      117.52831310360968      109.29635244793164
C          114.89062210272924      118.44782379738562      110.27717683281523
H          114.84896517924291      116.89687049753931      108.75172495702043
H          113.58848371520321      118.12792213178345      108.57670556874255
C          115.62601649521260      119.58150096136762      109.56815466762521
H          114.16814673400704      118.89108236793388      110.96673092878682
H          115.59725306821946      117.85844204367334      110.86272694338287
C          116.53126918876470      120.34493761779498      110.54266512881325
H          116.23011379051347      119.19435754876967      108.74736026265879
H          114.89099326530344      120.26576335215967      109.13893559361378
C          116.85910167949643      121.70471853338665      109.96333934315669
H          116.01387188002057      120.48101745090747      111.49126608962459
H          117.45043583644518      119.78672396468316      110.70893947793940
N          115.92696038442905      122.62608013890686      110.21048296553555
C          115.92107053843823      123.95425864954628      109.64870723821136
H          115.11605002837291      122.38539191510480      110.77419794877905
O          111.99529903050036      116.99478397095244      110.20538530282762
C          115.63551705618949      125.01738448948961      110.70842381331965
H          116.88949706026393      124.12896941913357      109.17731298463241
H          115.15522319679472      124.00051173193818      108.86471499146326
C          115.23215253969055      126.34182322438276      110.06068616694364
H          114.82695912623396      124.66221939539228      111.35082293453443
H          116.52309901509355      125.15571722129589      111.32852023477167
C          113.78168031385410      126.31344943519740      109.58410337556049
H          115.34931995840890      127.15562489796066      110.77700819846497
H          115.90213067029883      126.53667213815035      109.22334162727981
C          113.43032924007439      127.43793967956577      108.61272711044737
H          113.56835856640106      125.35814815599771      109.10075815689815
H          113.13188512190466      126.38913833605000      110.45668791834160
C          114.14001712090007      127.32773618884660      107.26239053880413
H          112.35421546260130      127.40256259419068      108.43054053542446
H          113.67899194429668      128.40126903465833      109.05644910043547
N          113.90649986381648      126.03789484783276      106.65438793797892
H          113.76385185570223      128.11289343163344      106.59638981599981
H          115.21913892252026      127.45524127461694      107.36540817154865
C          114.87287600319935      125.21803464173826      106.23372208973271
H          112.94262220096300      125.71807387894860      106.65443025740154
O          117.86701563196253      121.91797336571003      109.29261969165742
C          114.37459466814514      123.88441935107248      105.70310907559619
C          114.38195227217746      123.88145661134270      104.17114626074721
H          115.04159494783781      123.09772381149496      106.05829822600160
H          113.37229273423782      123.68176848626904      106.07442354732308
C          113.39726386564779      124.87749265826169      103.56250644922279
H          115.38850747643630      124.13532898880611      103.83098206941389
H          114.14363072503782      122.87812071096154      103.81704716990593
C          111.93323041359120      124.46838054287574      103.74819316449252
H          113.55252167945270      125.85699699629748      104.01912773438632
H          113.60506503885392      124.96780451872063      102.49500876730842
C          111.02416576019289      125.55448271250724      103.21855254012699
H          111.72142379226575      123.54068964497112      103.21360354204592
H          111.71797189347934      124.31428095629637      104.80173752682470
N          110.50210208581052      126.35345037346497      104.15444702938665
O          116.06612591535347      125.51640501382273      106.23899264756447
C          109.59422829536514      127.43529598865744      103.84029744288227
H          110.69613644688802      126.15755522047407      105.13055469788408
C          110.19690959592933      128.81946662080057      104.09255133203679
H          109.34741357296834      127.33067686440097      102.78057363648094
H          108.67938784287132      127.31445253409001      104.42786578887339
C          110.26877986106201      129.18765351246799      105.57351842129566
H          111.19326906028371      128.86037651586173      103.64875195773848
H          109.57382829260925      129.55137450705345      103.57546001288496
C          110.72610028955481      130.63614177633036      105.75247007218886
H          109.27618771948997      129.07080087592604      106.01403729031053
H          110.94812056655719      128.50748628630654      106.08809295305355
C          110.55149582657668      131.16368078190229      107.17635502691284
H          111.77353552599868      130.73010665805475      105.45826449052842
H          110.13930627844071      131.26731304920477      105.08130084597742
C          111.51766018951328      130.52105306724357      108.17443176286245
H          110.72331166503136      132.24387771329282      107.17091962058150
H          109.52249714075111      130.99316807061510      107.50355111507609
N          111.43216500837272      131.06200033806351      109.52783879219686
H          111.32588223658991      129.44996343322134      108.23973435398587
H          112.54512804068523      130.66367933371419      107.82662327384810
H          111.50890191886626      132.07473816186442      109.49719048126899
H          110.52531545624686      130.84645533423927      109.93053517506664
O          110.81009733941852      125.71579395279949      102.01584217917302
C          130.06824124261988      122.22538879083133      119.95843916595179
C          129.82740229342264      121.45083302123680      121.22565103458548
C          129.92337675798055      123.73196655469643      120.22822828756668
C          131.15951016042433      124.29043505455520      120.92484126754688
H          129.78726351159699      124.23368640844390      119.26957512297140
H          129.03568386067596      123.92869578650972      120.83368637721128
C          131.05656737964776      125.80633296828680      121.11605110906116
H          131.26965422830349      123.80975403957731      121.89873655833668
H          132.03663210578867      124.03366999890038      120.32751310124303
C          132.15515188031006      126.31431955369303      122.02793738047804
H          131.12673706940009      126.30685920735894      120.14876899042200
H          130.09311353486126      126.04719799146444      121.56642854002045
N          133.40039768461995      126.09828809761285      121.57659875685894
O          128.63783664329716      120.90189001631238      121.26849968463320
O          130.63714293923746      121.34036976129407      122.13121806618061
H          128.37068004952567      120.56196709674509      122.19879131501524
H          129.33355418920698      121.90861804319786      119.21849815417492
H          131.07678301714154      122.02693468603599      119.59403279851303
C          134.57272949652710      126.26980336401731      122.40490242328036
H          133.53500216820660      125.66700511984413      120.67623208196429
C          135.54532452703410      125.09937949759716      122.25736629942219
H          135.08614928077282      127.20201575912564      122.14220060035794
H          134.21842304062702      126.36025412460144      123.43440319620900
C          134.90446001172793      123.71285627086419      122.36379699593827
H          136.04137787381381      125.17250032425162      121.28706968185453
H          136.30957290047112      125.20505735382743      123.02846867046505
C          134.13650865195353      123.45775605248870      123.66052330518846
H          134.23073159441202      123.54254850784309      121.52213988216027
H          135.70903820783758      122.97726243091145      122.29449944094013
C          133.76100722433577      121.97907915754202      123.76188265711258
H          134.75876869013331      123.73144193444701      124.51535946269880
H          133.23323014734476      124.06889787868315      123.69285089831050
C          133.00482289106699      121.61823215820797      125.03612761918538
H          133.14748570709480      121.69814636483912      122.90267715347328
H          134.67548962568117      121.38393579451130      123.73004383842571
N          131.59569035313200      121.93756034929540      124.93631237272717
H          133.11158852298553      120.54251770615207      125.22694199477937
H          133.40738977412769      122.15064326781332      125.90220579385493