3795
 energy: -5103.007949651749 gnorm: 0.000985653338 xtb: 6.6.1 (8d0f1dd)
C          112.61274088445707      104.64686984590934      111.46347121141442
C          111.97796844192503      105.88049640445642      112.05718955354153
C          113.42970745117566      104.91100398476682      110.19866176442179
C          114.71178018978897      105.69340939101782      110.47450328689463
H          113.69684233590954      103.94683735674127      109.76494136950667
H          112.80793865449941      105.44286251588275      109.47749948889505
C          115.53830512736951      105.82703289953761      109.19113884267638
H          114.46256350971804      106.68354380173093      110.86165901641945
H          115.30278455688085      105.17366121134138      111.23061749614057
C          116.66358581337153      106.83249043156772      109.31418318455850
H          115.95860837379129      104.85133811833811      108.93858306758925
H          114.89113596146150      106.14804357725704      108.37264799030748
N          117.58153409370033      106.56733946804560      110.23809476980212
O          112.31453366008810      106.04123657089637      113.33041193477911
O          111.22102251620414      106.62344147911131      111.48117928105630
H          111.84086955607802      106.80350900520526      113.76921655424522
H          111.79864427553046      103.96525223096829      111.20938542016563
H          113.22734002204507      104.17067603996266      112.22690810698106
C          118.68194836023397      107.45845212858828      110.53755941229579
H          117.51382262506937      105.71891804877002      110.79938695234021
C          119.99045955382329      106.70592284325387      110.75017434519215
H          118.78073403676802      108.17049116784493      109.71625153719282
H          118.44750278355180      108.03413972405093      111.44182781258331
C          120.56832754247114      106.06399353841917      109.48808518085237
H          120.71287399213784      107.42372886612891      111.13993072014543
H          119.83580017540116      105.93232772597837      111.50477359324341
C          121.94441808113486      105.47068881839357      109.79426675973244
H          119.89006258377422      105.28436583497849      109.14014537616470
H          120.65899578376437      106.81658155481209      108.70145463443815
C          122.67107175254937      104.83983082588399      108.60476289478746
H          122.58103459653485      106.27033498045148      110.18316901271480
H          121.83741704586399      104.72222061529233      110.58028397024123
C          121.99438806384397      103.59317910779956      108.05257724957333
H          122.76078828504593      105.56689112087889      107.79591271492153
H          123.68009356120041      104.57041263759825      108.92431754898777
N          121.91393211968018      102.54422541375791      109.04916125487185
H          120.98396299129126      103.83239475895880      107.70840032164513
H          122.55244460968056      103.21846730917457      107.18674423683176
C          121.41435002176203      101.33785263291333      108.77667267756753
H          122.26326871027297      102.73926224516728      109.97930040669587
O          116.72056983922442      107.82860007367699      108.58504783245174
C          121.30624296932507      100.41357075513349      109.97646636853335
C          119.82315764171571      100.10221190864009      110.22281107536794
H          121.84639709335224       99.48751987879285      109.77396836343968
H          121.74860887055658      100.89602093249265      110.84597010869557
C          119.31569490526603       98.99045891091053      109.29934157424846
H          119.67916617444702       99.80810373840158      111.26449220058780
H          119.24383807357509      101.01341824306591      110.05382751885688
C          117.81264315409403       99.07310523057258      109.05905662862672
H          119.84967937542406       99.03173458014948      108.35019685973531
H          119.54326363838622       98.02139130522629      109.75032042221048
C          117.30098778710105      100.21755476459175      108.19623911743170
H          117.47400397780962       98.16255767450839      108.55444199031575
H          117.27972077113779       99.12136219146630      110.01205556917927
N          118.15224197528791      100.79474423295883      107.34866225953597
C          117.73020873998873      101.78048359115938      106.37494708136093
H          119.14941484976113      100.60374207223438      107.37658974234886
O          121.01321815792080      101.02107267181576      107.65978470986371
C          118.78654367278402      102.87085797188018      106.22537245317277
H          117.57904274565084      101.28288658384182      105.40810334252474
H          116.76830348889578      102.18007653306211      106.70566339255899
C          118.59189308402114      103.73623248702732      104.98116342127963
H          118.78866988571127      103.49134836327923      107.12261356537330
H          119.75888533318518      102.37886049245726      106.15937672842512
C          117.41483429021032      104.71080854375516      105.06301022481699
H          119.51139515619498      104.29301686519221      104.79414008217007
H          118.43498943086345      103.07912442101099      104.12316356326382
C          117.58727666811799      105.83335554875060      106.08784662321919
H          117.26279437610620      105.15704382250938      104.07747745655205
H          116.51061845083738      104.15105507356702      105.30451037797316
C          118.74635200176229      106.76645589942264      105.76197509651254
N          118.73747011991613      107.93184051791438      106.62565866655021
H          119.70437974977715      106.24874120029673      105.88813996018527
H          118.68460317488612      107.10519764227061      104.72099749400432
C          119.44585776819308      109.01865813771492      106.33607568636266
H          118.09630287434807      107.93231899835448      107.42017415593386
O          116.11519813295298      100.53677993453709      108.24897563385632
C          119.35446102815752      110.15910324009562      107.32148093359736
C          117.96206209110464      110.79245671158660      107.30921795226377
H          119.59813634361400      109.82186166057059      108.33054603549448
H          120.09975362457226      110.90623085683869      107.03929777137201
C          117.98584049106978      112.12021493560208      108.05776831848493
H          117.64659325612563      110.96235256815946      106.27729180175812
H          117.24671342728375      110.11391923129410      107.77365637640209
C          116.62976460547250      112.82988066083428      107.98196487664481
H          118.25643061448413      111.92847715761697      109.09745558355286
H          118.74887949456418      112.76856195911918      107.61999856911390
C          116.66294304866867      114.06531748686997      108.85065610020831
H          116.42158341103082      113.10196566568955      106.94680291915421
H          115.84330693044522      112.16447557819514      108.34061432316473
N          117.30955599198865      115.11151762336311      108.33614613279080
C          117.66987220532747      116.27572708723415      109.11585173828963
H          117.76417127480877      115.04754839532542      107.43030637368739
H          116.66943294717446      106.42250849940999      106.11693095142640
H          117.73835532942778      105.41493492268012      107.08300088193046
O          120.14182880611655      109.09977069634088      105.31787836671762
O          116.14565984933927      114.08801210261856      109.96966078239332
C          119.18122892821120      116.47638302943919      109.07798913658829
H          117.17754074310358      117.15710601831685      108.69673108420477
H          117.31647048748421      116.11426209455753      110.13717802303825
C          119.93749466923769      115.37330626816271      109.81272718173098
H          119.46913566000721      116.46383150948688      108.02750353320678
H          119.42660997263455      117.45491812689856      109.49208476336162
C          121.43994761055208      115.41831276395889      109.53818272747947
H          119.76401293054934      115.46067737764106      110.88623764398301
H          119.54264520657411      114.41037360079915      109.48984653274165
C          122.19299019950925      114.24406378045822      110.16065425512582
H          121.61205514448420      115.41216448490624      108.46012965451024
H          121.84923587932134      116.34910805101732      109.93656169978468
C          121.90376506540079      112.91979177229473      109.45559927257725
H          123.26596517562791      114.43125599341332      110.09733615575840
H          121.93133469331848      114.15374045851456      111.21621781124227
N          122.57965909876228      111.83016600136175      110.11582220786478
H          120.83846570013985      112.67836376132077      109.46734752138795
H          122.23188417522422      112.98640576910792      108.41183463812311
C          121.94150807344434      110.73016148591084      110.53807101189922
H          123.56738984339955      111.96056832211696      110.31744037149312
C          122.82773098814113      109.78339292817219      111.32645871342271
C          123.01136873664450      110.29649345698073      112.75917770979146
H          122.37296374908789      108.79280547482712      111.33608343092834
H          123.80226478846933      109.72840597975596      110.83913705744311
C          121.72372514128259      110.29561209777236      113.58373211392397
H          123.76121512215724      109.68029221961044      113.26189291357919
H          123.40018141080283      111.31532054990120      112.71873253840123
C          121.27790040053948      108.88520646539610      114.00273407049079
H          121.89758383066423      110.90822330656967      114.46957272553308
H          120.93143341938824      110.76240463707595      113.00147469268100
C          120.53686736842607      108.90040603239218      115.32518844621735
H          120.62783106432933      108.45884646496675      113.23833767222267
H          122.15003615267672      108.24187619757804      114.12136445607348
N          119.39896135510510      109.59776302587251      115.32506812419967
C          118.66400605992368      109.87739028103900      116.53588699151024
H          119.03050880036319      109.97825502442564      114.45558677432919
O          120.75623638850014      110.51501462166151      110.31975936462457
C          118.69329039128077      111.37277107551532      116.85446102595751
H          117.62769637243909      109.55321690491164      116.41684676866620
H          119.13401226912836      109.30156936160064      117.33491858909545
C          118.11998464070204      111.71654935429432      118.22691635413932
H          119.72509826179319      111.72579431129151      116.79548756341600
H          118.11730865753400      111.89263590521642      116.08751268700014
C          119.00657730541862      111.26367226439588      119.38431482717176
H          118.01648581498301      112.80314002307362      118.28652033264267
H          117.12674415687192      111.28009280104905      118.33799264950584
C          118.47259782487281      111.78048291371501      120.71717238023356
H          119.06705283497826      110.17662575479358      119.41997325237189
H          120.01678962183021      111.64811932124404      119.22481531569957
C          119.51816691784045      111.67913645064584      121.81632218685613
H          118.18858576494151      112.82635785120378      120.60272290415409
H          117.58933436777929      111.21022857467668      121.00480687406245
N          119.03495083710952      112.18900915731929      123.08181953678243
H          119.79338429305997      110.63732822485731      121.97823631705941
H          120.41733266396970      112.23806980926049      121.52161826470696
O          120.95724991521521      108.31736163019687      116.32239031380071
C          119.32949004291856      111.57888753691775      124.23702355359070
H          118.41314901544077      112.98960370229071      123.06977750240483
C          118.85699872084629      112.29676433136618      125.49029308967232
C          120.10327098130504      112.90267634546389      126.14787752419991
H          118.12109051384029      113.06095042441156      125.24551060653049
H          118.40378737434051      111.56611754822261      126.15977756591049
C          119.92973903677243      113.27846697845919      127.61544036842957
H          120.90370003029793      112.16377487479822      126.07155634302838
H          120.40912543598324      113.78547471427179      125.58148895296672
C          121.24180272174409      113.81731576978338      128.18634337930783
H          119.15515983539950      114.03651821340496      127.72753783174898
H          119.62218032227919      112.40348710736643      128.18924362389419
C          121.11376885528685      114.19756101410617      129.64836985054620
H          122.01800157013076      113.04983905516799      128.10511693064481
H          121.57190394734511      114.69121593498274      127.62526303152463
N          121.90743315381808      115.19869150323949      130.04090970046587
O          120.01144554548011      110.56544498656801      124.29606283563604
C          121.80993461900117      115.73566893933028      131.38260856070946
H          122.53293253752091      115.64652251016393      129.38168892479445
C          122.80517701616454      116.85468807601985      131.65131553877995
H          120.78819700915358      116.10869092892527      131.52160709150493
H          121.96383382730099      114.91700535862991      132.09751420904558
C          124.25351478206264      116.36305599705294      131.66068322534710
H          122.67477539376645      117.64041212708253      130.90783437384746
H          122.56519749938110      117.27806840745842      132.62916142104439
C          125.17757896522201      117.25879109722112      132.48837643389217
H          124.28040884339825      115.36270683565326      132.10111470699340
H          124.61517893551724      116.28206242273811      130.63647780872770
C          125.36843095911492      118.67202217733237      131.93885938847254
H          124.77005621431471      117.33008012658436      133.49964642843881
H          126.15747567783048      116.78013660373094      132.56711837889466
C          126.22034696077999      118.68483085484681      130.66634407759625
H          124.40409310788748      119.13894934396205      131.73650598923103
H          125.88214930396748      119.27314995661796      132.69170667352725
N          126.51851780966872      120.02617680314972      130.22668984714534
H          127.17272352756616      118.18318921652630      130.87284300596247
H          125.71231847388705      118.13841010056792      129.87279421675407
C          125.89256454272289      120.75401224006318      129.29527574402590
H          127.23559211534783      120.52480195754013      130.76058838769418
O          120.36051296291190      113.61267929279963      130.42145340878332
C          124.75154691062269      120.09685506188940      128.54461197498782
C          125.24826246016514      119.22152429492927      127.38762832056298
H          124.14775246011141      119.51636546148632      129.23923321901782
H          124.12476699341396      120.89178075847251      128.13907158737439
C          125.73725473093876      120.08081519426970      126.22701482029609
H          126.05551797604009      118.56589564006991      127.71970921126385
H          124.42662796811010      118.58780445316346      127.05135658395953
C          126.07080161987557      119.25259945100863      124.98459598943919
H          124.95498475461287      120.79335529122011      125.96974607648789
H          126.61944134478193      120.64081934878160      126.54182173162413
C          126.61201460693012      120.14834374721556      123.89367573463444
H          126.82316921179562      118.50081571711209      125.22422920612942
H          125.16873051293436      118.75323466807842      124.62906742159529
N          125.72970289549183      120.95449864607019      123.31386811850028
C          126.09470853533753      121.93188777638989      122.30240297266899
H          124.73795371921548      120.85474594223139      123.50376951213630
O          126.24996186065340      121.90245375093350      129.05030518103229
C          124.95992026871239      122.91365655189584      122.05797783344833
H          126.98378372683315      122.47206529960604      122.64095439037078
H          126.34205806230123      121.40867075616521      121.37514752029483
C          125.27046044265323      123.90853728516196      120.93806012465571
H          124.05452126690244      122.35593974223156      121.82354911772022
H          124.77892404802708      123.47668385066498      122.97337693105456
C          125.62621744456109      123.27158828774273      119.59232103247493
H          124.39223222662007      124.54529311869655      120.80778389738262
H          126.10573825894824      124.53652919817088      121.25443089235097
C          124.58789098940514      122.26482745658996      119.10524604065900
H          125.71720283723735      124.06657577992738      118.84985196959236
H          126.60003995301319      122.78398332586826      119.65828589877718
C          124.89286523554597      121.77864161528974      117.68594605069623
H          124.58091583924224      121.39256845225572      119.76067320446757
H          123.59578804543793      122.71764051946369      119.13070518841796
N          124.14353712397431      120.58204200474952      117.37830864654134
H          124.62636689210240      122.53649055888437      116.94601696078206
H          125.96213892382798      121.56016972725298      117.59286174686872
C          123.14850612631203      120.53828100154692      116.48595303380860
H          124.34856177746097      119.75372123729781      117.93624583751937
O          127.81446216570164      120.14367832594110      123.60105151167834
C          122.44908131353088      119.18849976637752      116.40240432803873
C          121.09372823878832      119.26945735418202      117.10841912664506
H          122.29516202914158      118.94762035923178      115.35105283242110
H          123.06240519665292      118.41788675500746      116.86772674659251
C          120.26071509340794      118.01266501793678      116.87597141458610
H          121.26736048951273      119.39721455601257      118.17777620014419
H          120.54942590308842      120.14086772419057      116.74080257712187
C          119.00416099170940      117.98286825286264      117.75108961759931
H          119.96495682045615      117.96283137656042      115.82777580613100
H          120.86933559557603      117.13369942394731      117.09711928194567
C          118.29106442293966      116.65376346181249      117.60374595889314
H          119.29771748666363      118.09528530578507      118.79693587580037
H          118.33636205718514      118.79863235122437      117.47619699590062
N          117.26722833337827      116.64269582302465      116.75621361191502
O          122.80990869668086      121.49131324334904      115.79958324837139
C          116.47673834239785      115.46327063810735      116.47656240517591
H          117.04978344803490      117.46264397250749      116.18620551221200
C          116.11576166873931      115.38400284896562      114.99812957106042
H          117.05203059872558      114.58467428118304      116.78579471146854
H          115.55616870383744      115.49825702771733      117.07233404578166
C          115.31674088122617      114.11928822664811      114.69453406359075
H          115.54613870452118      116.27429386655108      114.73324157475142
H          117.03029723019272      115.39317743798287      114.40271350151906
C          114.82469406641617      114.05600750303222      113.24839335647823
H          115.94734585487817      113.24944737311513      114.89256139147828
H          114.45558288061653      114.04856586333388      115.36113634922454
C          113.54758573663320      114.86474132813504      113.03209774889834
H          115.60801928682802      114.39159552725553      112.56831284732941
H          114.60803144753972      113.01430990897362      113.01048698021179
C          113.00855678341195      114.74252467195616      111.60417051212025
H          112.78745837524208      114.49438688211352      113.72154097469736
H          113.72034911095044      115.91864969771636      113.25387583365294
N          113.73526821904366      115.57429318211375      110.67186014858875
H          113.07928672003771      113.70508020282384      111.27035836654872
H          111.96377364959794      115.05845929528981      111.56684261599325
C          113.20199468423415      116.65142586352690      110.09976848552668
H          114.68802186424101      115.28707913510785      110.46969689015903
O          118.65249629642560      115.65568231967715      118.23250179530689
C          114.14488216171098      117.50573220005262      109.29016133726833
C          114.88583301781563      118.43046435284018      110.26685247061788
H          114.84718953492924      116.88001494104641      108.74127507041833
H          113.57377511019111      118.10002521408431      108.57533068819792
C          115.61170338160662      119.56836261034886      109.55551521664417
H          114.16491191659927      118.86662504290084      110.96264376954785
H          115.59728817741259      117.84240402369397      110.85050113188950
C          116.53449259407412      120.32393573072004      110.51879874113779
H          116.20212989748622      119.18376637217038      108.72309723082273
H          114.87032761971129      120.25512462721892      109.14305143930986
C          116.86935982754729      121.67841549453830      109.92610125563684
H          116.03102335599306      120.46593488534023      111.47423256175023
H          117.45029287138436      119.75622985826493      110.67612443260512
N          115.94175022401291      122.60396217564497      110.16866730282121
C          115.94250908689155      123.92870784700607      109.59798459984505
H          115.14042215160936      122.38080258098773      110.75389115358739
O          112.02323677846712      116.97650975157120      110.27026661622519
C          115.66999604892635      124.99647025754827      110.65704215576984
H          116.90838878196458      124.09244404882585      109.11909401313414
H          115.17038854299342      123.97513432065212      108.82128099932953
C          115.25090608620332      126.31648294176212      110.00987691136987
H          114.87198078140160      124.64124686119624      111.31224651631005
H          116.56496045562386      125.14110263856257      111.26414642513717
C          113.79094449483439      126.27774133813125      109.56376582518482
H          115.37896051153182      127.13554595450526      110.71791522030156
H          115.90104700212156      126.50650064360470      109.15678918286757
C          113.41532448559479      127.39021787476989      108.58761829297035
H          113.57248649645268      125.31816411561441      109.09282962087572
H          113.15614484765777      126.35830942881776      110.44729276885575
C          114.10632984701739      127.26818607362030      107.22827087990788
H          112.33624083182245      127.34471540103416      108.42216528818290
H          113.66044729471029      128.36069373250953      109.01835458455692
N          113.87029830073212      125.97214955699978      106.63822340334491
H          113.71733568325661      128.04685727078626      106.56033924213371
H          115.18633561875220      127.39898070515419      107.31561476444465
C          114.84717952731116      125.15101624607492      106.23485246838140
H          112.90388666728008      125.65728227007322      106.63637194257896
O          117.87122598836369      121.87433931040944      109.24526717858038
C          114.35931423019149      123.81726623102858      105.69852006961851
C          114.35611337910676      123.83039877864094      104.16574371226963
H          115.03685291549553      123.03409256155948      106.04107122019482
H          113.36156001730347      123.60058588443296      106.07381705913642
C          113.38552118617736      124.84870804590015      103.57148852747713
H          115.36443915116378      124.07261647618188      103.82162242616590
H          114.09911776668626      122.83493691495651      103.80392237200383
C          111.91464369381904      124.47392614478912      103.77542897999724
H          113.56942467244107      125.82420174088500      104.02679461034533
H          113.58561142011945      124.93633533738320      102.50295340545534
C          111.02229632138372      125.57320976165674      103.24825688146544
H          111.67495464551142      123.54604870196030      103.25309163918038
H          111.70892882605773      124.33457780204952      104.83275342042175
N          110.43364116364675      126.31887058988434      104.19342835616902
O          116.03492301722686      125.45646552647435      106.25836051359435
C          109.51276732522157      127.38242205559133      103.86904877461075
H          110.59977585657890      126.10281714889909      105.17102498645131
C          110.09058696724264      128.77854395911152      104.11715190961168
H          109.27739213755343      127.27250745045096      102.80691369284112
H          108.59472722830918      127.25284454481493      104.45044477920729
C          110.17994630771656      129.13664113798410      105.59939154901728
H          111.07980580094612      128.84123694323463      103.65938863882920
H          109.44675102118890      129.50364527408004      103.61481818041229
C          110.61787052233821      130.58956115501167      105.78698230907618
H          109.19671335526587      129.00050480326081      106.05608873279860
H          110.87753282908469      128.46223272550998      106.09698167652056
C          110.46097576777758      131.09652090789533      107.22020651549872
H          111.65879151503741      130.70408803430405      105.47532878339254
H          110.00997024859774      131.22049757695146      105.13409309977717
C          111.45047187926312      130.45108360568796      108.19254200211127
H          110.61973773440710      132.17926878187356      107.22921159733998
H          109.44004522934182      130.90843026092281      107.56317113146707
N          111.37441884590820      130.96240367599765      109.55718259670546
H          111.27760474871602      129.37575358368764      108.24045177824162
H          112.47128573071616      130.61741894971291      107.83447444958361
H          111.43573695997419      131.97688558629659      109.54869321823247
H          110.47664801490031      130.72320917742934      109.96760897344922
O          110.86537584466356      125.79444992924799      102.04998616955594
C          129.99524986577705      122.23527923803218      119.91755449207413
C          129.81053974565734      121.44841297680027      121.18663356309847
C          129.84774763741632      123.73767994734693      120.20566184213199
C          131.10145758490012      124.29215273434951      120.87338426880201
H          129.68508534787756      124.24954437152000      119.25622626740540
H          128.97718381269902      123.92764424124498      120.83706959583807
C          131.00054079971463      125.80611308891622      121.07721441988426
H          131.23758147126563      123.80581176790653      121.84043389474704
H          131.96248506176482      124.04108714042894      120.25005264534501
C          132.12091509143866      126.31431767156063      121.95952016565019
H          131.04484160711513      126.31337731984266      120.11091275389283
H          130.04818518813380      126.04185755293229      121.55279139495777
N          133.35774006259678      126.07918900160523      121.47973519035315
O          128.64104137892457      120.85726452331633      121.24850691985483
O          130.63950300654855      121.36361043424338      122.07471142276219
H          128.40199861859094      120.51595012602077      122.17774170777577
H          129.23805188174634      121.91668091989621      119.20134015499143
H          130.99159475441198      122.05500589227110      119.51253185477707
C          134.54385416392196      126.24150446188234      122.28675362249268
H          133.46765233361694      125.64646948153464      120.57729807878675
C          135.49993060201558      125.05762291192283      122.13281391906220
H          135.06765544612290      127.16556611496830      122.01218702913144
H          134.20424143472647      126.34286951613117      123.32018682203227
C          134.83962757138070      123.68054122829430      122.24802805198489
H          135.98851048365117      125.12215703110326      121.15661726284908
H          136.27515496622141      125.15314444425452      122.89485581224125
C          134.09360887774122      123.43887384184136      123.56012010290692
H          134.14692268182230      123.52800620778875      121.41790632563900
H          135.63231312499448      122.93140645213022      122.15802924964783
C          133.69231578421883      121.96801466958559      123.67496810395937
H          134.73924032866873      123.70401631574040      124.40026626089738
H          133.20357424771481      124.06668478651133      123.60730177663163
C          132.95297453545567      121.63051966680050      124.96618820728061
H          133.05652930228268      121.69548204330923      122.82959951467951
H          134.59528692441225      121.35453702592056      123.62786603048461
N          131.54690881337638      121.96160440391334      124.88537565225117
H          133.05888667823470      120.55622754996807      125.16976936477651
H          133.37480154721732      122.17029984723285      125.81866154978054