3795
 energy: -5103.740381392141 gnorm: 0.000943413375 xtb: 6.6.1 (8d0f1dd)
C          128.27222285469202      122.50212845476753      119.50438017372792
C          127.71361672538748      121.93457255922485      120.79103872010757
C          127.22504859857534      122.51014347940399      118.37968580896373
C          126.60887337234182      121.14767198781905      118.06046785892809
H          126.41908294228655      123.18697772812537      118.67198859242576
H          127.69791241102129      122.91530983923907      117.48345961782293
C          127.59915652926155      120.08579297883387      117.57289959333657
H          126.12314791408365      120.76177483726499      118.95601271587795
H          125.84804924011441      121.29459490683611      117.29091105641210
C          126.84355607864475      118.82569035224874      117.18464774029667
H          128.17089258098093      120.44784107766199      116.71900538095429
H          128.27977935702540      119.82739808436219      118.38301795648806
N          126.45472749388821      118.77450718819904      115.90722623968904
O          127.44090781375721      122.83948174182864      121.69815776672743
O          127.54055645429598      120.74449895310777      120.97036867268518
H          127.04085193663322      122.41296278651038      122.53794280471477
H          129.12792654277948      121.89689863575371      119.20120822549512
H          128.60329958734761      123.52249466881666      119.69459581882884
C          125.79052890819520      117.63262593867482      115.31272096958745
H          126.67710470812413      119.54418870384650      115.28220501941614
C          124.47038019472527      118.01478735994290      114.63882154903271
H          126.46148543850926      117.19714632808146      114.56464436097556
H          125.62960885935438      116.90671626461807      116.10982568104848
C          123.96138081064049      116.93268103208889      113.68038498213339
H          123.71375998175559      118.21708290559801      115.39817828392566
H          124.64014647921549      118.93658592209340      114.07900526455850
C          123.63291000161405      115.62165104123997      114.39182826638081
H          123.06862841853859      117.30281359694769      113.17525955903120
H          124.71744806650396      116.74284185026778      112.91646162001713
C          123.13238330703689      114.51681509121485      113.45924531255332
H          124.53010713176930      115.25616832952126      114.89194928668289
H          122.87106588852971      115.81229928885318      115.14845301886588
C          121.70715845687793      114.74361365940752      112.94786905642108
H          123.81175548544735      114.40656331877602      112.61243624385263
H          123.13304972381205      113.57690346972775      114.01624939219153
N          121.13091305379334      113.50245840616120      112.47281207307812
H          121.09065782314511      115.12213188320855      113.76915464294672
H          121.67764541624391      115.46123803351993      112.12562754006383
C          120.58954640621350      113.31920113955486      111.26430233197549
H          121.16849749744189      112.71107899958741      113.11414315678078
O          126.59441963529035      117.93714790874523      117.99713276674255
C          120.10695557541800      111.89389955378385      111.03125866786742
C          119.26174016443244      111.76566953458155      109.76731579362809
H          121.00062779235421      111.27248223396811      110.95332826237053
H          119.54049459675920      111.56090403902409      111.90220988338670
C          118.81169528652332      110.33172878771003      109.48787986527432
H          118.37925097882031      112.39913372767850      109.87312703582818
H          119.82957378902493      112.14461808486945      108.91610028661523
C          119.97911369387144      109.41729555794657      109.10857420932487
H          118.31570296407523      109.93427945083410      110.37568211265551
H          118.09035515558772      110.34072444427488      108.66931032136034
C          119.54734365333563      107.97848117795138      108.89455087338580
H          120.43947062129888      109.78886465761357      108.19116027672204
H          120.72602390886638      109.41354148555006      109.90265220815812
N          118.83109569122549      107.75706030291134      107.79091228805238
C          118.45633913438772      106.42170343377060      107.36986941489228
H          118.59516811219241      108.52733021295738      107.16770834919598
O          120.50172189001638      114.19804308601837      110.41425076799966
C          117.23445522599792      106.43441995922451      106.46022587012021
H          119.30165449260861      105.96189630442656      106.84130168616529
H          118.26777559357291      105.82921408786012      108.26864758666284
C          116.86151444045248      105.01855598602292      106.01078527937398
H          116.39459136695054      106.89038007678366      106.98561513981421
H          117.45764707642246      107.05255008945448      105.58917490891284
C          116.11202014614658      104.25145262958966      107.10052930910236
H          116.22022118082108      105.07717422857002      105.13010801440856
H          117.77249253213533      104.48709012762919      105.73349039305617
C          115.89056347339790      102.77325385127533      106.77599900086175
H          116.64139197436329      104.32581784961282      108.05220380394414
H          115.13832060914397      104.72706525969733      107.22676029275453
C          117.12867587586695      101.91773656678080      107.01189676015008
N          116.82775623907696      100.51922848644503      106.79430166425666
H          117.94801030298594      102.18399128531195      106.34134771737838
H          117.46994668426132      102.05829995008575      108.04629901202500
C          117.76069561417189       99.60443411448796      106.52078411231520
H          115.89109785984691      100.21420432712546      107.03978255715728
O          119.85046992377274      107.08595375668824      109.68693827940284
C          117.23364856106011       98.18323993656693      106.43387581450945
C          117.56067003206776       97.39325070161166      107.70656199882905
H          116.15442505409915       98.20481406085479      106.28631846336329
H          117.70791271550277       97.69127184252012      105.58316851362470
C          116.94917378032977       98.02257862823434      108.95644191260743
H          117.17595577295900       96.37792515457321      107.58985034913493
H          118.64420218374008       97.33146248341124      107.82328894646263
C          117.10722283337672       97.10978690910017      110.17719385356500
H          117.43558015585255       98.97780140703973      109.16640962733997
H          115.89042937002466       98.22410573566063      108.78108170836792
C          116.74408914960893       97.84534069254366      111.45610421079826
H          116.51631569024741       96.20677784761835      110.05016849229231
H          118.15808761488924       96.82252513751267      110.26691636424918
N          115.76547775090944       97.36135654278640      112.22456222656437
C          115.05451244653192       96.10345213125180      112.09920357087977
H          115.62672429957411       97.84146306323449      113.11638063016413
H          115.10975661742864      102.38129331509572      107.43002484835765
H          115.55691493807490      102.66384364332809      105.74344382618695
O          118.94522311224135       99.88376978838652      106.33620214374352
O          117.34187300371663       98.87619529108308      111.77269202927739
C          113.89493491439580       96.05285037632483      113.09468243909774
H          114.66311888296113       95.99336393119442      111.08378193752314
H          115.74417290604177       95.27189975673626      112.29478701628187
C          112.65969551975293       96.80547076262378      112.59355826926122
H          113.63402694380413       95.01169976423247      113.28750836940114
H          114.22809591229530       96.49204903917038      114.03414630220453
C          111.75957609378018       97.27803989199747      113.73922516262725
H          112.98184389820861       97.67746475557830      112.02425128020249
H          112.09506719720029       96.15638230999103      111.92149485483706
C          112.25999684970370       98.59305741320141      114.32911863079956
H          110.74059899553016       97.43037732310324      113.37679698374284
H          111.71929984315229       96.51254209742621      114.51623316411624
C          111.34788976948529       99.13566270720044      115.42212176192355
H          113.27083298831406       98.47921510493731      114.72163082544395
H          112.29391580327119       99.34496770617235      113.53832224999124
N          111.78136869090233      100.45942435272585      115.81726961144342
H          110.31704516824014       99.18724842955500      115.05030435964115
H          111.37031773922433       98.49655564108853      116.30813547124644
C          111.99774825467679      100.82929913613906      117.07776638964808
H          112.04325267073305      101.08754034639750      115.06162946328381
C          112.47140794866542      102.25715896810050      117.25437775378475
C          111.31062117518150      103.23848523384000      117.06462593536801
H          112.86888493492843      102.35465362718649      118.26303389930973
H          113.25930297343592      102.47415760936488      116.53299340735622
C          111.63771029454698      104.63694814236223      117.59385231108574
H          111.07381730535066      103.30280764202723      116.00132583901025
H          110.43125310983581      102.85542316111179      117.58537277038880
C          111.46542006888659      104.73944463521222      119.11480723029216
H          112.66721745129152      104.88816583660733      117.33163044287647
H          110.98497263242486      105.36570779904496      117.10815075725209
C          111.99368363876374      106.07963052434188      119.58297167603848
H          110.41230684748182      104.63959043572984      119.37658756419700
H          112.03692978966608      103.94837250497694      119.60211234597637
N          111.07878869072448      107.04489300204605      119.67071884500803
C          111.41414432095853      108.41868939109541      119.97088773400283
H          110.10260493326243      106.82002317321661      119.48853809802335
O          111.79448691474735      100.09170021343182      118.04390841299464
C          110.65564225714968      108.97435118186068      121.17697853026029
H          112.48946055225284      108.44212291536238      120.16068578312195
H          111.20751317125917      109.03093118086623      119.08454617848747
C          109.18651925517017      109.24611168488165      120.85498198784003
H          110.72933196808602      108.26168030302719      121.99953425424552
H          111.15004129459690      109.89785531296265      121.48074590888693
C          108.41433130897735      109.87849891170471      122.01464779309562
H          109.12570346629225      109.89539371887784      119.97992110563067
H          108.70229599987381      108.30262666216142      120.59946742824978
C          108.74634799389771      111.34802188015350      122.28595949311341
H          107.34578994454033      109.79784726163035      121.80603550616577
H          108.61743795702611      109.30059555330395      122.91796348282335
C          108.28699261445395      112.28281636887678      121.17321557605885
H          108.24296100235223      111.65083945187710      123.20630528503160
H          109.81917265615060      111.46936126878276      122.43469574077005
N          108.48619961246990      113.66699326165035      121.56154877785914
H          108.83904413942533      112.10039760753557      120.24568150851869
H          107.22434059313093      112.12107539975015      120.96164638792699
O          113.18671806861981      106.26114757980375      119.83027216932605
C          108.30945951861597      114.69113919473430      120.72652387256926
H          108.89036276643512      113.85171456373565      122.47368620690456
C          108.59392253011259      116.05458347412349      121.32237461375107
C          107.27601997024919      116.72010211402635      121.73799987298258
H          109.23716335773200      115.93987175707888      122.19327141967045
H          109.10723422320295      116.65805244792536      120.57200810442821
C          107.47582733280370      117.90254924022018      122.68392713103189
H          106.73017704538758      117.03938286746067      120.84953762845429
H          106.64731190934245      115.98571908485712      122.24842411444378
C          108.23625857297594      119.07757894374146      122.06561912245415
H          106.49682084015365      118.25789941019774      123.00544251711239
H          108.02185916287753      117.55312727564876      123.56159636949684
C          108.55605814562620      120.09272249193243      123.14382758362272
H          109.17295433974131      118.72405223519030      121.63383081220792
H          107.63455667545000      119.54492461603222      121.28613150106514
N          107.57376995388131      120.93085958160439      123.46451209494501
O          107.92261886337756      114.54345227798832      119.56626300626115
C          107.76549662842703      121.97718904620004      124.44776318584015
H          106.67431438948105      120.85833033164779      122.99343260470319
C          106.52294731107833      122.23767555785781      125.29492631013557
H          108.59591447321182      121.65767913348047      125.08298037767486
H          108.07835070966512      122.89368375971209      123.93283926284808
C          105.47294776475556      123.08414454169043      124.57504113936942
H          106.08452536615950      121.28508761453197      125.59447324504723
H          106.83692543372187      122.76320775144229      126.19905058353170
C          104.30214263625480      123.43801439857513      125.49392302107989
H          105.94265567784485      124.00373269230474      124.21918557838471
H          105.09721387385446      122.53779463042706      123.70899805643253
C          103.53293176145488      124.67433617556499      125.02908762383609
H          103.60793592878215      122.59889387022476      125.55920563485050
H          104.67959044705937      123.60908620149412      126.50302544493019
C          102.25953976803058      124.89016092925883      125.85539194268205
H          104.16286283610488      125.56324151009466      125.11041663046333
H          103.24581447560244      124.56108905392095      123.98370802839645
N          102.54750597883876      124.89999534116095      127.27213937007690
H          101.79991480878397      125.84816801996487      125.59959097283506
H          101.54898202338867      124.08251967157211      125.65809532080218
C          102.51582416555523      125.99489172659680      128.04161138199547
H          102.68608704260065      123.98721069893939      127.69007771587718
O          109.64936030008391      120.11316142883683      123.71123238408958
C          102.90057385126998      125.74103189660697      129.49117352247868
C          104.01475173521835      126.69069934816837      129.94588150764272
H          102.01624546999338      125.91956620104364      130.10601797499834
H          103.19323649094252      124.69931322006198      129.61430158951418
C          105.23005996388348      126.70309667564848      129.01711785404666
H          103.60922572440660      127.70359667772952      129.97547727728767
H          104.32124894437770      126.41694832175330      130.95678202131680
C          105.92310691421514      125.34145067129869      128.89796326179106
H          104.90843052373374      127.04424382266242      128.03112623789994
H          105.94822732733904      127.43159687545460      129.40102037535320
C          107.18257178847672      125.47794601734726      128.06385788627566
H          106.20264653804311      124.98727937921380      129.89078430549242
H          105.24957116217885      124.61895395718270      128.43749172423381
N          106.96830067600010      125.59771091759330      126.74765641091687
C          107.99579112692587      125.85005950115443      125.75757472077338
H          106.01600562388212      125.60081500409716      126.41420144709508
O          102.23278902061340      127.11165114381693      127.61648700209433
C          107.67950528446352      127.10215800906859      124.93993766295326
H          108.93672238847346      125.97855627480683      126.29614299425275
H          108.08112702734832      124.98092585045190      125.09882953951019
C          108.71082922546019      127.37466648926684      123.84064706652116
H          106.69070366893826      126.99927857280888      124.48700278086250
H          107.64528602735099      127.95588591405964      125.61985034563199
C          108.52322693748721      126.51116733536240      122.59094347712812
H          108.62384950268292      128.42276832676140      123.54686696715319
H          109.71441180541937      127.22269319399403      124.24119177187741
C          109.46339115926654      126.95444831084733      121.46781918541078
H          108.71291066057512      125.46326450655131      122.82468600525537
H          107.49010572404664      126.60591730709558      122.24917807220727
C          109.19215980830985      126.26333026002587      120.13605051872857
H          109.35347173771493      128.02940781862469      121.31201266657537
H          110.49504812652214      126.76086871988706      121.76691801402080
N          109.53536093432838      124.85520350732217      120.18055614240465
H          108.13692157043407      126.37241336545179      119.85717154660691
H          109.77344488570247      126.73578477861182      119.33512510130318
C          109.54810106069939      124.08211509077037      119.08641169887045
H          109.83307748207380      124.46578412127126      121.07207633981422
O          108.30327027342831      125.47678641783521      128.56247099758170
C          110.03130550821530      122.66261610677432      119.33807208358684
C          109.25524028105976      121.62538087355119      118.52878555462715
H          111.08249980273250      122.62114796160574      119.03867570921621
H          109.97903779547507      122.43752317261287      120.40397465918463
C          109.87548122011496      120.24264955618192      118.68706479919227
H          108.21260005634369      121.59970940086846      118.85383588459827
H          109.26385403485367      121.92140808798472      117.47909331789744
C          109.11756482408147      119.16491148619019      117.91843148221123
H          110.90979411521839      120.27032278362606      118.34410598547639
H          109.90128973584881      119.97254312569218      119.74433807569156
C          109.86143196004184      117.83946996562743      117.91578656065984
H          108.13758632561625      118.99932531729760      118.36967263252544
H          108.94573834606128      119.46755155172255      116.88367001806402
N          109.30719396338452      116.90084303874443      117.14452438706333
O          109.22345791987651      124.48967815215839      117.97617195980308
C          109.83404785650657      115.55746420392477      117.01832045630951
H          108.51450173283824      117.13877577716944      116.56284734547870
C          109.77934217280006      115.07367300406305      115.57336432733987
H          110.86483182059412      115.58010886742285      117.38130032043966
H          109.25540029915807      114.88493011794232      117.66165616592710
C          110.50752009446663      116.03245977675383      114.63544688858492
H          110.22029692738411      114.07644508384800      115.51867351127208
H          108.73217677336416      114.99527902940561      115.27144540152361
C          110.39099606857218      115.63129362902446      113.16789653291259
H          110.07445050038673      117.02839921292890      114.75070434293178
H          111.55970253496777      116.09191987385482      114.92225246576031
C          111.08154533278395      116.66246812802709      112.28025038592286
H          110.82165482441816      114.64007315206791      113.01160904593311
H          109.33403768577851      115.57393838481188      112.90524323104239
C          110.85387390055999      116.45762666201362      110.78630460099616
H          110.69348150266912      117.65010653386109      112.53822593476525
H          112.15187956118845      116.66159485616794      112.48938423746874
N          111.42419787256244      115.23003097072007      110.27530423869783
H          109.78735983857426      116.42620520727732      110.55824138505666
H          111.28691483464593      117.30765570002053      110.24689327516228
C          110.73522743320228      114.39203083650570      109.49333905172692
H          112.38941914613984      115.03657280943169      110.50135494052462
O          110.88902080724932      117.65145742550871      118.56571539391751
C          111.43166573660760      113.14597856081245      108.99525342012930
C          112.95508537192025      113.11724706792627      108.94566256728278
H          111.11632383054889      112.33794820730760      109.66303372578609
H          111.01771792922693      112.92818448186318      108.00847407422103
C          113.60700751412467      114.15124183850118      108.03250547050050
H          113.35906650573007      113.22656504949846      109.95199663225763
H          113.24127695192470      112.12273135805992      108.59943005809238
C          115.11100362272278      113.85683623148684      107.92155866300108
H          113.14926404607354      114.12007278657732      107.04279615242406
H          113.46112144545022      115.15115393330147      108.44198815981245
C          115.88668896807671      115.09117871304534      107.51705556288942
H          115.47737097900844      113.52725245572975      108.89413265660731
H          115.28396420283011      113.06542266775706      107.19256965988257
N          116.10434784342834      115.94375861146440      108.51713886115004
C          116.77860060589549      117.20806382599996      108.34033755410280
H          115.69535861424615      115.74754319476739      109.42872837287779
O          109.55632379992383      114.59455828591516      109.19297947666891
C          117.81114371111445      117.49195261448617      109.42742672729669
H          117.26871340174279      117.17215755641165      107.36529416344402
H          116.02724510431051      118.00364103916846      108.33020894771744
C          118.46084666660013      118.86464729840833      109.22352002988205
H          117.32593720867966      117.45012298747450      110.40431271558323
H          118.57647541404279      116.71531116305685      109.40807201385724
C          117.49872421353585      120.01388043751098      109.51330913167070
H          119.32833191788289      118.95077130209866      109.87964723582327
H          118.82269832145803      118.94010007228614      108.19667791967926
C          118.14588830425750      121.39064298530830      109.39366390784906
H          116.65662241059894      119.97132650592008      108.82207149285654
H          117.11256571967105      119.89777042573554      110.52727064486697
C          117.11410973680236      122.47795170421196      109.71171255388629
H          118.98947326368243      121.47374268882970      110.08055523322544
H          118.52439640067951      121.54087146020309      108.38072931595916
N          117.61742159569101      123.81719238747807      109.51894731920802
H          116.24832023650313      122.35421872017956      109.05472543082170
H          116.79326660684970      122.38904065208071      110.75138264469655
C          117.59077609523681      124.43581225577007      108.33804680170583
H          118.11814067299400      124.23536837004380      110.30013545665547
O          116.26868024935577      115.29463508464541      106.36269200289129
C          118.15006141878936      125.84612963819050      108.34900494405392
C          119.61271113475053      125.94277542295877      108.78977379355061
H          118.02804979969585      126.25274695692920      107.34494908322668
H          117.53500800067060      126.42644346434390      109.04146937961831
C          120.01626392530891      127.38455560076926      109.09733451297787
H          119.76233303472759      125.35829202504262      109.69726819032951
H          120.26670401241118      125.52618133950914      108.02378932437716
C          119.82771787442688      128.33040449810099      107.91322089542015
H          119.42582575995361      127.74186231187063      109.94468687521419
H          121.06486206212109      127.40569008110383      109.39954939476290
C          120.34291276621917      129.72843671665717      108.19107859723373
H          120.38818546456076      127.94667181160271      107.05665030513939
H          118.77882514997371      128.40860025038631      107.62952764699662
N          119.75409527732947      130.68453105375130      107.46907639239460
O          117.07821746067518      123.94863972279725      107.33001900179580
C          120.12106482362087      132.08147279104608      107.58947764760292
H          118.95601808904630      130.45341847274233      106.88655690719774
C          119.15400736894516      132.96112207236348      106.80739313032097
H          120.12521426502870      132.34719233866690      108.65222988550813
H          121.14447098375224      132.21899383613351      107.22043706905792
C          119.37310108801914      134.45293051795704      107.07265384930163
H          119.28768915329314      132.76432166515042      105.74191942479870
H          118.13127281404098      132.68081693508393      107.06330739224651
C          118.88990706426907      134.91616977063399      108.44997664966344
H          120.43880777287345      134.67138429687529      106.97556498638156
H          118.84816210956903      135.02859708115406      106.30777783200116
C          117.36781985769071      134.97589059839731      108.55712040944627
H          119.28027368770725      134.24735383508107      109.21910028087072
H          119.29639326608390      135.90954909163344      108.65150702372087
C          116.89183037935663      135.19313484240178      109.99981865840486
H          116.98799060254078      135.78129084681615      107.92246011150519
H          116.92591794914834      134.04369301828595      108.19842956610933
N          115.45449333548972      135.05212750079693      110.18031334377146
H          117.37062585750290      134.45613083917885      110.65182807460366
H          117.18414162805020      136.18799012724486      110.34813867402906
H          115.17170132312627      134.15275180801103      109.79767129192761
H          114.97496284809296      135.76128390600147      109.63581865232817
O          121.23514442792610      129.97285319234717      109.00313926821701
C          125.81402417817434      122.42171692688389      105.17874216796147
C          126.75057115010277      121.37396181710136      105.72911712955332
C          124.35532867555771      122.02208921471534      105.43254416923219
C          124.04189637500991      121.87995287304277      106.92018002694412
H          123.71142463673439      122.78832252301065      104.99793492246928
H          124.15112622173730      121.07776748196311      104.92393773036956
C          122.54682890382816      121.64665133838415      107.14365895116933
H          124.61009770277791      121.04544396510876      107.33524487066077
H          124.34577310988423      122.78765683174036      107.44630448480721
C          121.76071766359512      122.89878475470785      106.79679567849563
H          122.19982917130407      120.81069868196587      106.53820733226722
H          122.36901039535410      121.41337113692062      108.19558264698119
N          120.79766028057655      122.72443018283323      105.89225973361167
O          127.30946370802270      121.74819675616020      106.86442408360000
O          126.95952930687558      120.30209937271476      105.20110802430908
H          127.92255495756972      121.06752309195525      107.25080984415165
H          125.98087131402914      122.50721824603056      104.10479405700474
H          126.03344413584067      123.37126187776342      105.66546896580935
C          119.95741219872015      123.79511992459432      105.40607401109082
H          120.68016029679077      121.81475025138911      105.46287622784668
C          119.98048831296967      123.87794498073698      103.88045098935271
H          118.93080676547072      123.63888335135022      105.75487100543903
H          120.33741301006468      124.71666681039090      105.84994720749152
C          119.09360181012586      125.01181171186489      103.36419150786199
H          121.00708092233768      124.02089740077629      103.53779239515218
H          119.62674004200484      122.92482982821643      103.48239581021704
C          119.71622311725619      126.39051651053266      103.59497293155785
H          118.92267077200982      124.87748862902289      102.29484460660566
H          118.13003860161980      124.94397343330947      103.86836786442704
C          118.73525987062276      127.54386468906853      103.37661177980971
H          120.10322833710350      126.45479119291284      104.61254231119260
H          120.56269129183224      126.50933169403696      102.91626510765919
C          117.70652595380631      127.62780595831774      104.50435399007789
H          119.28784460839887      128.48470167441482      103.33886949649524
H          118.22165480961323      127.42508685316730      102.42142081368789
N          116.77854515111163      128.71965680653483      104.31961617062669
H          117.14425107164423      126.69265868553506      104.56438030480550
H          118.21856550129188      127.79414655973105      105.45406705715402