3795
 energy: -5103.699367293851 gnorm: 0.000849955466 xtb: 6.6.1 (8d0f1dd)
C          130.42400499841364      106.72013100368046      121.00986322449724
C          130.18122842380697      107.35409744652381      119.65999295939635
C          130.94238704468609      107.76476221800016      122.00813094508356
C          129.91048692740983      108.85324240379586      122.29269936412824
H          131.18189851614358      107.25232287299671      122.94171798220697
H          131.86179800809481      108.20867133320647      121.62228627133472
C          130.33786319241833      109.72095118199756      123.47787335928444
H          129.76768856675389      109.47604763352574      121.40693338002295
H          128.95484304804341      108.38186157368091      122.52603230940319
C          129.28860300871386      110.76534266303872      123.80152437301453
H          130.47346477201157      109.08406638103547      124.35388394600558
H          131.28115238601148      110.22154424439067      123.25675186020437
N          128.16797714583947      110.28379048613277      124.32302585427402
O          131.27731951643625      107.44582434999440      118.93703171949419
O          129.09456571528506      107.73660789110433      119.27985602385735
H          131.13048789770093      107.92943896660903      118.05332489612231
H          131.17180497030833      105.93559354789468      120.89571350645565
H          129.48842247487019      106.29496349389120      121.37639889614022
C          127.06992372162544      111.12427603213328      124.75568143206453
H          128.10020471106395      109.29075170840321      124.53765447753054
C          125.85733835799124      110.27295792452927      125.10331637365773
H          127.38868710132454      111.70198923317344      125.62902966701866
H          126.83139869222056      111.83276325649982      123.95574763218241
C          124.76745294400386      111.06987247493930      125.81821391363945
H          125.44951057256411      109.83926321919266      124.18778818056239
H          126.18756200303326      109.45195355694547      125.74376996427667
C          125.18768301528118      111.50278306018534      127.22214982353300
H          124.50738795358522      111.94144624628194      125.21691672105835
H          123.88314308733500      110.43512362823685      125.89350813901856
C          124.01376785729931      111.93716019725260      128.09215436456142
H          125.67860493363224      110.65814143795603      127.70926664863941
H          125.90150198888831      112.32593612546162      127.16524456029583
C          123.35370358071755      113.22313835416618      127.61038008782052
H          123.27148639320259      111.13901811162606      128.14720581979418
H          124.38150335382917      112.11729457171290      129.10489911771884
N          122.26522919976769      113.53478740008624      128.51285608772241
H          124.09853428724257      114.02716825488356      127.59511292181058
H          122.94383889923405      113.11215741692077      126.60454119441488
C          121.22954975055559      114.32053487632793      128.23383723125255
H          122.41478758039803      113.26197028010328      129.47290976994037
O          129.46207754295929      111.96947616782762      123.58686917108591
C          120.17659270806543      114.38865613440888      129.31530042161663
C          118.76549316334410      114.20446246468850      128.74653680062096
H          120.38106308734804      113.62014956066294      130.06091267320227
H          120.25374173591206      115.36071713255383      129.80514977657901
C          117.76001312766412      113.95934949063657      129.86826692828018
H          118.48572210302737      115.08646689492542      128.17151475984676
H          118.76042197211751      113.35023476615778      128.06758610288674
C          116.32451009181112      113.83183667635868      129.35185940083579
H          118.02590870983030      113.04231022704022      130.39807409951095
H          117.78900462974036      114.78237359560987      130.58242003846703
C          116.17245586405718      112.62847310740273      128.44660859255603
H          115.66347939444923      113.70997655616743      130.21271132620819
H          116.03762258424196      114.73365034026226      128.81734549176457
N          115.86102634417276      112.90237838479932      127.18298728363297
C          115.72932476619275      111.89471638195717      126.14902746374030
H          115.60785498271633      113.85192518738111      126.93544908622053
O          121.10434016773897      114.90592609123725      127.15272252091258
C          114.56448267805146      112.17048612359584      125.20327046077594
H          116.65961811747414      111.85772599414133      125.57142253510320
H          115.59456821758212      110.92897326546370      126.64159433715335
C          114.80064030304472      113.40523245377969      124.33728985401305
H          114.44938542652105      111.29965921654291      124.55921452799276
H          113.64237320115613      112.28124702116520      125.77211331741724
C          113.67051990074124      113.66270275093066      123.34386562554751
H          114.91279024713342      114.28683841378378      124.96979068449781
H          115.72390022833144      113.25952123830713      123.77605044093751
C          112.42330878880085      114.27049173221853      123.97322131821184
H          114.02498954830490      114.34778543745384      122.57179968393157
H          113.38763264153560      112.74243839039941      122.83719269006151
C          111.41012587441199      114.59130247058044      122.87882643159482
N          110.23716434973234      115.24808681307213      123.41271586954817
H          111.84202741325282      115.27371767939196      122.14403804561441
H          111.12020241221140      113.67121500212527      122.36411452322093
C          109.95514155896869      116.52941750670477      123.13974298272431
H          109.72913730713096      114.73555893205524      124.12027475376293
O          116.35871009636966      111.47611601629886      128.85730775054142
C          108.76203009530005      117.10651863049981      123.88917731663079
C          108.23975758310637      118.34224297789596      123.16503019909601
H          107.97984904930728      116.35346525078150      123.99641297901677
H          109.09779699467940      117.38700987433920      124.89014104176883
C          107.13498000634124      119.06804905535077      123.92275828992028
H          109.07228589466141      119.02788990601582      122.99638037156934
H          107.87418822244628      118.03981225393223      122.18102984676833
C          106.55826402195861      120.19557486657627      123.06515937060657
H          106.33970904738163      118.36988194903871      124.19606671940683
H          107.54072873083757      119.49542957124514      124.84166247748014
C          105.44128448544195      120.91413523821177      123.79080674096295
H          107.34478503534642      120.91185498273950      122.82858350189824
H          106.16196910421021      119.79119866768795      122.13412714461430
N          105.86741008822946      121.78974435489688      124.70254654792262
C          104.99395557196499      122.56006737796129      125.55524742306064
H          106.86716680646288      121.92981107412847      124.81869300498666
H          111.96214593295343      113.57926413152899      124.67902478577219
H          112.68069737489294      115.18452388193991      124.51070300390398
O          110.59989581181392      117.19465886524161      122.34109132675025
O          104.25332266134083      120.69124365283818      123.55741435546197
C          105.51236173965783      122.60164778757650      126.99034882203976
H          104.92193222881249      123.58596645966117      125.17236848839606
H          104.00110692371145      122.10759147926163      125.50428682938060
C          105.53542459898296      121.23837305462553      127.67917366717806
H          106.52854329411801      123.00229087227311      126.97362264099958
H          104.88636393369110      123.28818312509776      127.56252314779296
C          104.14731910242649      120.62654440194397      127.87925118017718
H          106.15214476390224      120.55331685808207      127.09614418315546
H          106.00926306698480      121.36396854368529      128.65489000592126
C          104.18192285060583      119.53496096372115      128.94706865027149
H          103.44323799901333      121.40349554339117      128.18583006546834
H          103.78973920062354      120.19981125426932      126.94090183669654
C          102.85257523695829      118.80965824033542      129.11431113134117
H          104.93742998305027      118.79633253413344      128.67873080722819
H          104.45893256574271      119.97865490998076      129.90460787187220
N          102.61190214920168      117.90998275235292      128.00502304737833
H          102.86087151448488      118.23167536382095      130.04823557710304
H          102.01486988366577      119.51163506309177      129.16828817107324
C          101.39095344238714      117.50333511163321      127.64983963709194
H          103.43207316579425      117.55301289887521      127.52160471089441
C          101.35442146182413      116.53049452692029      126.48389892704974
C          100.86022330141117      117.23387585132122      125.21728138708329
H          102.34820124571638      116.11500414818050      126.31578757037656
H          100.66144356055295      115.72759522482242      126.74357951491497
C          101.85647890814801      118.27960248756121      124.72550036554235
H          100.70477853462994      116.48982439546315      124.43457651299695
H           99.89652914538779      117.70442128172633      125.42498833322593
C          101.52698479647384      118.77188218741476      123.31236927576234
H          101.85393211984798      119.13759296365787      125.40053513832586
H          102.86167785661362      117.85731883887985      124.74276333198395
C          101.52021658361447      117.64371982217229      122.30360582980019
H          100.53423056901988      119.22635141496274      123.30759003476638
H          102.26479315158272      119.52674138959320      123.03614544022344
N          102.66408774362156      117.04776232111612      121.98974415972253
C          104.01702372353664      117.38554920793702      122.36118275492268
H          102.59249232539209      116.26301173728875      121.32822530654440
O          100.36502215421064      117.88492590217577      128.21209833879570
C          104.94028205531700      117.16501859280163      121.16303250746020
H          104.06624350958725      118.42550876049442      122.69040882575926
H          104.34057922388156      116.74740880863220      123.19272592483395
C          104.55521775608540      118.06081947991196      119.98791138744504
H          105.96355512615861      117.36338891317058      121.47625784121837
H          104.87403160313093      116.12242896817426      120.84813033172644
C          105.53061812579283      117.96590516466411      118.81318750432182
H          103.56677793777695      117.75327787304396      119.64430618180691
H          104.47809704350485      119.09497394432137      120.32764674002260
C          106.82074999841834      118.76273074812961      119.00430185242355
H          105.78002749811002      116.91457376671130      118.65720706714464
H          105.03696868349351      118.32378919052783      117.90796755039689
C          106.60117295994435      120.27257132207534      118.92040729178409
H          107.27636653630564      118.52268333689700      119.96550807732358
H          107.52798838570234      118.48229292777445      118.22162946318261
N          107.82998977960010      120.98181476857506      119.18808682066907
H          106.22807781152696      120.53909807719131      117.92351872292554
H          105.87039677790511      120.60760317351463      119.65876825117103
O          100.46473743639454      117.27028420218241      121.76961123083842
C          107.95283651980868      121.97579225915545      120.07143741422439
H          108.63790875187068      120.73325158620027      118.62231778544697
C          109.37030878324623      122.49041342853161      120.20828678293510
C          110.22963670169045      121.53174438206831      121.04014101374783
H          109.80377685897915      122.59685697712182      119.21377047388751
H          109.35437066252813      123.46582390349516      120.69530553844938
C          111.69443728794012      121.97230812847592      121.05641691361878
H          109.84699288363487      121.51988169068321      122.06334589723230
H          110.14952501432093      120.51657300266250      120.64646320080723
C          112.45381508056516      121.61439804186807      119.77296210829985
H          111.73882752531307      123.05311043988442      121.20267043564105
H          112.20174547293028      121.50654707227201      121.90265585340589
C          112.68852639326607      120.12072825311012      119.68403717450630
H          111.91639914443128      121.96189515024737      118.89273594412869
H          113.42197236802683      122.11515599440104      119.79444751930592
N          111.88833799962032      119.47079224566943      118.84132367333943
O          107.00404281264198      122.43021084873874      120.71290537756211
C          111.88265374840047      118.03707811818211      118.67079051628622
H          111.18747598900070      119.98049901217176      118.31634349305631
C          110.52992181859238      117.45117324004237      119.06488618171306
H          112.10608554036567      117.79923171548297      117.62568846270742
H          112.66685118211450      117.62977259791322      119.30893759613060
C          110.45585869743292      115.94446107548131      118.83521450273211
H          110.35335002143628      117.65720754907986      120.12150971066281
H          109.75243136691613      117.94899197392722      118.48235114017169
C          109.08319904702157      115.40895463114502      119.23259043333577
H          110.64831337421056      115.71692872756242      117.78396725944741
H          111.21925839827715      115.44587390555586      119.43424940329794
C          108.94976905153894      113.90377218836034      119.01737824111522
H          108.90744912395067      115.64098598132402      120.28497787853382
H          108.31372046279022      115.92160414285416      118.65088820517468
C          107.54020178425100      113.43444287435788      119.36698210398222
H          109.15943219925850      113.65738381223142      117.97397656475002
H          109.67353080274216      113.37367659445481      119.64031285302994
N          107.35622789677060      112.03981195988800      119.03453326457893
H          107.34604631262057      113.60177758172864      120.42933776682632
H          106.79160794229067      113.99150429014625      118.79669449434353
C          106.28245647199883      111.58591768047602      118.37400214438266
H          108.09496348571984      111.40023625107733      119.29429639338024
O          113.57549590508631      119.56036441426173      120.33313465015401
C          106.42880982633238      110.17404641062454      117.84397877681226
C          107.09660085376997      110.23280300119087      116.46532933098537
H          107.04725605920763      109.58824338503128      118.52238263332028
H          105.44670851332607      109.71240697686075      117.75020372872996
C          106.25361240706302      110.99385744705779      115.44202755760919
H          108.07111277448894      110.71442050863182      116.56572346617011
H          107.27251281025281      109.21713419581718      116.10458363864497
C          107.00782077427544      111.19986847937929      114.12301833456969
H          105.33326801393444      110.43727934670733      115.24673992331741
H          105.96709254472239      111.96464885097014      115.84985166426864
C          108.27813369198505      111.98515144307281      114.39029981120517
H          107.28305975155394      110.22763545561234      113.71661698339243
H          106.37676570917942      111.73146780306899      113.41007897088613
N          108.12296234472608      113.31740705253561      114.42003031687389
C          109.17299671700734      114.20409031604110      114.87154066998848
H          107.24368818885083      113.72653515374689      114.13996584374462
O          105.28614698782349      112.26972283418381      118.16408383441787
C          109.55536308703569      115.28537334135621      113.86477071366532
H          108.85269373743922      114.67929157430306      115.80635884067856
H          110.03812032117999      113.56995366992312      115.07879400182945
C          110.79256102883613      116.02628748919474      114.37226758030940
H          109.76667211175332      114.82807187062330      112.89776655135691
H          108.71439808665674      115.96839269473310      113.73918386753711
C          111.15456862715611      117.27532421137296      113.57122391404182
H          110.63654706353391      116.30257258390881      115.41593754913772
H          111.64361818559189      115.34368650310498      114.34055762673165
C          110.12425783349561      118.40465767138757      113.63617391246012
H          112.10468275905005      117.65129678103885      113.95400395939713
H          111.30516057101100      117.00516203132386      112.52495036699030
C          109.76027076991085      118.79012937042299      115.06820034368162
H          110.54886134295843      119.27486278361214      113.13174822012999
H          109.21843704233953      118.11819709429167      113.10015664437137
N          109.11263799058906      120.08428485193669      115.10008422662762
H          109.09914390506269      118.03632907003733      115.50929005455902
H          110.65892162037865      118.86577070358921      115.68639943345397
C          109.21715652218906      120.93919929723398      116.11514093126429
H          108.49115737938850      120.31865028893077      114.34036968243818
O          109.34928523213979      111.43661752020854      114.62127266840507
C          108.53915404549390      122.27002127463101      115.89996626506510
C          109.05552928983874      123.00688413024767      114.65698546568373
H          107.47562818475339      122.07878305900793      115.76467941442660
H          108.67396143638904      122.87707181622446      116.79535860795839
C          110.58035350986067      123.05358722898049      114.55376507685884
H          108.65440734934414      122.52507912956466      113.76459277225636
H          108.66339271962232      124.02426634662339      114.67426965946972
C          111.21964839720198      123.78350045091639      115.73664509032533
H          110.97722104630226      122.03694541689660      114.50699558763330
H          110.84329732180316      123.56303423370336      113.62600850461372
C          112.73747116207660      123.76849026580844      115.66762667244070
H          110.87881495213094      124.81985026034467      115.75297463372340
H          110.93639217800356      123.30247115878215      116.67293523392071
N          113.24263514241422      124.37789897325720      114.58677538221419
O          109.81452522530877      120.66526002397370      117.16086011447130
C          114.65795522690442      124.52348489424679      114.33423388176961
H          112.61848625068050      124.75530748170937      113.88303311680370
C          114.97462626196894      125.94813272070539      113.89328815918344
H          115.18164421628970      124.25854563548914      115.25550759744974
H          114.97131100516901      123.83280169261158      113.54276845198643
C          116.40604700420357      126.08467208680241      113.38663531853472
H          114.28930646943505      126.20295699753615      113.08405302768794
H          114.79975106222196      126.64064058073356      114.71835597770516
C          116.64269522004940      127.45458989647599      112.75790105995728
H          117.10581294218764      125.93752803312118      114.21048561366709
H          116.59824830617164      125.30837570677488      112.64248439882992
C          118.06311022651244      127.58600038222055      112.21904563354063
H          115.93334604711796      127.60576694738427      111.94056393342851
H          116.47364748533289      128.23226237251055      113.50456602096752
C          118.30937974003007      128.93912183927171      111.57226200454002
H          118.77171854942343      127.45532249206265      113.03616955066094
H          118.25220629871046      126.80848278515505      111.47704145668321
N          118.44700176988241      129.97624822806651      112.57698635162328
H          119.21791382551096      128.91101929217160      110.95978316217884
H          117.48518528294265      129.19221628269850      110.89645576082070
C          118.59812573446530      131.25984949012977      112.25843066069656
H          118.35795750529093      129.70875459500695      113.55304536227976
O          113.42882451021357      123.24917192176402      116.53470575292094
C          118.83549064161399      132.19390950825687      113.42945939267902
C          120.25914178350392      132.75791688318623      113.35653192639785
H          118.12709229972084      133.02247918442899      113.36481518405128
H          118.68310927373189      131.65897194774763      114.36603410572495
C          120.55610529844472      133.70756668574211      114.51588596151903
H          120.98204270635516      131.93849268843755      113.35155891814296
H          120.36805057970071      133.29356739666159      112.41224872568067
C          121.77831611956319      134.59368600966948      114.24739075749424
H          119.69328552956549      134.35837828066346      114.67350722243866
H          120.71474081517286      133.14113944319735      115.43431723623357
C          123.08344925887711      133.82409894596043      114.26184717498953
H          121.66938835580380      135.09317008829731      113.28551806655035
H          121.84483945647790      135.34651502174057      115.03543905557355
N          123.62055590055854      133.58576675936439      113.06252154638180
C          124.94296149873246      133.02824317430125      112.88256334049723
H          123.14100249859632      133.91262158075932      112.22843115277804
O          118.57170643298321      131.65844701094065      111.09107671572390
C          124.94256944435404      131.65776220488590      112.20154285560304
H          125.52700902829812      133.72596445523141      112.27400680387846
H          125.40347385844721      132.96082760386795      113.87209555387041
C          126.36912842915780      131.23536914838076      111.85448539218983
H          124.47217384746322      130.91525621845290      112.84870327425126
H          124.35486388429121      131.71767622453558      111.28384325892250
C          126.43286001342940      129.94018779457519      111.04587372112263
H          126.82847328926172      132.03312607312111      111.26659940611357
H          126.95553981327545      131.12187833217817      112.76848055960812
C          127.83875716519842      129.71532004435068      110.48694112466940
H          126.13539125125578      129.09585105080879      111.67019213189056
H          125.71799611276016      129.99312539307397      110.22229294247136
C          127.90091593920889      128.61219507049438      109.44187122342876
H          128.17707520962503      130.63540970804712      110.00781013300114
H          128.53703358336563      129.48032511208197      111.29084225466443
N          127.72015018227751      127.29451167034280      110.01980270643674
H          127.12395634875536      128.77052033276834      108.68299876415907
H          128.87041157512419      128.62631990514421      108.93155546903381
C          128.01571246455225      126.18533071298174      109.33873986873789
H          127.51747890772951      127.22632999069702      111.01044187293688
O          123.61601421167337      133.46932565954700      115.31529086799111
C          127.74992115780195      124.89969134605187      110.10075740168715
C          128.39933812506939      123.68682639922808      109.44759752283055
H          128.09863087545949      125.02462326848311      111.12658880632614
H          126.66542748863888      124.75991654475621      110.13370120305841
C          128.16363457528834      122.40931495312508      110.24617852009172
H          127.99075644796763      123.55953348280444      108.44338970222937
H          129.47118974672480      123.86571771934129      109.33851202791905
C          128.85486942782188      121.20042396811976      109.60875623328900
H          128.52191054024019      122.54269535598496      111.27040409205800
H          127.09273495793585      122.20009533915778      110.28538276886658
C          130.35744835264222      121.39111541985055      109.58018380360447
H          128.60862858573711      120.29924690583478      110.17169099263621
H          128.48383294303437      121.07538902212934      108.59151334785898
N          130.96277285503442      121.11642461701518      110.74619673048363
O          128.42353374770155      126.21105833051108      108.17748208023430
C          132.36996178316829      121.33688559635999      110.99082283880442
H          130.42465078286989      120.71854836506962      111.49911221881312
C          132.61455081693572      121.84372348839747      112.41135034256119
H          132.92700394948244      120.40493411788782      110.83343515217344
H          132.70848721567350      122.05952710307658      110.24530366956780
C          131.73984238828496      123.03407145409174      112.80867233612450
H          132.42663793566879      121.02767258734673      113.11349581628373
H          133.66599759422195      122.12037597734844      112.49240891574506
C          131.88803731718050      124.25617024417295      111.90415822596455
H          130.68979338856673      122.73108918329199      112.81134952335972
H          132.00588547819814      123.32012376149514      113.82920241945088
C          131.11597514819027      125.44356062795060      112.47261108820767
H          132.94319458324634      124.52093971249900      111.81045994694004
H          131.51049779447544      124.02867704834203      110.90526139773239
C          131.14961148946182      126.68006540487320      111.56611921844433
H          130.06955657771294      125.16045451744971      112.62273451657236
H          131.53478481782827      125.71082566108471      113.44822235839827
N          130.45333349034473      127.83114399099844      112.11948360906871
H          132.18660702680435      126.97182661580447      111.37414632369914
H          130.68437208066430      126.44063566443998      110.60426736990539
H          129.49669028061720      127.55925153052046      112.33276873019356
H          130.89032385538175      128.09535302294603      112.99706816698080
O          130.96913325296921      121.80922916336881      108.60607647449214
C          122.61791625120418      103.09343162460664      121.26446720540581
C          121.71178263439558      103.99608674503020      122.06866704807976
C          122.32667241270885      103.02404949976157      119.76310142216415
C          121.31184527490224      101.95179872127400      119.35590220684352
H          121.98690778649059      103.99898769415401      119.40929631190890
H          123.26637253287909      102.80028541306508      119.25299929487974
C          119.84538108750166      102.35295572155728      119.54636710911549
H          121.45956754253717      101.71107334232192      118.29876445065105
H          121.51045752856062      101.04220726217044      119.92890109513952
C          119.43958355105140      103.42473748074913      118.54084782185561
H          119.21680335434422      101.48072673182484      119.36168195823466
H          119.67834296727703      102.70497458551880      120.56259667850850
N          119.45538570917000      104.66524472160739      119.03071015980723
O          122.09453752910393      104.09919671921391      123.31798549629268
O          120.74732907130934      104.58821457994252      121.62680529767322
H          121.52843090672444      104.75882506836969      123.84245221521508
H          122.58839595955017      102.10161553012165      121.72272808708112
H          123.63191324351993      103.46417434507208      121.43045479521651
C          119.13541057222946      105.85396857308295      118.26407457702037
H          119.80458760954198      104.80117572061876      119.97185855745886
C          119.08759363065093      107.07918618180345      119.16864249736459
H          119.87523420375815      106.00901969003162      117.47150408179942
H          118.16635622587975      105.68951292208877      117.77811606116107
C          120.46393990019880      107.43745334781211      119.73218281368212
H          118.70994070360567      107.91267946093011      118.57472902905357
H          118.38954900943459      106.88188316403743      119.98008155068378
C          120.47437212202803      108.73275884368543      120.54775211322932
H          120.83072552137652      106.61918041578285      120.35133245245660
H          121.15758675479812      107.54696720899346      118.89511876273373
C          119.47824814769632      108.77167967500358      121.70813020801857
H          121.47940320466277      108.88685585568764      120.94222834786332
H          120.25438181143114      109.56841834274822      119.88024928180639
C          119.70084335550308      107.70286225284501      122.76893861363008
H          119.54545641655092      109.75435252474988      122.17757202048035
H          118.46653283372740      108.65489976349699      121.32560355644603
N          120.89443415901457      107.95882774024807      123.55399469196617
H          118.84628810154932      107.68558961655071      123.45607794328396
H          119.78183678799024      106.71034219063202      122.31705857889196