      -----------------------------------------------------------      
     |                   =====================                   |     
     |                           x T B                           |     
     |                   =====================                   |     
     |                         S. Grimme                         |     
     |          Mulliken Center for Theoretical Chemistry        |     
     |                    University of Bonn                     |     
      -----------------------------------------------------------      

   * xtb version 6.6.1 (8d0f1dd) compiled by 'stahn@M-Bot' on 2023-08-01

   xtb is free software: you can redistribute it and/or modify it under
   the terms of the GNU Lesser General Public License as published by
   the Free Software Foundation, either version 3 of the License, or
   (at your option) any later version.
   
   xtb is distributed in the hope that it will be useful,
   but WITHOUT ANY WARRANTY; without even the implied warranty of
   MERCHANTABILITY or FITNESS FOR A PARTICULAR PURPOSE.  See the
   GNU Lesser General Public License for more details.
   
   Cite this work as:
   * C. Bannwarth, E. Caldeweyher, S. Ehlert, A. Hansen, P. Pracht,
     J. Seibert, S. Spicher, S. Grimme, WIREs Comput. Mol. Sci., 2020, 11,
     e01493. DOI: 10.1002/wcms.1493
   
   for GFN2-xTB:
   * C. Bannwarth, S. Ehlert and S. Grimme., J. Chem. Theory Comput., 2019,
     15, 1652-1671. DOI: 10.1021/acs.jctc.8b01176
   for GFN1-xTB:
   * S. Grimme, C. Bannwarth, P. Shushkov, J. Chem. Theory Comput., 2017,
     13, 1989-2009. DOI: 10.1021/acs.jctc.7b00118
   for GFN0-xTB:
   * P. Pracht, E. Caldeweyher, S. Ehlert, S. Grimme, ChemRxiv, 2019, preprint.
     DOI: 10.26434/chemrxiv.8326202.v1
   for GFN-FF:
   * S. Spicher and S. Grimme, Angew. Chem. Int. Ed., 2020, 59, 15665-15673.
     DOI: 10.1002/anie.202004239
   
   for ALPB and GBSA implicit solvation:
   * S. Ehlert, M. Stahn, S. Spicher, S. Grimme, J. Chem. Theory Comput.,
     2021, 17, 4250-4261. DOI: 10.1021/acs.jctc.1c00471
   
   for DFT-D4:
   * E. Caldeweyher, C. Bannwarth and S. Grimme, J. Chem. Phys., 2017,
     147, 034112. DOI: 10.1063/1.4993215
   * E. Caldeweyher, S. Ehlert, A. Hansen, H. Neugebauer, S. Spicher,
     C. Bannwarth and S. Grimme, J. Chem. Phys., 2019, 150, 154122.
     DOI: 10.1063/1.5090222
   * E. Caldeweyher, J.-M. Mewes, S. Ehlert and S. Grimme, Phys. Chem. Chem. Phys.
     2020, 22, 8499-8512. DOI: 10.1039/D0CP00502A
   
   for sTDA-xTB:
   * S. Grimme and C. Bannwarth, J. Chem. Phys., 2016, 145, 054103.
     DOI: 10.1063/1.4959605
   
   in the mass-spec context:
   * V. Asgeirsson, C. Bauer and S. Grimme, Chem. Sci., 2017, 8, 4879.
     DOI: 10.1039/c7sc00601b
   * J. Koopman and S. Grimme, ACS Omega 2019, 4, 12, 15120-15133.
     DOI: 10.1021/acsomega.9b02011
   
   for metadynamics refer to:
   * S. Grimme, J. Chem. Theory Comput., 2019, 155, 2847-2862
     DOI: 10.1021/acs.jctc.9b00143
   
   for SPH calculations refer to:
   * S. Spicher and S. Grimme, J. Chem. Theory Comput., 2021, 17, 1701-1714
     DOI: 10.1021/acs.jctc.0c01306
   
   with help from (in alphabetical order)
   P. Atkinson, C. Bannwarth, F. Bohle, G. Brandenburg, E. Caldeweyher
   M. Checinski, S. Dohm, S. Ehlert, S. Ehrlich, I. Gerasimov, C. Hölzer
   A. Katbashev, J. Koopman, C. Lavigne, S. Lehtola, F. März, M. Müller,
   F. Musil, H. Neugebauer, J. Pisarek, C. Plett, P. Pracht, F. Pultar,
   J. Seibert, P. Shushkov, S. Spicher, M. Stahn, M. Steiner, T. Strunk,
   J. Stückrath, T. Rose, and J. Unsleber
   
 * started run on 2024/06/25 at 08:02:06.431     

           -------------------------------------------------
          |                Calculation Setup                |
           -------------------------------------------------

          program call               : /home/abt-grimme/AK-bin/xtb input.xyz --input input.inp --opt --gbsa water
          hostname                   : boar063.thch.uni-bonn.de
          coordinate file            : input.xyz
          omp threads                :                     8

   ID    Z sym.   atoms
    1    6 C      1-4, 7, 10, 19, 21, 24, 27, 30, 33, 39, 42, 43, 46, 49, 52,
                  56, 59, 62, 65, 68, 71, 75, 78, 79, 82, 85, 88, 92, 98,
                  101, 104, 107, 110, 116, 118, 119, 122, 125, 128, 132, 135,
                  138, 141, 144, 147, 154, 156, 157, 160, 163, 166, 171, 173,
                  176, 179, 182, 185, 191, 194, 195, 198, 201, 204, 208, 211,
                  214, 217, 220, 223, 229, 232, 233, 236, 239, 242, 247, 249,
                  252, 255, 258, 261, 267, 270, 271, 274, 277, 280, 284, 287,
                  290, 293, 296, 299, 305, 308, 309, 312, 315, 318, 323, 325,
                  328, 331, 334, 337, 346-349, 352, 355, 364, 366, 369, 372,
                  375, 378, 384, 387, 388, 391, 394, 397, 401, 404, 407, 410,
                  413, 416, 420, 423, 424, 427, 430, 433, 437, 443, 446, 449,
                  452, 455, 461, 463, 464, 467, 470, 473, 477, 480, 483, 486,
                  489, 492, 499, 501, 502, 505, 508, 511, 516, 518, 521, 524,
                  527, 530, 536, 539, 540, 543, 546, 549, 553, 556, 559, 562,
                  565, 568, 574, 577, 578, 581, 584, 587, 592, 594, 597, 600,
                  603, 606, 612, 615, 616, 619, 622, 625, 629, 632, 635, 638,
                  641, 644, 650, 653, 654, 657, 660, 663, 668, 670, 673, 676,
                  679, 682, 691-694, 697, 700, 709, 711, 714, 717, 720, 723,
                  729, 732, 733, 736, 739, 742, 746, 749, 752, 755, 758, 761,
                  765, 768, 769, 772, 775, 778, 782, 788, 791, 794, 797, 800,
                  806, 808, 809, 812, 815, 818, 822, 825, 828, 831, 834, 837,
                  844, 846, 847, 850, 853, 856, 861, 863, 866, 869, 872, 875,
                  881, 884, 885, 888, 891, 894, 898, 901, 904, 907, 910, 913,
                  919, 922, 923, 926, 929, 932, 937, 939, 942, 945, 948, 951,
                  957, 960, 961, 964, 967, 970, 974, 977, 980, 983, 986, 989,
                  995, 998, 999, 1002, 1005, 1008, 1013, 1015, 1018, 1021,
                  1024, 1027, 1036-1039, 1042, 1045, 1054, 1056, 1059, 1062,
                  1065, 1068, 1074, 1077, 1078, 1081, 1084, 1087, 1091, 1094,
                  1097, 1100, 1103, 1106, 1110, 1113, 1114, 1117, 1120, 1123,
                  1127, 1133, 1136, 1139, 1142, 1145, 1151, 1153, 1154, 1157,
                  1160, 1163, 1167, 1170, 1173, 1176, 1179, 1182, 1189, 1191,
                  1192, 1195, 1198, 1201, 1206, 1208, 1211, 1214, 1217, 1220,
                  1226, 1229, 1230, 1233, 1236, 1239, 1243, 1246, 1249, 1252,
                  1255, 1258, 1264, 1267, 1268, 1271, 1274, 1277, 1282, 1284,
                  1287, 1290, 1293, 1296, 1302, 1305, 1306, 1309, 1312, 1315,
                  1319, 1322, 1325, 1328, 1331, 1334, 1340, 1343, 1344, 1347,
                  1350, 1353, 1358, 1360, 1363, 1366, 1369, 1372, 1381-1384,
                  1387, 1390, 1399, 1401, 1404, 1407, 1410, 1413, 1419, 1422,
                  1423, 1426, 1429, 1432, 1436, 1439, 1442, 1445, 1448, 1451,
                  1455, 1458, 1459, 1462, 1465, 1468, 1472, 1478, 1481, 1484,
                  1487, 1490, 1496, 1498, 1499, 1502, 1505, 1508, 1512, 1515,
                  1518, 1521, 1524, 1527, 1534, 1536, 1537, 1540, 1543, 1546,
                  1551, 1553, 1556, 1559, 1562, 1565, 1571, 1574, 1575, 1578,
                  1581, 1584, 1588, 1591, 1594, 1597, 1600, 1603, 1609, 1612,
                  1613, 1616, 1619, 1622, 1627, 1629, 1632, 1635, 1638, 1641,
                  1647, 1650, 1651, 1654, 1657, 1660, 1664, 1667, 1670, 1673,
                  1676, 1679, 1685, 1688, 1689, 1692, 1695, 1698, 1703, 1705,
                  1708, 1711, 1714, 1717, 1726-1729, 1732, 1735, 1744, 1746,
                  1749, 1752, 1755, 1758, 1764, 1767, 1768, 1771, 1774, 1777,
                  1781, 1784, 1787, 1790, 1793, 1796, 1800, 1803, 1804, 1807,
                  1810, 1813, 1817, 1823, 1826, 1829, 1832, 1835, 1841, 1843,
                  1844, 1847, 1850, 1853, 1857, 1860, 1863, 1866, 1869, 1872,
                  1879, 1881, 1882, 1885, 1888, 1891, 1896, 1898, 1901, 1904,
                  1907, 1910, 1916, 1919, 1920, 1923, 1926, 1929, 1933, 1936,
                  1939, 1942, 1945, 1948, 1954, 1957, 1958, 1961, 1964, 1967,
                  1972, 1974, 1977, 1980, 1983, 1986, 1992, 1995, 1996, 1999,
                  2002, 2005, 2009, 2012, 2015, 2018, 2021, 2024, 2030, 2033,
                  2034, 2037, 2040, 2043, 2048, 2050, 2053, 2056, 2059, 2062,
                  2071-2074, 2077, 2080, 2089, 2091, 2094, 2097, 2100, 2103,
                  2109, 2112, 2113, 2116, 2119, 2122, 2126, 2129, 2132, 2135,
                  2138, 2141, 2145, 2148, 2149, 2152, 2155, 2158, 2162, 2168,
                  2171, 2174, 2177, 2180, 2186, 2188, 2189, 2192, 2195, 2198,
                  2202, 2205, 2208, 2211, 2214, 2217, 2224, 2226, 2227, 2230,
                  2233, 2236, 2241, 2243, 2246, 2249, 2252, 2255, 2261, 2264,
                  2265, 2268, 2271, 2274, 2278, 2281, 2284, 2287, 2290, 2293,
                  2299, 2302, 2303, 2306, 2309, 2312, 2317, 2319, 2322, 2325,
                  2328, 2331, 2337, 2340, 2341, 2344, 2347, 2350, 2354, 2357,
                  2360, 2363, 2366, 2369, 2375, 2378, 2379, 2382, 2385, 2388,
                  2393, 2395, 2398, 2401, 2404, 2407, 2416-2419, 2422, 2425,
                  2434, 2436, 2439, 2442, 2445, 2448, 2454, 2457, 2458, 2461,
                  2464, 2467, 2471, 2474, 2477, 2480, 2483, 2486, 2490, 2493,
                  2494, 2497, 2500, 2503, 2507, 2513, 2516, 2519, 2522, 2525,
                  2531, 2533, 2534, 2537, 2540, 2543, 2547, 2550, 2553, 2556,
                  2559, 2562, 2569, 2571, 2572, 2575, 2578, 2581, 2586, 2588,
                  2591, 2594, 2597, 2600, 2606, 2609, 2610, 2613, 2616, 2619,
                  2623, 2626, 2629, 2632, 2635, 2638, 2644, 2647, 2648, 2651,
                  2654, 2657, 2662, 2664, 2667, 2670, 2673, 2676, 2682, 2685,
                  2686, 2689, 2692, 2695, 2699, 2702, 2705, 2708, 2711, 2714,
                  2720, 2723, 2724, 2727, 2730, 2733, 2738, 2740, 2743, 2746,
                  2749, 2752, 2761-2764, 2767, 2770, 2779, 2781, 2784, 2787,
                  2790, 2793, 2799, 2802, 2803, 2806, 2809, 2812, 2816, 2819,
                  2822, 2825, 2828, 2831, 2835, 2838, 2839, 2842, 2845, 2848,
                  2852, 2858, 2861, 2864, 2867, 2870, 2876, 2878, 2879, 2882,
                  2885, 2888, 2892, 2895, 2898, 2901, 2904, 2907, 2914, 2916,
                  2917, 2920, 2923, 2926, 2931, 2933, 2936, 2939, 2942, 2945,
                  2951, 2954, 2955, 2958, 2961, 2964, 2968, 2971, 2974, 2977,
                  2980, 2983, 2989, 2992, 2993, 2996, 2999, 3002, 3007, 3009,
                  3012, 3015, 3018, 3021, 3027, 3030, 3031, 3034, 3037, 3040,
                  3044, 3047, 3050, 3053, 3056, 3059, 3065, 3068, 3069, 3072,
                  3075, 3078, 3083, 3085, 3088, 3091, 3094, 3097, 3106-3109,
                  3112, 3115, 3124, 3126, 3129, 3132, 3135, 3138, 3144, 3147,
                  3148, 3151, 3154, 3157, 3161, 3164, 3167, 3170, 3173, 3176,
                  3180, 3183, 3184, 3187, 3190, 3193, 3197, 3203, 3206, 3209,
                  3212, 3215, 3221, 3223, 3224, 3227, 3230, 3233, 3237, 3240,
                  3243, 3246, 3249, 3252, 3259, 3261, 3262, 3265, 3268, 3271,
                  3276, 3278, 3281, 3284, 3287, 3290, 3296, 3299, 3300, 3303,
                  3306, 3309, 3313, 3316, 3319, 3322, 3325, 3328, 3334, 3337,
                  3338, 3341, 3344, 3347, 3352, 3354, 3357, 3360, 3363, 3366,
                  3372, 3375, 3376, 3379, 3382, 3385, 3389, 3392, 3395, 3398,
                  3401, 3404, 3410, 3413, 3414, 3417, 3420, 3423, 3428, 3430,
                  3433, 3436, 3439, 3442, 3451-3454, 3457, 3460, 3469, 3471,
                  3474, 3477, 3480, 3483, 3489, 3492, 3493, 3496, 3499, 3502,
                  3506, 3509, 3512, 3515, 3518, 3521, 3525, 3528, 3529, 3532,
                  3535, 3538, 3542, 3548, 3551, 3554, 3557, 3560, 3566, 3568,
                  3569, 3572, 3575, 3578, 3582, 3585, 3588, 3591, 3594, 3597,
                  3604, 3606, 3607, 3610, 3613, 3616, 3621, 3623, 3626, 3629,
                  3632, 3635, 3641, 3644, 3645, 3648, 3651, 3654, 3658, 3661,
                  3664, 3667, 3670, 3673, 3679, 3682, 3683, 3686, 3689, 3692,
                  3697, 3699, 3702, 3705, 3708, 3711, 3717, 3720, 3721, 3724,
                  3727, 3730, 3734, 3737, 3740, 3743, 3746, 3749, 3755, 3758,
                  3759, 3762, 3765, 3768, 3773, 3775, 3778, 3781, 3784, 3787
    2    1 H      5, 6, 8, 9, 11, 12, 16-18, 20, 22, 23, 25, 26, 28, 29, 31,
                  32, 34, 35, 37, 38, 40, 44, 45, 47, 48, 50, 51, 53, 54, 57,
                  60, 61, 63, 64, 66, 67, 69, 70, 73, 74, 76, 80, 81, 83, 84,
                  86, 87, 89, 90, 93-95, 99, 100, 102, 103, 105, 106, 108,
                  109, 111, 112, 114, 115, 117, 120, 121, 123, 124, 126, 127,
                  129, 130, 133, 136, 137, 139, 140, 142, 143, 145, 146, 148,
                  149, 151, 152, 155, 158, 159, 161, 162, 164, 165, 167, 168,
                  172, 174, 175, 177, 178, 180, 181, 183, 184, 186, 187, 189,
                  190, 192, 196, 197, 199, 200, 202, 203, 205, 206, 209, 212,
                  213, 215, 216, 218, 219, 221, 222, 224, 225, 227, 228, 230,
                  234, 235, 237, 238, 240, 241, 243, 244, 248, 250, 251, 253,
                  254, 256, 257, 259, 260, 262, 263, 265, 266, 268, 272, 273,
                  275, 276, 278, 279, 281, 282, 285, 288, 289, 291, 292, 294,
                  295, 297, 298, 300, 301, 303, 304, 306, 310, 311, 313, 314,
                  316, 317, 319, 320, 324, 326, 327, 329, 330, 332, 333, 335,
                  336, 338, 339, 341-344, 350, 351, 353, 354, 356, 357,
                  361-363, 365, 367, 368, 370, 371, 373, 374, 376, 377, 379,
                  380, 382, 383, 385, 389, 390, 392, 393, 395, 396, 398, 399,
                  402, 405, 406, 408, 409, 411, 412, 414, 415, 418, 419, 421,
                  425, 426, 428, 429, 431, 432, 434, 435, 438-440, 444, 445,
                  447, 448, 450, 451, 453, 454, 456, 457, 459, 460, 462, 465,
                  466, 468, 469, 471, 472, 474, 475, 478, 481, 482, 484, 485,
                  487, 488, 490, 491, 493, 494, 496, 497, 500, 503, 504, 506,
                  507, 509, 510, 512, 513, 517, 519, 520, 522, 523, 525, 526,
                  528, 529, 531, 532, 534, 535, 537, 541, 542, 544, 545, 547,
                  548, 550, 551, 554, 557, 558, 560, 561, 563, 564, 566, 567,
                  569, 570, 572, 573, 575, 579, 580, 582, 583, 585, 586, 588,
                  589, 593, 595, 596, 598, 599, 601, 602, 604, 605, 607, 608,
                  610, 611, 613, 617, 618, 620, 621, 623, 624, 626, 627, 630,
                  633, 634, 636, 637, 639, 640, 642, 643, 645, 646, 648, 649,
                  651, 655, 656, 658, 659, 661, 662, 664, 665, 669, 671, 672,
                  674, 675, 677, 678, 680, 681, 683, 684, 686-689, 695, 696,
                  698, 699, 701, 702, 706-708, 710, 712, 713, 715, 716, 718,
                  719, 721, 722, 724, 725, 727, 728, 730, 734, 735, 737, 738,
                  740, 741, 743, 744, 747, 750, 751, 753, 754, 756, 757, 759,
                  760, 763, 764, 766, 770, 771, 773, 774, 776, 777, 779, 780,
                  783-785, 789, 790, 792, 793, 795, 796, 798, 799, 801, 802,
                  804, 805, 807, 810, 811, 813, 814, 816, 817, 819, 820, 823,
                  826, 827, 829, 830, 832, 833, 835, 836, 838, 839, 841, 842,
                  845, 848, 849, 851, 852, 854, 855, 857, 858, 862, 864, 865,
                  867, 868, 870, 871, 873, 874, 876, 877, 879, 880, 882, 886,
                  887, 889, 890, 892, 893, 895, 896, 899, 902, 903, 905, 906,
                  908, 909, 911, 912, 914, 915, 917, 918, 920, 924, 925, 927,
                  928, 930, 931, 933, 934, 938, 940, 941, 943, 944, 946, 947,
                  949, 950, 952, 953, 955, 956, 958, 962, 963, 965, 966, 968,
                  969, 971, 972, 975, 978, 979, 981, 982, 984, 985, 987, 988,
                  990, 991, 993, 994, 996, 1000, 1001, 1003, 1004, 1006,
                  1007, 1009, 1010, 1014, 1016, 1017, 1019, 1020, 1022, 1023,
                  1025, 1026, 1028, 1029, 1031-1034, 1040, 1041, 1043, 1044,
                  1046, 1047, 1051-1053, 1055, 1057, 1058, 1060, 1061, 1063,
                  1064, 1066, 1067, 1069, 1070, 1072, 1073, 1075, 1079, 1080,
                  1082, 1083, 1085, 1086, 1088, 1089, 1092, 1095, 1096, 1098,
                  1099, 1101, 1102, 1104, 1105, 1108, 1109, 1111, 1115, 1116,
                  1118, 1119, 1121, 1122, 1124, 1125, 1128-1130, 1134, 1135,
                  1137, 1138, 1140, 1141, 1143, 1144, 1146, 1147, 1149, 1150,
                  1152, 1155, 1156, 1158, 1159, 1161, 1162, 1164, 1165, 1168,
                  1171, 1172, 1174, 1175, 1177, 1178, 1180, 1181, 1183, 1184,
                  1186, 1187, 1190, 1193, 1194, 1196, 1197, 1199, 1200, 1202,
                  1203, 1207, 1209, 1210, 1212, 1213, 1215, 1216, 1218, 1219,
                  1221, 1222, 1224, 1225, 1227, 1231, 1232, 1234, 1235, 1237,
                  1238, 1240, 1241, 1244, 1247, 1248, 1250, 1251, 1253, 1254,
                  1256, 1257, 1259, 1260, 1262, 1263, 1265, 1269, 1270, 1272,
                  1273, 1275, 1276, 1278, 1279, 1283, 1285, 1286, 1288, 1289,
                  1291, 1292, 1294, 1295, 1297, 1298, 1300, 1301, 1303, 1307,
                  1308, 1310, 1311, 1313, 1314, 1316, 1317, 1320, 1323, 1324,
                  1326, 1327, 1329, 1330, 1332, 1333, 1335, 1336, 1338, 1339,
                  1341, 1345, 1346, 1348, 1349, 1351, 1352, 1354, 1355, 1359,
                  1361, 1362, 1364, 1365, 1367, 1368, 1370, 1371, 1373, 1374,
                  1376-1379, 1385, 1386, 1388, 1389, 1391, 1392, 1396-1398,
                  1400, 1402, 1403, 1405, 1406, 1408, 1409, 1411, 1412, 1414,
                  1415, 1417, 1418, 1420, 1424, 1425, 1427, 1428, 1430, 1431,
                  1433, 1434, 1437, 1440, 1441, 1443, 1444, 1446, 1447, 1449,
                  1450, 1453, 1454, 1456, 1460, 1461, 1463, 1464, 1466, 1467,
                  1469, 1470, 1473-1475, 1479, 1480, 1482, 1483, 1485, 1486,
                  1488, 1489, 1491, 1492, 1494, 1495, 1497, 1500, 1501, 1503,
                  1504, 1506, 1507, 1509, 1510, 1513, 1516, 1517, 1519, 1520,
                  1522, 1523, 1525, 1526, 1528, 1529, 1531, 1532, 1535, 1538,
                  1539, 1541, 1542, 1544, 1545, 1547, 1548, 1552, 1554, 1555,
                  1557, 1558, 1560, 1561, 1563, 1564, 1566, 1567, 1569, 1570,
                  1572, 1576, 1577, 1579, 1580, 1582, 1583, 1585, 1586, 1589,
                  1592, 1593, 1595, 1596, 1598, 1599, 1601, 1602, 1604, 1605,
                  1607, 1608, 1610, 1614, 1615, 1617, 1618, 1620, 1621, 1623,
                  1624, 1628, 1630, 1631, 1633, 1634, 1636, 1637, 1639, 1640,
                  1642, 1643, 1645, 1646, 1648, 1652, 1653, 1655, 1656, 1658,
                  1659, 1661, 1662, 1665, 1668, 1669, 1671, 1672, 1674, 1675,
                  1677, 1678, 1680, 1681, 1683, 1684, 1686, 1690, 1691, 1693,
                  1694, 1696, 1697, 1699, 1700, 1704, 1706, 1707, 1709, 1710,
                  1712, 1713, 1715, 1716, 1718, 1719, 1721-1724, 1730, 1731,
                  1733, 1734, 1736, 1737, 1741-1743, 1745, 1747, 1748, 1750,
                  1751, 1753, 1754, 1756, 1757, 1759, 1760, 1762, 1763, 1765,
                  1769, 1770, 1772, 1773, 1775, 1776, 1778, 1779, 1782, 1785,
                  1786, 1788, 1789, 1791, 1792, 1794, 1795, 1798, 1799, 1801,
                  1805, 1806, 1808, 1809, 1811, 1812, 1814, 1815, 1818-1820,
                  1824, 1825, 1827, 1828, 1830, 1831, 1833, 1834, 1836, 1837,
                  1839, 1840, 1842, 1845, 1846, 1848, 1849, 1851, 1852, 1854,
                  1855, 1858, 1861, 1862, 1864, 1865, 1867, 1868, 1870, 1871,
                  1873, 1874, 1876, 1877, 1880, 1883, 1884, 1886, 1887, 1889,
                  1890, 1892, 1893, 1897, 1899, 1900, 1902, 1903, 1905, 1906,
                  1908, 1909, 1911, 1912, 1914, 1915, 1917, 1921, 1922, 1924,
                  1925, 1927, 1928, 1930, 1931, 1934, 1937, 1938, 1940, 1941,
                  1943, 1944, 1946, 1947, 1949, 1950, 1952, 1953, 1955, 1959,
                  1960, 1962, 1963, 1965, 1966, 1968, 1969, 1973, 1975, 1976,
                  1978, 1979, 1981, 1982, 1984, 1985, 1987, 1988, 1990, 1991,
                  1993, 1997, 1998, 2000, 2001, 2003, 2004, 2006, 2007, 2010,
                  2013, 2014, 2016, 2017, 2019, 2020, 2022, 2023, 2025, 2026,
                  2028, 2029, 2031, 2035, 2036, 2038, 2039, 2041, 2042, 2044,
                  2045, 2049, 2051, 2052, 2054, 2055, 2057, 2058, 2060, 2061,
                  2063, 2064, 2066-2069, 2075, 2076, 2078, 2079, 2081, 2082,
                  2086-2088, 2090, 2092, 2093, 2095, 2096, 2098, 2099, 2101,
                  2102, 2104, 2105, 2107, 2108, 2110, 2114, 2115, 2117, 2118,
                  2120, 2121, 2123, 2124, 2127, 2130, 2131, 2133, 2134, 2136,
                  2137, 2139, 2140, 2143, 2144, 2146, 2150, 2151, 2153, 2154,
                  2156, 2157, 2159, 2160, 2163-2165, 2169, 2170, 2172, 2173,
                  2175, 2176, 2178, 2179, 2181, 2182, 2184, 2185, 2187, 2190,
                  2191, 2193, 2194, 2196, 2197, 2199, 2200, 2203, 2206, 2207,
                  2209, 2210, 2212, 2213, 2215, 2216, 2218, 2219, 2221, 2222,
                  2225, 2228, 2229, 2231, 2232, 2234, 2235, 2237, 2238, 2242,
                  2244, 2245, 2247, 2248, 2250, 2251, 2253, 2254, 2256, 2257,
                  2259, 2260, 2262, 2266, 2267, 2269, 2270, 2272, 2273, 2275,
                  2276, 2279, 2282, 2283, 2285, 2286, 2288, 2289, 2291, 2292,
                  2294, 2295, 2297, 2298, 2300, 2304, 2305, 2307, 2308, 2310,
                  2311, 2313, 2314, 2318, 2320, 2321, 2323, 2324, 2326, 2327,
                  2329, 2330, 2332, 2333, 2335, 2336, 2338, 2342, 2343, 2345,
                  2346, 2348, 2349, 2351, 2352, 2355, 2358, 2359, 2361, 2362,
                  2364, 2365, 2367, 2368, 2370, 2371, 2373, 2374, 2376, 2380,
                  2381, 2383, 2384, 2386, 2387, 2389, 2390, 2394, 2396, 2397,
                  2399, 2400, 2402, 2403, 2405, 2406, 2408, 2409, 2411-2414,
                  2420, 2421, 2423, 2424, 2426, 2427, 2431-2433, 2435, 2437,
                  2438, 2440, 2441, 2443, 2444, 2446, 2447, 2449, 2450, 2452,
                  2453, 2455, 2459, 2460, 2462, 2463, 2465, 2466, 2468, 2469,
                  2472, 2475, 2476, 2478, 2479, 2481, 2482, 2484, 2485, 2488,
                  2489, 2491, 2495, 2496, 2498, 2499, 2501, 2502, 2504, 2505,
                  2508-2510, 2514, 2515, 2517, 2518, 2520, 2521, 2523, 2524,
                  2526, 2527, 2529, 2530, 2532, 2535, 2536, 2538, 2539, 2541,
                  2542, 2544, 2545, 2548, 2551, 2552, 2554, 2555, 2557, 2558,
                  2560, 2561, 2563, 2564, 2566, 2567, 2570, 2573, 2574, 2576,
                  2577, 2579, 2580, 2582, 2583, 2587, 2589, 2590, 2592, 2593,
                  2595, 2596, 2598, 2599, 2601, 2602, 2604, 2605, 2607, 2611,
                  2612, 2614, 2615, 2617, 2618, 2620, 2621, 2624, 2627, 2628,
                  2630, 2631, 2633, 2634, 2636, 2637, 2639, 2640, 2642, 2643,
                  2645, 2649, 2650, 2652, 2653, 2655, 2656, 2658, 2659, 2663,
                  2665, 2666, 2668, 2669, 2671, 2672, 2674, 2675, 2677, 2678,
                  2680, 2681, 2683, 2687, 2688, 2690, 2691, 2693, 2694, 2696,
                  2697, 2700, 2703, 2704, 2706, 2707, 2709, 2710, 2712, 2713,
                  2715, 2716, 2718, 2719, 2721, 2725, 2726, 2728, 2729, 2731,
                  2732, 2734, 2735, 2739, 2741, 2742, 2744, 2745, 2747, 2748,
                  2750, 2751, 2753, 2754, 2756-2759, 2765, 2766, 2768, 2769,
                  2771, 2772, 2776-2778, 2780, 2782, 2783, 2785, 2786, 2788,
                  2789, 2791, 2792, 2794, 2795, 2797, 2798, 2800, 2804, 2805,
                  2807, 2808, 2810, 2811, 2813, 2814, 2817, 2820, 2821, 2823,
                  2824, 2826, 2827, 2829, 2830, 2833, 2834, 2836, 2840, 2841,
                  2843, 2844, 2846, 2847, 2849, 2850, 2853-2855, 2859, 2860,
                  2862, 2863, 2865, 2866, 2868, 2869, 2871, 2872, 2874, 2875,
                  2877, 2880, 2881, 2883, 2884, 2886, 2887, 2889, 2890, 2893,
                  2896, 2897, 2899, 2900, 2902, 2903, 2905, 2906, 2908, 2909,
                  2911, 2912, 2915, 2918, 2919, 2921, 2922, 2924, 2925, 2927,
                  2928, 2932, 2934, 2935, 2937, 2938, 2940, 2941, 2943, 2944,
                  2946, 2947, 2949, 2950, 2952, 2956, 2957, 2959, 2960, 2962,
                  2963, 2965, 2966, 2969, 2972, 2973, 2975, 2976, 2978, 2979,
                  2981, 2982, 2984, 2985, 2987, 2988, 2990, 2994, 2995, 2997,
                  2998, 3000, 3001, 3003, 3004, 3008, 3010, 3011, 3013, 3014,
                  3016, 3017, 3019, 3020, 3022, 3023, 3025, 3026, 3028, 3032,
                  3033, 3035, 3036, 3038, 3039, 3041, 3042, 3045, 3048, 3049,
                  3051, 3052, 3054, 3055, 3057, 3058, 3060, 3061, 3063, 3064,
                  3066, 3070, 3071, 3073, 3074, 3076, 3077, 3079, 3080, 3084,
                  3086, 3087, 3089, 3090, 3092, 3093, 3095, 3096, 3098, 3099,
                  3101-3104, 3110, 3111, 3113, 3114, 3116, 3117, 3121-3123,
                  3125, 3127, 3128, 3130, 3131, 3133, 3134, 3136, 3137, 3139,
                  3140, 3142, 3143, 3145, 3149, 3150, 3152, 3153, 3155, 3156,
                  3158, 3159, 3162, 3165, 3166, 3168, 3169, 3171, 3172, 3174,
                  3175, 3178, 3179, 3181, 3185, 3186, 3188, 3189, 3191, 3192,
                  3194, 3195, 3198-3200, 3204, 3205, 3207, 3208, 3210, 3211,
                  3213, 3214, 3216, 3217, 3219, 3220, 3222, 3225, 3226, 3228,
                  3229, 3231, 3232, 3234, 3235, 3238, 3241, 3242, 3244, 3245,
                  3247, 3248, 3250, 3251, 3253, 3254, 3256, 3257, 3260, 3263,
                  3264, 3266, 3267, 3269, 3270, 3272, 3273, 3277, 3279, 3280,
                  3282, 3283, 3285, 3286, 3288, 3289, 3291, 3292, 3294, 3295,
                  3297, 3301, 3302, 3304, 3305, 3307, 3308, 3310, 3311, 3314,
                  3317, 3318, 3320, 3321, 3323, 3324, 3326, 3327, 3329, 3330,
                  3332, 3333, 3335, 3339, 3340, 3342, 3343, 3345, 3346, 3348,
                  3349, 3353, 3355, 3356, 3358, 3359, 3361, 3362, 3364, 3365,
                  3367, 3368, 3370, 3371, 3373, 3377, 3378, 3380, 3381, 3383,
                  3384, 3386, 3387, 3390, 3393, 3394, 3396, 3397, 3399, 3400,
                  3402, 3403, 3405, 3406, 3408, 3409, 3411, 3415, 3416, 3418,
                  3419, 3421, 3422, 3424, 3425, 3429, 3431, 3432, 3434, 3435,
                  3437, 3438, 3440, 3441, 3443, 3444, 3446-3449, 3455, 3456,
                  3458, 3459, 3461, 3462, 3466-3468, 3470, 3472, 3473, 3475,
                  3476, 3478, 3479, 3481, 3482, 3484, 3485, 3487, 3488, 3490,
                  3494, 3495, 3497, 3498, 3500, 3501, 3503, 3504, 3507, 3510,
                  3511, 3513, 3514, 3516, 3517, 3519, 3520, 3523, 3524, 3526,
                  3530, 3531, 3533, 3534, 3536, 3537, 3539, 3540, 3543-3545,
                  3549, 3550, 3552, 3553, 3555, 3556, 3558, 3559, 3561, 3562,
                  3564, 3565, 3567, 3570, 3571, 3573, 3574, 3576, 3577, 3579,
                  3580, 3583, 3586, 3587, 3589, 3590, 3592, 3593, 3595, 3596,
                  3598, 3599, 3601, 3602, 3605, 3608, 3609, 3611, 3612, 3614,
                  3615, 3617, 3618, 3622, 3624, 3625, 3627, 3628, 3630, 3631,
                  3633, 3634, 3636, 3637, 3639, 3640, 3642, 3646, 3647, 3649,
                  3650, 3652, 3653, 3655, 3656, 3659, 3662, 3663, 3665, 3666,
                  3668, 3669, 3671, 3672, 3674, 3675, 3677, 3678, 3680, 3684,
                  3685, 3687, 3688, 3690, 3691, 3693, 3694, 3698, 3700, 3701,
                  3703, 3704, 3706, 3707, 3709, 3710, 3712, 3713, 3715, 3716,
                  3718, 3722, 3723, 3725, 3726, 3728, 3729, 3731, 3732, 3735,
                  3738, 3739, 3741, 3742, 3744, 3745, 3747, 3748, 3750, 3751,
                  3753, 3754, 3756, 3760, 3761, 3763, 3764, 3766, 3767, 3769,
                  3770, 3774, 3776, 3777, 3779, 3780, 3782, 3783, 3785, 3786,
                  3788, 3789, 3791-3794
    3    7 N      13, 36, 55, 72, 91, 113, 131, 150, 169, 188, 207, 226, 245,
                  264, 283, 302, 321, 340, 358, 381, 400, 417, 436, 458, 476,
                  495, 514, 533, 552, 571, 590, 609, 628, 647, 666, 685, 703,
                  726, 745, 762, 781, 803, 821, 840, 859, 878, 897, 916, 935,
                  954, 973, 992, 1011, 1030, 1048, 1071, 1090, 1107, 1126,
                  1148, 1166, 1185, 1204, 1223, 1242, 1261, 1280, 1299, 1318,
                  1337, 1356, 1375, 1393, 1416, 1435, 1452, 1471, 1493, 1511,
                  1530, 1549, 1568, 1587, 1606, 1625, 1644, 1663, 1682, 1701,
                  1720, 1738, 1761, 1780, 1797, 1816, 1838, 1856, 1875, 1894,
                  1913, 1932, 1951, 1970, 1989, 2008, 2027, 2046, 2065, 2083,
                  2106, 2125, 2142, 2161, 2183, 2201, 2220, 2239, 2258, 2277,
                  2296, 2315, 2334, 2353, 2372, 2391, 2410, 2428, 2451, 2470,
                  2487, 2506, 2528, 2546, 2565, 2584, 2603, 2622, 2641, 2660,
                  2679, 2698, 2717, 2736, 2755, 2773, 2796, 2815, 2832, 2851,
                  2873, 2891, 2910, 2929, 2948, 2967, 2986, 3005, 3024, 3043,
                  3062, 3081, 3100, 3118, 3141, 3160, 3177, 3196, 3218, 3236,
                  3255, 3274, 3293, 3312, 3331, 3350, 3369, 3388, 3407, 3426,
                  3445, 3463, 3486, 3505, 3522, 3541, 3563, 3581, 3600, 3619,
                  3638, 3657, 3676, 3695, 3714, 3733, 3752, 3771, 3790
    4    8 O      14, 15, 41, 58, 77, 96, 97, 134, 153, 170, 193, 210, 231,
                  246, 269, 286, 307, 322, 345, 359, 360, 386, 403, 422, 441,
                  442, 479, 498, 515, 538, 555, 576, 591, 614, 631, 652, 667,
                  690, 704, 705, 731, 748, 767, 786, 787, 824, 843, 860, 883,
                  900, 921, 936, 959, 976, 997, 1012, 1035, 1049, 1050, 1076,
                  1093, 1112, 1131, 1132, 1169, 1188, 1205, 1228, 1245, 1266,
                  1281, 1304, 1321, 1342, 1357, 1380, 1394, 1395, 1421, 1438,
                  1457, 1476, 1477, 1514, 1533, 1550, 1573, 1590, 1611, 1626,
                  1649, 1666, 1687, 1702, 1725, 1739, 1740, 1766, 1783, 1802,
                  1821, 1822, 1859, 1878, 1895, 1918, 1935, 1956, 1971, 1994,
                  2011, 2032, 2047, 2070, 2084, 2085, 2111, 2128, 2147, 2166,
                  2167, 2204, 2223, 2240, 2263, 2280, 2301, 2316, 2339, 2356,
                  2377, 2392, 2415, 2429, 2430, 2456, 2473, 2492, 2511, 2512,
                  2549, 2568, 2585, 2608, 2625, 2646, 2661, 2684, 2701, 2722,
                  2737, 2760, 2774, 2775, 2801, 2818, 2837, 2856, 2857, 2894,
                  2913, 2930, 2953, 2970, 2991, 3006, 3029, 3046, 3067, 3082,
                  3105, 3119, 3120, 3146, 3163, 3182, 3201, 3202, 3239, 3258,
                  3275, 3298, 3315, 3336, 3351, 3374, 3391, 3412, 3427, 3450,
                  3464, 3465, 3491, 3508, 3527, 3546, 3547, 3584, 3603, 3620,
                  3643, 3660, 3681, 3696, 3719, 3736, 3757, 3772, 3795

molecular fragmentation (1/2 indicates fragments):
111111111111111111111111111111111111111111111111111111111111111111111111
111111111111111111111111111111111111111111111111111111111111111111111111
111111111111111111111111111111111111111111111111111111111111111111111111
111111111111111111111111111111111111111111111111111111111111111111111111
111111111111111111111111111111111111111111111111111111111222222222222222
222222222222222222222222222222222222222222222222222222222222222222222222
222222222222222222222222222222222222222222222222222222222222222222222222
222222222222222222222222222222222222222222222222222222222222222222222222
222222222222222222222222222222222222222222222222222222222222222222222222
222222222222222222222222222222222222222222222222222222222222222222222222
222222222222222222222222222222222222222222222222222222222222222222222222
222222222222222222222222222222222222222222222222222222222222222222222222
222222222222222222222222222222222222222222222222222222222222222222222222
222222222222222222222222222222222222222222222222222222222222222222222222
222222222222222222222222222222222222222222222222222222222222222222222222
222222222222222222222222222222222222222222222222222222222222222222222222
222222222222222222222222222222222222222222222222222222222222222222222222
222222222222222222222222222222222222222222222222222222222222222222222222
222222222222222222222222222222222222222222222222222222222222222222222222
222222222222222222222222222222222222222222222222222222222222222222222222
222222222222222222222222222222222222222222222222222222222222222222222222
222222222222222222222222222222222222222222222222222222222222222222222222
222222222222222222222222222222222222222222222222222222222222222222222222
222222222222222222222222222222222222222222222222222222222222222222222222
222222222222222222222222222222222222222222222222222222222222222222222222
222222222222222222222222222222222222222222222222222222222222222222222222
222222222222222222222222222222222222222222222222222222222222222222222222
222222222222222222222222222222222222222222222222222222222222222222222222
222222222222222222222222222222222222222222222222222222222222222222222222
222222222222222222222222222222222222222222222222222222222222222222222222
222222222222222222222222222222222222222222222222222222222222222222222222
222222222222222222222222222222222222222222222222222222222222222222222222
222222222222222222222222222222222222222222222222222222222222222222222222
222222222222222222222222222222222222222222222222222222222222222222222222
222222222222222222222222222222222222222222222222222222222222222222222222
222222222222222222222222222222222222222222222222222222222222222222222222
222222222222222222222222222222222222222222222222222222222222222222222222
222222222222222222222222222222222222222222222222222222222222222222222222
222222222222222222222222222222222222222222222222222222222222222222222222
222222222222222222222222222222222222222222222222222222222222222222222222
222222222222222222222222222222222222222222222222222222222222222222222222
222222222222222222222222222222222222222222222222222222222222222222222222
222222222222222222222222222222222222222222222222222222222222222222222222
222222222222222222222222222222222222222222222222222222222222222222222222
222222222222222222222222222222222222222222222222222222222222222222222222
222222222222222222222222222222222222222222222222222222222222222222222222
222222222222222222222222222222222222222222222222222222222222222222222222
222222222222222222222222222222222222222222222222222222222222222222222222
222222222222222222222222222222222222222222222222222222222222222222222222
222222222222222222222222222222222222222222222222222222222222222222222222
222222222222222222222222222222222222222222222222222222222222222222222222
222222222222222222222222222222222222222222222222222222222222222222222222
222222222222222222222222222222222222222222222222222
# atoms in fragment 1/2:   345  3450
 fragment masses (1/2) :     2054.86    20548.57
CMA distance (Bohr)    :  13.033
constraining FC (au)   :  0.0500

           -------------------------------------------------
          |                 G F N 2 - x T B                 |
           -------------------------------------------------

        Reference                      10.1021/acs.jctc.8b01176
      * Hamiltonian:
        H0-scaling (s, p, d)           1.850000    2.230000    2.230000
        zeta-weighting                 0.500000
      * Dispersion:
        s8                             2.700000
        a1                             0.520000
        a2                             5.000000
        s9                             5.000000
      * Repulsion:
        kExp                           1.500000    1.000000
        rExp                           1.000000
      * Coulomb:
        alpha                          2.000000
        third order                    shell-resolved
        anisotropic                    true
        a3                             3.000000
        a5                             4.000000
        cn-shift                       1.200000
        cn-exp                         4.000000
        max-rad                        5.000000

      * Solvation model:               GBSA
        Solvent                        water
        Parameter file                 internal GFN2-xTB/GBSA
        Dielectric constant                8.0200E+01
        Reference state                gsolv [1 M gas/solution]
        Free energy shift                  1.8574E-03 Eh       1.1656E+00 kcal/mol
        Temperature                        2.9815E+02 K
        Density                            1.0000E+00 kg/L
        Solvent mass                       1.8000E+01 g/mol
        Interaction kernel             Still
        Born radius scaling (c1)           1.5524E+00
        Born radii integrator          GBOBC
        Born offset                        2.4628E-02 a0       4.6540E-02 AA
        H-bond correction              true
        Ion screening                  false
        Surface tension                    1.0000E-05 Eh       1.5569E+01 dyn/cm
        Grid points                               230 per atom
q/qsh data taken from xtbrestart
CAMM data taken from xtbrestart

          ...................................................
          :                      SETUP                      :
          :.................................................:
          :  # basis functions                8580          :
          :  # atomic orbitals                8580          :
          :  # shells                         5390          :
          :  # electrons                      9196          :
          :  max. iterations                   250          :
          :  Hamiltonian                  GFN2-xTB          :
          :  restarted?                       true          :
          :  GBSA solvation                   true          :
          :  PC potential                    false          :
          :  electronic temp.          300.0000000     K    :
          :  accuracy                    1.0000000          :
          :  -> integral cutoff          0.2500000E+02      :
          :  -> integral neglect         0.1000000E-07      :
          :  -> SCF convergence          0.1000000E-05 Eh   :
          :  -> wf. convergence          0.1000000E-03 e    :
          :  Broyden damping             0.4000000          :
          ...................................................

 iter      E             dE          RMSdq      gap      omega  full diag
   1  -5163.0416247 -0.516304E+04  0.408E-05    2.51       0.0  T
   2  -5163.0416247 -0.117325E-08  0.309E-05    2.51      52.5  T
   3  -5163.0416247 -0.997716E-09  0.206E-05    2.51      78.7  T

   *** convergence criteria satisfied after 3 iterations ***

         #    Occupation            Energy/Eh            Energy/eV
      -------------------------------------------------------------
         1        2.0000           -0.7449940             -20.2723
       ...           ...                  ...                  ...
      4592        2.0000           -0.3609522              -9.8220
      4593        2.0000           -0.3607907              -9.8176
      4594        2.0000           -0.3598238              -9.7913
      4595        2.0000           -0.3591092              -9.7719
      4596        2.0000           -0.3588285              -9.7642
      4597        2.0000           -0.3563926              -9.6979
      4598        2.0000           -0.3549613              -9.6590 (HOMO)
      4599                         -0.2627674              -7.1503 (LUMO)
      4600                         -0.2528596              -6.8807
      4601                         -0.2527167              -6.8768
      4602                         -0.2501754              -6.8076
      4603                         -0.2498297              -6.7982
       ...                                ...                  ...
      8580                          0.6957227              18.9316
      -------------------------------------------------------------
                  HL-Gap            0.0921938 Eh            2.5087 eV
             Fermi-level           -0.3088643 Eh           -8.4046 eV

 SCC (total)                   0 d,  0 h, 13 min, 31.217 sec
 SCC setup                      ...        0 min,  2.378 sec (  0.293%)
 Dispersion                     ...        0 min,  5.125 sec (  0.632%)
 classical contributions        ...        0 min,  0.184 sec (  0.023%)
 integral evaluation            ...        0 min, 10.144 sec (  1.250%)
 iterations                     ...        7 min, 38.098 sec ( 56.470%)
 molecular gradient             ...        5 min, 15.474 sec ( 38.889%)
 printout                       ...        0 min, 19.815 sec (  2.443%)

         :::::::::::::::::::::::::::::::::::::::::::::::::::::
         ::                     SUMMARY                     ::
         :::::::::::::::::::::::::::::::::::::::::::::::::::::
         :: total energy           -5102.537244853506 Eh    ::
         :: total w/o Gsasa/hb     -5102.370789945010 Eh    ::
         :: gradient norm              0.821902462048 Eh/a0 ::
         :: HOMO-LUMO gap              2.508722208899 eV    ::
         ::.................................................::
         :: SCC energy             -5163.041624716016 Eh    ::
         :: -> isotropic ES            9.164866463740 Eh    ::
         :: -> anisotropic ES          0.106835549384 Eh    ::
         :: -> anisotropic XC          2.005182512198 Eh    ::
         :: -> dispersion             -5.397634383747 Eh    ::
         :: -> Gsolv                  -0.743914304940 Eh    ::
         ::    -> Gelec               -0.577459396444 Eh    ::
         ::    -> Gsasa               -0.098726291189 Eh    ::
         ::    -> Ghb                 -0.069586060435 Eh    ::
         ::    -> Gshift               0.001857443127 Eh    ::
         :: repulsion energy          59.573646349460 Eh    ::
         :: add. restraining           0.000000000000 Eh    ::
         :: total charge              -0.000000000019 e     ::
         :::::::::::::::::::::::::::::::::::::::::::::::::::::

      ----------------------------------------------------------- 
     |              Fast Inertial Relaxation Engine              |
      ----------------------------------------------------------- 

          ...................................................
          :                      SETUP                      :
          :.................................................:
          :   energy convergence        0.5000000E-05 Eh    :
          :   grad. convergence         0.1000000E-02 Eh/a0 :
          :   optimization log               true           :
          :   writing optlog all                1     steps :
          :   Hessian reset                    20     steps :
          :   time step scaling                 5     steps :
          :   maximium step len.        1.0000000     a0    :
          :   initial time step         0.2500000     fs    :
          :   maximum time step         1.2500000     fs    :
          :   power reset thr           0.0000000     au    :
          :   alpha parameter           0.1000000           :
          :   BFGS update                   false           :
          :   preconditioning               false           :
          ...................................................

........................................................................
.............................. CYCLE    1 ..............................
........................................................................

 iter      E             dE          RMSdq      gap      omega  full diag
   1  -5163.2543548 -0.516325E+04  0.115E-02    2.55       0.0  T
   2  -5163.2545209 -0.166085E-03  0.604E-03    2.54       1.0  T
   3  -5163.2545297 -0.877759E-05  0.325E-03    2.55       1.0  T
   4  -5163.2545309 -0.125697E-05  0.822E-04    2.54       2.0  T
   5  -5163.2545318 -0.843849E-06  0.316E-04    2.54       5.1  T
   6  -5163.2545319 -0.848304E-07  0.155E-04    2.54      10.5  T
     SCC iter.                  ...       15 min,  7.936 sec
     gradient                   ...        5 min, 10.774 sec
 * total energy  : -5102.6135406 Eh     change    :  -0.7629575E-01 Eh
   gradient norm :     0.7670176 Eh/a0  converged?    E=F G=F D=F
   time step     :     0.2500000 fs     power     :   0.3907020E-05
   step length   :     0.0963252 a0     speed     :   0.9319982E-02

........................................................................
.............................. CYCLE    2 ..............................
........................................................................

 iter      E             dE          RMSdq      gap      omega  full diag
   1  -5163.5657432 -0.516357E+04  0.166E-02    2.60       0.0  T
   2  -5163.5660842 -0.340980E-03  0.879E-03    2.60       1.0  T
   3  -5163.5661022 -0.180477E-04  0.472E-03    2.60       1.0  T
   4  -5163.5661051 -0.289365E-05  0.119E-03    2.60       1.4  T
   5  -5163.5661069 -0.176443E-05  0.472E-04    2.60       3.4  T
   6  -5163.5661071 -0.191573E-06  0.238E-04    2.60       6.8  T
   7  -5163.5661072 -0.569516E-07  0.140E-04    2.60      11.6  T
     SCC iter.                  ...       17 min, 46.629 sec
     gradient                   ...        5 min, 14.281 sec
 * total energy  : -5102.7159621 Eh     change    :  -0.1024215E+00 Eh
   gradient norm :     0.6885156 Eh/a0  converged?    E=F G=F D=F
   time step     :     0.2500000 fs     power     :   0.5133252E-05
   step length   :     0.1411473 a0     speed     :   0.1365676E-01

........................................................................
.............................. CYCLE    3 ..............................
........................................................................

 iter      E             dE          RMSdq      gap      omega  full diag
   1  -5163.9651120 -0.516397E+04  0.209E-02    2.67       0.0  T
   2  -5163.9656302 -0.518225E-03  0.112E-02    2.66       1.0  T
   3  -5163.9656573 -0.271562E-04  0.594E-03    2.67       1.0  T
   4  -5163.9656623 -0.494448E-05  0.148E-03    2.66       1.1  T
   5  -5163.9656650 -0.270384E-05  0.581E-04    2.66       2.8  T
   6  -5163.9656653 -0.282392E-06  0.293E-04    2.66       5.5  T
   7  -5163.9656654 -0.838536E-07  0.170E-04    2.66       9.5  T
     SCC iter.                  ...       17 min, 41.954 sec
     gradient                   ...        5 min, 12.131 sec
 * total energy  : -5102.8313132 Eh     change    :  -0.1153510E+00 Eh
   gradient norm :     0.5929083 Eh/a0  converged?    E=F G=F D=F
   time step     :     0.2500000 fs     power     :   0.5632970E-05
   step length   :     0.1813088 a0     speed     :   0.1754260E-01

........................................................................
.............................. CYCLE    4 ..............................
........................................................................

 iter      E             dE          RMSdq      gap      omega  full diag
   1  -5164.4393729 -0.516444E+04  0.242E-02    2.74       0.0  T
   2  -5164.4400223 -0.649313E-03  0.130E-02    2.74       1.0  T
   3  -5164.4400558 -0.335480E-04  0.686E-03    2.74       1.0  T
   4  -5164.4400634 -0.756507E-05  0.169E-03    2.74       1.0  T
   5  -5164.4400669 -0.348839E-05  0.666E-04    2.74       2.4  T
   6  -5164.4400672 -0.358923E-06  0.338E-04    2.74       4.8  T
   7  -5164.4400673 -0.111795E-06  0.193E-04    2.74       8.4  T
     SCC iter.                  ...       17 min, 41.481 sec
     gradient                   ...        5 min, 10.416 sec
 * total energy  : -5102.9456150 Eh     change    :  -0.1143018E+00 Eh
   gradient norm :     0.4891087 Eh/a0  converged?    E=F G=F D=F
   time step     :     0.2500000 fs     power     :   0.5396976E-05
   step length   :     0.2155418 a0     speed     :   0.2085483E-01

........................................................................
.............................. CYCLE    5 ..............................
........................................................................

 iter      E             dE          RMSdq      gap      omega  full diag
   1  -5164.9732643 -0.516497E+04  0.263E-02    2.83       0.0  T
   2  -5164.9739627 -0.698345E-03  0.144E-02    2.82       1.0  T
   3  -5164.9739977 -0.350445E-04  0.740E-03    2.83       1.0  T
   4  -5164.9740084 -0.106852E-04  0.180E-03    2.82       1.0  T
   5  -5164.9740123 -0.390890E-05  0.713E-04    2.83       2.3  T
   6  -5164.9740127 -0.390825E-06  0.364E-04    2.82       4.5  T
   7  -5164.9740128 -0.128451E-06  0.204E-04    2.82       8.0  T
     SCC iter.                  ...       17 min, 39.648 sec
     gradient                   ...        5 min, 11.596 sec
 * total energy  : -5103.0464948 Eh     change    :  -0.1008798E+00 Eh
   gradient norm :     0.3898652 Eh/a0  converged?    E=F G=F D=F
   time step     :     0.2500000 fs     power     :   0.4543573E-05
   step length   :     0.2427825 a0     speed     :   0.2349052E-01

........................................................................
.............................. CYCLE    6 ..............................
........................................................................

 iter      E             dE          RMSdq      gap      omega  full diag
   1  -5165.6107485 -0.516561E+04  0.300E-02    2.92       0.0  T
   2  -5165.6115504 -0.801883E-03  0.167E-02    2.91       1.0  T
   3  -5165.6115881 -0.376772E-04  0.829E-03    2.92       1.0  T
   4  -5165.6116055 -0.174071E-04  0.199E-03    2.91       1.0  T
   5  -5165.6116102 -0.468471E-05  0.796E-04    2.92       2.0  T
   6  -5165.6116106 -0.445581E-06  0.402E-04    2.91       4.0  T
   7  -5165.6116108 -0.153187E-06  0.221E-04    2.91       7.3  T
     SCC iter.                  ...       17 min, 48.191 sec
     gradient                   ...        5 min, 13.323 sec
 * total energy  : -5103.1321883 Eh     change    :  -0.8569351E-01 Eh
   gradient norm :     0.3071385 Eh/a0  converged?    E=F G=F D=F
   time step     :     0.2750000 fs     power     :   0.3151904E-05
   step length   :     0.2904346 a0     speed     :   0.2554647E-01

........................................................................
.............................. CYCLE    7 ..............................
........................................................................

 iter      E             dE          RMSdq      gap      omega  full diag
   1  -5166.3345894 -0.516633E+04  0.325E-02    2.99       0.0  T
   2  -5166.3354100 -0.820613E-03  0.183E-02    2.98       1.0  T
   3  -5166.3354443 -0.343465E-04  0.872E-03    2.99       1.0  T
   4  -5166.3354694 -0.250158E-04  0.206E-03    2.98       1.0  T
   5  -5166.3354742 -0.485454E-05  0.840E-04    2.98       1.9  T
   6  -5166.3354746 -0.435703E-06  0.407E-04    2.98       4.0  T
   7  -5166.3354748 -0.151296E-06  0.220E-04    2.98       7.4  T
     SCC iter.                  ...       17 min, 38.111 sec
     gradient                   ...        5 min, 14.419 sec
 * total energy  : -5103.1909416 Eh     change    :  -0.5875329E-01 Eh
   gradient norm :     0.2763195 Eh/a0  converged?    E=F G=F D=F
   time step     :     0.3025000 fs     power     :   0.1525787E-05
   step length   :     0.3326575 a0     speed     :   0.2660033E-01

........................................................................
.............................. CYCLE    8 ..............................
........................................................................

 iter      E             dE          RMSdq      gap      omega  full diag
   1  -5167.0933497 -0.516709E+04  0.334E-02    3.04       0.0  T
   2  -5167.0941712 -0.821598E-03  0.190E-02    3.04       1.0  T
   3  -5167.0942048 -0.335125E-04  0.887E-03    3.05       1.0  T
   4  -5167.0942306 -0.258209E-04  0.199E-03    3.04       1.0  T
   5  -5167.0942351 -0.449941E-05  0.851E-04    3.04       1.9  T
   6  -5167.0942355 -0.374400E-06  0.392E-04    3.04       4.1  T
   7  -5167.0942356 -0.122380E-06  0.197E-04    3.04       8.3  T
     SCC iter.                  ...       17 min, 40.910 sec
     gradient                   ...        5 min, 11.018 sec
 * total energy  : -5103.2195780 Eh     change    :  -0.2863640E-01 Eh
   gradient norm :     0.3041561 Eh/a0  converged?    E=F G=F D=F
   time step     :     0.3327500 fs     power     :   0.1895304E-06
   step length   :     0.3594851 a0     speed     :   0.2613231E-01

........................................................................
.............................. CYCLE    9 ..............................
........................................................................

 iter      E             dE          RMSdq      gap      omega  full diag
   1  -5167.8147807 -0.516781E+04  0.333E-02    3.07       0.0  T
   2  -5167.8156430 -0.862319E-03  0.189E-02    3.07       1.0  T
   3  -5167.8156818 -0.388073E-04  0.904E-03    3.08       1.0  T
   4  -5167.8157007 -0.188563E-04  0.182E-03    3.07       1.0  T
   5  -5167.8157047 -0.400997E-05  0.834E-04    3.07       1.9  T
   6  -5167.8157050 -0.297751E-06  0.331E-04    3.07       4.9  T
   7  -5167.8157050 -0.679829E-07  0.155E-04    3.07      10.5  T
     SCC iter.                  ...       17 min, 41.529 sec
     gradient                   ...        5 min, 13.098 sec
 * total energy  : -5103.2270952 Eh     change    :  -0.7517269E-02 Eh
   gradient norm :     0.3488203 Eh/a0  converged?    E=F G=F D=F
   time step     :     0.3660250 fs     power     :  -0.4745448E-06
   step length   :     0.3684234 a0     speed     :   0.2434734E-01

........................................................................
.............................. CYCLE   10 ..............................
........................................................................
 * reset velocities

 iter      E             dE          RMSdq      gap      omega  full diag
   1  -5167.8059572 -0.516781E+04  0.136E-03    3.07       0.0  T
   2  -5167.8059591 -0.188816E-05  0.747E-04    3.07       2.2  T
   3  -5167.8059591 -0.725222E-07  0.387E-04    3.07       4.2  T
   4  -5167.8059591 -0.186465E-07  0.864E-05    3.07      18.8  T
     SCC iter.                  ...       10 min,  7.912 sec
     gradient                   ...        5 min,  8.869 sec
 * total energy  : -5103.2308755 Eh     change    :  -0.3780290E-02 Eh
   gradient norm :     0.3414111 Eh/a0  converged?    E=F G=F D=F
   time step     :     0.1830125 fs     power     :   0.2711496E-06
   step length   :     0.0109540 a0     speed     :   0.1447796E-02

........................................................................
.............................. CYCLE   11 ..............................
........................................................................

 iter      E             dE          RMSdq      gap      omega  full diag
   1  -5167.7867259 -0.516779E+04  0.269E-03    3.06       0.0  T
   2  -5167.7867333 -0.737732E-05  0.147E-03    3.06       1.1  T
   3  -5167.7867336 -0.298274E-06  0.769E-04    3.06       2.1  T
   4  -5167.7867337 -0.799455E-07  0.173E-04    3.06       9.4  T
     SCC iter.                  ...       10 min,  6.392 sec
     gradient                   ...        5 min, 15.045 sec
 * total energy  : -5103.2381178 Eh     change    :  -0.7242255E-02 Eh
   gradient norm :     0.3269004 Eh/a0  converged?    E=F G=F D=F
   time step     :     0.1830125 fs     power     :   0.5136307E-06
   step length   :     0.0216751 a0     speed     :   0.2864813E-02

........................................................................
.............................. CYCLE   12 ..............................
........................................................................

 iter      E             dE          RMSdq      gap      omega  full diag
   1  -5167.7585617 -0.516776E+04  0.395E-03    3.05       0.0  T
   2  -5167.7585773 -0.156667E-04  0.217E-03    3.05       1.0  T
   3  -5167.7585780 -0.639594E-06  0.113E-03    3.05       1.4  T
   4  -5167.7585782 -0.186155E-06  0.256E-04    3.05       6.3  T
   5  -5167.7585782 -0.943146E-07  0.931E-05    3.05      17.4  T
     SCC iter.                  ...       12 min, 39.321 sec
     gradient                   ...        5 min,  7.827 sec
 * total energy  : -5103.2482182 Eh     change    :  -0.1010043E-01 Eh
   gradient norm :     0.3058406 Eh/a0  converged?    E=F G=F D=F
   time step     :     0.1830125 fs     power     :   0.7076437E-06
   step length   :     0.0319390 a0     speed     :   0.4221397E-02

........................................................................
.............................. CYCLE   13 ..............................
........................................................................

 iter      E             dE          RMSdq      gap      omega  full diag
   1  -5167.7223357 -0.516772E+04  0.510E-03    3.04       0.0  T
   2  -5167.7223614 -0.256482E-04  0.281E-03    3.04       1.0  T
   3  -5167.7223624 -0.102650E-05  0.145E-03    3.04       1.1  T
   4  -5167.7223627 -0.314477E-06  0.328E-04    3.04       4.9  T
   5  -5167.7223629 -0.155756E-06  0.120E-04    3.04      13.5  T
     SCC iter.                  ...       12 min, 38.554 sec
     gradient                   ...        5 min, 10.670 sec
 * total energy  : -5103.2603479 Eh     change    :  -0.1212968E-01 Eh
   gradient norm :     0.2790303 Eh/a0  converged?    E=F G=F D=F
   time step     :     0.1830125 fs     power     :   0.8381914E-06
   step length   :     0.0415357 a0     speed     :   0.5489789E-02

........................................................................
.............................. CYCLE   14 ..............................
........................................................................

 iter      E             dE          RMSdq      gap      omega  full diag
   1  -5167.6792845 -0.516768E+04  0.612E-03    3.02       0.0  T
   2  -5167.6793203 -0.357943E-04  0.339E-03    3.02       1.0  T
   3  -5167.6793217 -0.141559E-05  0.174E-03    3.02       1.0  T
   4  -5167.6793222 -0.476920E-06  0.390E-04    3.02       4.2  T
   5  -5167.6793224 -0.223694E-06  0.144E-04    3.02      11.2  T
     SCC iter.                  ...       12 min, 38.937 sec
     gradient                   ...        5 min,  8.279 sec
 * total energy  : -5103.2735371 Eh     change    :  -0.1318921E-01 Eh
   gradient norm :     0.2476521 Eh/a0  converged?    E=F G=F D=F
   time step     :     0.1830125 fs     power     :   0.8968114E-06
   step length   :     0.0502737 a0     speed     :   0.6644697E-02

........................................................................
.............................. CYCLE   15 ..............................
........................................................................

 iter      E             dE          RMSdq      gap      omega  full diag
   1  -5167.6310789 -0.516763E+04  0.698E-03    3.00       0.0  T
   2  -5167.6311234 -0.445663E-04  0.388E-03    3.01       1.0  T
   3  -5167.6311252 -0.173017E-05  0.197E-03    3.01       1.0  T
   4  -5167.6311258 -0.663487E-06  0.438E-04    3.01       3.7  T
   5  -5167.6311261 -0.287713E-06  0.165E-04    3.01       9.9  T
     SCC iter.                  ...       12 min, 40.951 sec
     gradient                   ...        5 min,  9.007 sec
 * total energy  : -5103.2867755 Eh     change    :  -0.1323841E-01 Eh
   gradient norm :     0.2133138 Eh/a0  converged?    E=F G=F D=F
   time step     :     0.1830125 fs     power     :   0.8825170E-06
   step length   :     0.0579853 a0     speed     :   0.7663938E-02

........................................................................
.............................. CYCLE   16 ..............................
........................................................................

 iter      E             dE          RMSdq      gap      omega  full diag
   1  -5167.5743384 -0.516757E+04  0.849E-03    2.98       0.0  T
   2  -5167.5744004 -0.620465E-04  0.476E-03    2.99       1.0  T
   3  -5167.5744027 -0.232955E-05  0.237E-03    2.99       1.0  T
   4  -5167.5744038 -0.107173E-05  0.521E-04    2.99       3.1  T
   5  -5167.5744042 -0.416719E-06  0.197E-04    2.99       8.2  T
   6  -5167.5744043 -0.299779E-07  0.115E-04    2.99      14.1  T
     SCC iter.                  ...       15 min, 10.650 sec
     gradient                   ...        5 min, 11.855 sec
 * total energy  : -5103.3003408 Eh     change    :  -0.1356532E-01 Eh
   gradient norm :     0.1746527 Eh/a0  converged?    E=F G=F D=F
   time step     :     0.2013138 fs     power     :   0.7902511E-06
   step length   :     0.0717044 a0     speed     :   0.8615635E-02

........................................................................
.............................. CYCLE   17 ..............................
........................................................................

 iter      E             dE          RMSdq      gap      omega  full diag
   1  -5167.5117440 -0.516751E+04  0.998E-03    2.96       0.0  T
   2  -5167.5118223 -0.782895E-04  0.565E-03    2.97       1.0  T
   3  -5167.5118251 -0.274295E-05  0.273E-03    2.96       1.0  T
   4  -5167.5118267 -0.166431E-05  0.589E-04    2.97       2.8  T
   5  -5167.5118273 -0.549778E-06  0.221E-04    2.97       7.4  T
   6  -5167.5118273 -0.366217E-07  0.126E-04    2.97      12.9  T
     SCC iter.                  ...       15 min, 10.700 sec
     gradient                   ...        5 min, 18.807 sec
 * total energy  : -5103.3128214 Eh     change    :  -0.1248051E-01 Eh
   gradient norm :     0.1366752 Eh/a0  converged?    E=F G=F D=F
   time step     :     0.2214451 fs     power     :   0.6178441E-06
   step length   :     0.0863504 a0     speed     :   0.9432211E-02

........................................................................
.............................. CYCLE   18 ..............................
........................................................................

 iter      E             dE          RMSdq      gap      omega  full diag
   1  -5167.4502949 -0.516745E+04  0.112E-02    2.94       0.0  T
   2  -5167.4503812 -0.863265E-04  0.646E-03    2.94       1.0  T
   3  -5167.4503838 -0.263328E-05  0.298E-03    2.94       1.0  T
   4  -5167.4503864 -0.253499E-05  0.627E-04    2.94       2.6  T
   5  -5167.4503870 -0.643613E-06  0.242E-04    2.94       6.7  T
   6  -5167.4503871 -0.431155E-07  0.135E-04    2.94      12.0  T
     SCC iter.                  ...       15 min, 14.116 sec
     gradient                   ...        5 min, 15.728 sec
 * total energy  : -5103.3226577 Eh     change    :  -0.9836368E-02 Eh
   gradient norm :     0.1119344 Eh/a0  converged?    E=F G=F D=F
   time step     :     0.2435896 fs     power     :   0.3883496E-06
   step length   :     0.1007885 a0     speed     :   0.1000846E-01

........................................................................
.............................. CYCLE   19 ..............................
........................................................................

 iter      E             dE          RMSdq      gap      omega  full diag
   1  -5167.4039490 -0.516740E+04  0.119E-02    2.92       0.0  T
   2  -5167.4040263 -0.773557E-04  0.695E-03    2.92       1.0  T
   3  -5167.4040279 -0.156880E-05  0.296E-03    2.92       1.0  T
   4  -5167.4040315 -0.359973E-05  0.599E-04    2.92       2.7  T
   5  -5167.4040321 -0.605002E-06  0.243E-04    2.92       6.7  T
   6  -5167.4040322 -0.425380E-07  0.132E-04    2.92      12.3  T
     SCC iter.                  ...       15 min,  8.872 sec
     gradient                   ...        5 min, 15.937 sec
 * total energy  : -5103.3288997 Eh     change    :  -0.6241988E-02 Eh
   gradient norm :     0.1155397 Eh/a0  converged?    E=F G=F D=F
   time step     :     0.2679486 fs     power     :   0.1660380E-06
   step length   :     0.1125653 a0     speed     :   0.1016174E-01

........................................................................
.............................. CYCLE   20 ..............................
........................................................................

 iter      E             dE          RMSdq      gap      omega  full diag
   1  -5167.3897554 -0.516739E+04  0.117E-02    2.90       0.0  T
   2  -5167.3898107 -0.553532E-04  0.694E-03    2.91       1.0  T
   3  -5167.3898108 -0.254931E-07  0.263E-03    2.90       1.0  T
   4  -5167.3898151 -0.429190E-05  0.499E-04    2.91       3.3  T
   5  -5167.3898155 -0.422226E-06  0.221E-04    2.91       7.3  T
   6  -5167.3898155 -0.329574E-07  0.116E-04    2.91      14.0  T
     SCC iter.                  ...       15 min, 10.466 sec
     gradient                   ...        5 min, 20.374 sec
 * total energy  : -5103.3321975 Eh     change    :  -0.3297783E-02 Eh
   gradient norm :     0.1397049 Eh/a0  converged?    E=F G=F D=F
   time step     :     0.2947435 fs     power     :   0.3591558E-07
   step length   :     0.1192106 a0     speed     :   0.9783310E-02
 * RMSD in coord.:     0.0330154 a0     energy gain  -0.7949526E+00 Eh

........................................................................
.............................. CYCLE   21 ..............................
........................................................................

 iter      E             dE          RMSdq      gap      omega  full diag
   1  -5167.4106155 -0.516741E+04  0.842E-03    2.90       0.0  T
   2  -5167.4106379 -0.224623E-04  0.505E-03    2.90       1.0  T
   3  -5167.4106376  0.334948E-06  0.172E-03    2.90       1.0  T
   4  -5167.4106399 -0.225867E-05  0.302E-04    2.90       5.4  T
   5  -5167.4106400 -0.153476E-06  0.147E-04    2.90      11.0  T
   6  -5167.4106400 -0.136361E-07  0.705E-05    2.90      23.0  T
     SCC iter.                  ...       15 min,  7.817 sec
     gradient                   ...        5 min, 12.420 sec
 * total energy  : -5103.3342813 Eh     change    :  -0.2083788E-02 Eh
   gradient norm :     0.1584573 Eh/a0  converged?    E=F G=F D=F
   time step     :     0.2500000 fs     power     :   0.5317319E-07
   step length   :     0.0936792 a0     speed     :   0.9063965E-02

........................................................................
.............................. CYCLE   22 ..............................
........................................................................

 iter      E             dE          RMSdq      gap      omega  full diag
   1  -5167.4621194 -0.516746E+04  0.728E-03    2.90       0.0  T
   2  -5167.4621364 -0.169887E-04  0.434E-03    2.90       1.0  T
   3  -5167.4621365 -0.251030E-07  0.148E-03    2.90       1.1  T
   4  -5167.4621376 -0.119895E-05  0.232E-04    2.90       7.0  T
   5  -5167.4621377 -0.972877E-07  0.113E-04    2.90      14.3  T
   6  -5167.4621378 -0.586078E-08  0.392E-05    2.90      41.4  T
     SCC iter.                  ...       15 min, 10.019 sec
     gradient                   ...        5 min, 12.836 sec
 * total energy  : -5103.3375169 Eh     change    :  -0.3235619E-02 Eh
   gradient norm :     0.1680784 Eh/a0  converged?    E=F G=F D=F
   time step     :     0.2500000 fs     power     :   0.1387493E-06
   step length   :     0.0875706 a0     speed     :   0.8472927E-02

........................................................................
.............................. CYCLE   23 ..............................
........................................................................

 iter      E             dE          RMSdq      gap      omega  full diag
   1  -5167.5403401 -0.516754E+04  0.669E-03    2.90       0.0  T
   2  -5167.5403596 -0.194918E-04  0.389E-03    2.90       1.0  T
   3  -5167.5403600 -0.389372E-06  0.150E-03    2.90       1.1  T
   4  -5167.5403606 -0.587657E-06  0.210E-04    2.90       7.7  T
   5  -5167.5403607 -0.817254E-07  0.987E-05    2.90      16.4  T
     SCC iter.                  ...       12 min, 38.355 sec
     gradient                   ...        5 min, 11.342 sec
 * total energy  : -5103.3425700 Eh     change    :  -0.5053081E-02 Eh
   gradient norm :     0.1674360 Eh/a0  converged?    E=F G=F D=F
   time step     :     0.2500000 fs     power     :   0.2455176E-06
   step length   :     0.0841347 a0     speed     :   0.8140484E-02

........................................................................
.............................. CYCLE   24 ..............................
........................................................................

 iter      E             dE          RMSdq      gap      omega  full diag
   1  -5167.6404843 -0.516764E+04  0.663E-03    2.91       0.0  T
   2  -5167.6405103 -0.260449E-04  0.374E-03    2.91       1.0  T
   3  -5167.6405109 -0.605827E-06  0.161E-03    2.91       1.0  T
   4  -5167.6405114 -0.423025E-06  0.235E-04    2.91       6.9  T
   5  -5167.6405115 -0.995442E-07  0.108E-04    2.91      15.0  T
     SCC iter.                  ...       12 min, 45.144 sec
     gradient                   ...        5 min, 13.168 sec
 * total energy  : -5103.3493420 Eh     change    :  -0.6772017E-02 Eh
   gradient norm :     0.1573711 Eh/a0  converged?    E=F G=F D=F
   time step     :     0.2500000 fs     power     :   0.3358333E-06
   step length   :     0.0834993 a0     speed     :   0.8079004E-02

........................................................................
.............................. CYCLE   25 ..............................
........................................................................

 iter      E             dE          RMSdq      gap      omega  full diag
   1  -5167.7571095 -0.516776E+04  0.694E-03    2.92       0.0  T
   2  -5167.7571431 -0.335970E-04  0.385E-03    2.92       1.0  T
   3  -5167.7571439 -0.779457E-06  0.174E-03    2.92       1.0  T
   4  -5167.7571444 -0.463911E-06  0.293E-04    2.92       5.5  T
   5  -5167.7571445 -0.155886E-06  0.131E-04    2.92      12.4  T
     SCC iter.                  ...       12 min, 40.340 sec
     gradient                   ...        5 min, 14.587 sec
 * total energy  : -5103.3572062 Eh     change    :  -0.7864224E-02 Eh
   gradient norm :     0.1397559 Eh/a0  converged?    E=F G=F D=F
   time step     :     0.2500000 fs     power     :   0.3856506E-06
   step length   :     0.0850168 a0     speed     :   0.8225828E-02

........................................................................
.............................. CYCLE   26 ..............................
........................................................................

 iter      E             dE          RMSdq      gap      omega  full diag
   1  -5167.8979123 -0.516790E+04  0.820E-03    2.93       0.0  T
   2  -5167.8979617 -0.493652E-04  0.453E-03    2.93       1.0  T
   3  -5167.8979628 -0.113110E-05  0.207E-03    2.93       1.0  T
   4  -5167.8979636 -0.760132E-06  0.393E-04    2.93       4.1  T
   5  -5167.8979639 -0.280154E-06  0.169E-04    2.93       9.6  T
     SCC iter.                  ...       12 min, 37.691 sec
     gradient                   ...        5 min, 11.981 sec
 * total energy  : -5103.3660909 Eh     change    :  -0.8884637E-02 Eh
   gradient norm :     0.1149281 Eh/a0  converged?    E=F G=F D=F
   time step     :     0.2750000 fs     power     :   0.3801098E-06
   step length   :     0.0971479 a0     speed     :   0.8545071E-02

........................................................................
.............................. CYCLE   27 ..............................
........................................................................

 iter      E             dE          RMSdq      gap      omega  full diag
   1  -5168.0571236 -0.516806E+04  0.965E-03    2.95       0.0  T
   2  -5168.0571900 -0.663957E-04  0.536E-03    2.95       1.0  T
   3  -5168.0571915 -0.149092E-05  0.242E-03    2.95       1.0  T
   4  -5168.0571928 -0.131749E-05  0.491E-04    2.95       3.3  T
   5  -5168.0571932 -0.426007E-06  0.207E-04    2.95       7.8  T
   6  -5168.0571932 -0.334703E-07  0.119E-04    2.95      13.6  T
     SCC iter.                  ...       15 min,  9.579 sec
     gradient                   ...        5 min,  9.904 sec
 * total energy  : -5103.3747102 Eh     change    :  -0.8619386E-02 Eh
   gradient norm :     0.0883693 Eh/a0  converged?    E=F G=F D=F
   time step     :     0.3025000 fs     power     :   0.3102666E-06
   step length   :     0.1116480 a0     speed     :   0.8927722E-02

........................................................................
.............................. CYCLE   28 ..............................
........................................................................

 iter      E             dE          RMSdq      gap      omega  full diag
   1  -5168.2202898 -0.516822E+04  0.109E-02    2.97       0.0  T
   2  -5168.2203683 -0.785100E-04  0.613E-03    2.97       1.0  T
   3  -5168.2203700 -0.168107E-05  0.270E-03    2.97       1.0  T
   4  -5168.2203721 -0.212949E-05  0.548E-04    2.97       3.0  T
   5  -5168.2203726 -0.512980E-06  0.226E-04    2.97       7.2  T
   6  -5168.2203727 -0.381142E-07  0.127E-04    2.97      12.7  T
     SCC iter.                  ...       15 min, 14.099 sec
     gradient                   ...        5 min, 11.091 sec
 * total energy  : -5103.3815902 Eh     change    :  -0.6879925E-02 Eh
   gradient norm :     0.0744102 Eh/a0  converged?    E=F G=F D=F
   time step     :     0.3327500 fs     power     :   0.1936716E-06
   step length   :     0.1268466 a0     speed     :   0.9220951E-02

........................................................................
.............................. CYCLE   29 ..............................
........................................................................

 iter      E             dE          RMSdq      gap      omega  full diag
   1  -5168.3599669 -0.516836E+04  0.115E-02    2.99       0.0  T
   2  -5168.3600429 -0.759376E-04  0.652E-03    2.98       1.0  T
   3  -5168.3600445 -0.159927E-05  0.278E-03    2.99       1.0  T
   4  -5168.3600474 -0.289528E-05  0.537E-04    2.98       3.0  T
   5  -5168.3600479 -0.468812E-06  0.235E-04    2.98       6.9  T
   6  -5168.3600479 -0.384707E-07  0.130E-04    2.98      12.5  T
     SCC iter.                  ...       15 min, 13.988 sec
     gradient                   ...        5 min, 10.447 sec
 * total energy  : -5103.3860814 Eh     change    :  -0.4491268E-02 Eh
   gradient norm :     0.0843581 Eh/a0  converged?    E=F G=F D=F
   time step     :     0.3660250 fs     power     :   0.8865525E-07
   step length   :     0.1391586 a0     speed     :   0.9196324E-02

........................................................................
.............................. CYCLE   30 ..............................
........................................................................

 iter      E             dE          RMSdq      gap      omega  full diag
   1  -5168.4485627 -0.516845E+04  0.111E-02    3.00       0.0  T
   2  -5168.4486216 -0.588413E-04  0.638E-03    2.99       1.0  T
   3  -5168.4486228 -0.117636E-05  0.260E-03    3.00       1.0  T
   4  -5168.4486258 -0.308485E-05  0.464E-04    2.99       3.5  T
   5  -5168.4486262 -0.346863E-06  0.220E-04    2.99       7.4  T
   6  -5168.4486262 -0.303198E-07  0.106E-04    2.99      15.3  T
     SCC iter.                  ...       15 min, 16.921 sec
     gradient                   ...        5 min, 12.518 sec
 * total energy  : -5103.3892808 Eh     change    :  -0.3199327E-02 Eh
   gradient norm :     0.1019834 Eh/a0  converged?    E=F G=F D=F
   time step     :     0.4026275 fs     power     :   0.5403201E-07
   step length   :     0.1465975 a0     speed     :   0.8807207E-02

........................................................................
.............................. CYCLE   31 ..............................
........................................................................

 iter      E             dE          RMSdq      gap      omega  full diag
   1  -5168.4694196 -0.516847E+04  0.104E-02    3.00       0.0  T
   2  -5168.4694629 -0.432781E-04  0.603E-03    2.99       1.0  T
   3  -5168.4694636 -0.707742E-06  0.233E-03    3.00       1.0  T
   4  -5168.4694664 -0.272935E-05  0.399E-04    3.00       4.1  T
   5  -5168.4694666 -0.272778E-06  0.191E-04    3.00       8.5  T
   6  -5168.4694667 -0.177679E-07  0.657E-05    3.00      24.7  T
     SCC iter.                  ...       15 min, 17.004 sec
     gradient                   ...        5 min, 12.353 sec
 * total energy  : -5103.3933109 Eh     change    :  -0.4030123E-02 Eh
   gradient norm :     0.1092779 Eh/a0  converged?    E=F G=F D=F
   time step     :     0.4428903 fs     power     :   0.8839600E-07
   step length   :     0.1534484 a0     speed     :   0.8380719E-02

........................................................................
.............................. CYCLE   32 ..............................
........................................................................

 iter      E             dE          RMSdq      gap      omega  full diag
   1  -5168.4155341 -0.516842E+04  0.103E-02    2.99       0.0  T
   2  -5168.4155808 -0.466778E-04  0.598E-03    2.99       1.0  T
   3  -5168.4155816 -0.760018E-06  0.229E-03    2.99       1.0  T
   4  -5168.4155836 -0.202222E-05  0.414E-04    2.99       3.9  T
   5  -5168.4155839 -0.327669E-06  0.172E-04    2.99       9.4  T
   6  -5168.4155839 -0.113096E-07  0.802E-05    2.99      20.2  T
     SCC iter.                  ...       15 min,  8.658 sec
     gradient                   ...        5 min, 12.483 sec
 * total energy  : -5103.3995126 Eh     change    :  -0.6201677E-02 Eh
   gradient norm :     0.0993487 Eh/a0  converged?    E=F G=F D=F
   time step     :     0.4871793 fs     power     :   0.1380861E-06
   step length   :     0.1648003 a0     speed     :   0.8182467E-02

........................................................................
.............................. CYCLE   33 ..............................
........................................................................

 iter      E             dE          RMSdq      gap      omega  full diag
   1  -5168.2937359 -0.516829E+04  0.113E-02    2.97       0.0  T
   2  -5168.2938095 -0.736148E-04  0.651E-03    2.97       1.0  T
   3  -5168.2938109 -0.134209E-05  0.266E-03    2.97       1.0  T
   4  -5168.2938125 -0.161205E-05  0.498E-04    2.97       3.3  T
   5  -5168.2938130 -0.491187E-06  0.189E-04    2.97       8.6  T
   6  -5168.2938130 -0.161408E-07  0.938E-05    2.97      17.3  T
     SCC iter.                  ...       15 min, 11.058 sec
     gradient                   ...        5 min,  8.698 sec
 * total energy  : -5103.4069865 Eh     change    :  -0.7473950E-02 Eh
   gradient norm :     0.0769579 Eh/a0  converged?    E=F G=F D=F
   time step     :     0.5358972 fs     power     :   0.1375562E-06
   step length   :     0.1826758 a0     speed     :   0.8245455E-02

........................................................................
[...]
  3538   6 C     3541   7 N                                       1.3286294
  3541   7 N     3542   6 C                                       1.4455660
  3541   7 N     3543   1 H                                       1.0157732
  3518   6 C     3544   1 H                                       1.0931178
  3518   6 C     3545   1 H                                       1.0911975
  3525   6 C     3546   8 O                                       1.2310579
  3538   6 C     3547   8 O                                       1.2343302
  3542   6 C     3548   6 C                                       1.5259230
  3542   6 C     3549   1 H                                       1.0935838
  3542   6 C     3550   1 H                                       1.0928581
  3548   6 C     3551   6 C                                       1.5262920
  3548   6 C     3552   1 H                                       1.0923833
  3548   6 C     3553   1 H                                       1.0908428
  3551   6 C     3554   6 C                                       1.5276734
  3551   6 C     3555   1 H                                       1.0920308
  3551   6 C     3556   1 H                                       1.0896441
  3554   6 C     3557   6 C                                       1.5278182
  3554   6 C     3558   1 H                                       1.0906288
  3554   6 C     3559   1 H                                       1.0895832
  3557   6 C     3560   6 C                                       1.5286205
  3557   6 C     3561   1 H                                       1.0911095
  3557   6 C     3562   1 H                                       1.0917394
  3560   6 C     3563   7 N                                       1.4476496
  3560   6 C     3564   1 H                                       1.0914290
  3560   6 C     3565   1 H                                       1.0943544
  3563   7 N     3566   6 C                                       1.3331489
  3563   7 N     3567   1 H                                       1.0123593
  3568   6 C     3569   6 C                                       1.5334944
  3568   6 C     3570   1 H                                       1.0923701
  3568   6 C     3571   1 H                                       1.0888314
  3569   6 C     3572   6 C                                       1.5289172
  3569   6 C     3573   1 H                                       1.0919027
  3569   6 C     3574   1 H                                       1.0919217
  3572   6 C     3575   6 C                                       1.5319551
  3572   6 C     3576   1 H                                       1.0921556
  3572   6 C     3577   1 H                                       1.0921465
  3575   6 C     3579   1 H                                       1.0900770
  3575   6 C     3580   1 H                                       1.0912550
  3578   6 C     3581   7 N                                       1.3317492
  3581   7 N     3582   6 C                                       1.4480702
  3581   7 N     3583   1 H                                       1.0146038
  3566   6 C     3584   8 O                                       1.2338105
  3582   6 C     3585   6 C                                       1.5281295
  3582   6 C     3586   1 H                                       1.0947512
  3582   6 C     3587   1 H                                       1.0929135
  3585   6 C     3588   6 C                                       1.5268210
  3585   6 C     3589   1 H                                       1.0914501
  3585   6 C     3590   1 H                                       1.0911290
  3588   6 C     3591   6 C                                       1.5294159
  3588   6 C     3592   1 H                                       1.0911479
  3588   6 C     3593   1 H                                       1.0915961
  3591   6 C     3594   6 C                                       1.5273660
  3591   6 C     3595   1 H                                       1.0912617
  3591   6 C     3596   1 H                                       1.0921021
  3594   6 C     3597   6 C                                       1.5330912
  3594   6 C     3598   1 H                                       1.0911049
  3594   6 C     3599   1 H                                       1.0895911
  3597   6 C     3600   7 N                                       1.4458816
  3597   6 C     3601   1 H                                       1.0950343
  3597   6 C     3602   1 H                                       1.0935152
  3578   6 C     3603   8 O                                       1.2360954
  3600   7 N     3604   6 C                                       1.3356480
  3600   7 N     3605   1 H                                       1.0176862
  3606   6 C     3607   6 C                                       1.5248584
  3606   6 C     3608   1 H                                       1.0919677
  3606   6 C     3609   1 H                                       1.0911534
  3607   6 C     3610   6 C                                       1.5311573
  3607   6 C     3611   1 H                                       1.0926349
  3607   6 C     3612   1 H                                       1.0917098
  3610   6 C     3613   6 C                                       1.5277443
  3610   6 C     3614   1 H                                       1.0924494
  3610   6 C     3615   1 H                                       1.0921094
  3613   6 C     3617   1 H                                       1.0953952
  3613   6 C     3618   1 H                                       1.0916796
  3616   6 C     3619   7 N                                       1.3394027
  3604   6 C     3620   8 O                                       1.2330846
  3619   7 N     3621   6 C                                       1.4519756
  3619   7 N     3622   1 H                                       1.0062253
  3621   6 C     3623   6 C                                       1.5203910
  3621   6 C     3624   1 H                                       1.0964919
  3621   6 C     3625   1 H                                       1.0958938
  3623   6 C     3626   6 C                                       1.5281893
  3623   6 C     3627   1 H                                       1.0916069
  3623   6 C     3628   1 H                                       1.0907598
  3626   6 C     3629   6 C                                       1.5287061
  3626   6 C     3630   1 H                                       1.0913761
  3626   6 C     3631   1 H                                       1.0925462
  3629   6 C     3632   6 C                                       1.5287683
  3629   6 C     3633   1 H                                       1.0921698
  3629   6 C     3634   1 H                                       1.0914331
  3632   6 C     3635   6 C                                       1.5287584
  3632   6 C     3636   1 H                                       1.0916263
  3632   6 C     3637   1 H                                       1.0916821
  3635   6 C     3638   7 N                                       1.4476437
  3635   6 C     3639   1 H                                       1.0947461
  3635   6 C     3640   1 H                                       1.0932670
  3638   7 N     3641   6 C                                       1.3338601
  3638   7 N     3642   1 H                                       1.0123492
  3616   6 C     3643   8 O                                       1.2307679
  3644   6 C     3645   6 C                                       1.5324414
  3644   6 C     3646   1 H                                       1.0912993
  3644   6 C     3647   1 H                                       1.0889254
  3645   6 C     3648   6 C                                       1.5252240
  3645   6 C     3649   1 H                                       1.0919587
  3645   6 C     3650   1 H                                       1.0908320
  3648   6 C     3651   6 C                                       1.5321637
  3648   6 C     3652   1 H                                       1.0933630
  3648   6 C     3653   1 H                                       1.0931881
  3651   6 C     3655   1 H                                       1.0895639
  3651   6 C     3656   1 H                                       1.0925946
  3654   6 C     3657   7 N                                       1.3384042
  3657   7 N     3658   6 C                                       1.4501859
  3657   7 N     3659   1 H                                       1.0167714
  3641   6 C     3660   8 O                                       1.2315825
  3658   6 C     3661   6 C                                       1.5206561
  3658   6 C     3662   1 H                                       1.0965786
  3658   6 C     3663   1 H                                       1.0988583
  3661   6 C     3664   6 C                                       1.5263465
  3661   6 C     3665   1 H                                       1.0909313
  3661   6 C     3666   1 H                                       1.0903303
  3664   6 C     3667   6 C                                       1.5290704
  3664   6 C     3668   1 H                                       1.0917961
  3664   6 C     3669   1 H                                       1.0929884
  3667   6 C     3670   6 C                                       1.5272034
  3667   6 C     3671   1 H                                       1.0908321
  3667   6 C     3672   1 H                                       1.0901938
  3670   6 C     3673   6 C                                       1.5229605
  3670   6 C     3674   1 H                                       1.0921044
  3670   6 C     3675   1 H                                       1.0897921
  3673   6 C     3676   7 N                                       1.4485718
  3673   6 C     3677   1 H                                       1.0971269
  3673   6 C     3678   1 H                                       1.0935903
  3676   7 N     3679   6 C                                       1.3401780
  3676   7 N     3680   1 H                                       1.0081825
  3654   6 C     3681   8 O                                       1.2290449
  3682   6 C     3683   6 C                                       1.5333104
  3682   6 C     3684   1 H                                       1.0896093
  3682   6 C     3685   1 H                                       1.0892182
  3683   6 C     3686   6 C                                       1.5282192
  3683   6 C     3687   1 H                                       1.0918014
  3683   6 C     3688   1 H                                       1.0926621
  3686   6 C     3689   6 C                                       1.5276581
  3686   6 C     3690   1 H                                       1.0914572
  3686   6 C     3691   1 H                                       1.0912648
  3689   6 C     3693   1 H                                       1.0926380
  3689   6 C     3694   1 H                                       1.0910313
  3692   6 C     3695   7 N                                       1.3321985
  3679   6 C     3696   8 O                                       1.2250500
  3695   7 N     3697   6 C                                       1.4502771
  3695   7 N     3698   1 H                                       1.0149767
  3697   6 C     3699   6 C                                       1.5222057
  3697   6 C     3700   1 H                                       1.0942143
  3697   6 C     3701   1 H                                       1.0972659
  3699   6 C     3702   6 C                                       1.5311913
  3699   6 C     3703   1 H                                       1.0899829
  3699   6 C     3704   1 H                                       1.0910216
  3702   6 C     3705   6 C                                       1.5281473
  3702   6 C     3706   1 H                                       1.0899444
  3702   6 C     3707   1 H                                       1.0901799
  3705   6 C     3708   6 C                                       1.5265533
  3705   6 C     3709   1 H                                       1.0924389
  3705   6 C     3710   1 H                                       1.0899721
  3708   6 C     3711   6 C                                       1.5243010
  3708   6 C     3712   1 H                                       1.0891145
  3708   6 C     3713   1 H                                       1.0902316
  3711   6 C     3714   7 N                                       1.4484065
  3711   6 C     3715   1 H                                       1.0963170
  3711   6 C     3716   1 H                                       1.0926916
  3714   7 N     3717   6 C                                       1.3314728
  3714   7 N     3718   1 H                                       1.0115488
  3692   6 C     3719   8 O                                       1.2334283
  3720   6 C     3721   6 C                                       1.5323281
  3720   6 C     3722   1 H                                       1.0886843
  3720   6 C     3723   1 H                                       1.0920383
  3721   6 C     3724   6 C                                       1.5282606
  3721   6 C     3725   1 H                                       1.0906730
  3721   6 C     3726   1 H                                       1.0912311
  3724   6 C     3727   6 C                                       1.5286209
  3724   6 C     3728   1 H                                       1.0911711
  3724   6 C     3729   1 H                                       1.0908856
  3727   6 C     3731   1 H                                       1.0918331
  3727   6 C     3732   1 H                                       1.0893254
  3730   6 C     3733   7 N                                       1.3431337
  3733   7 N     3734   6 C                                       1.4497682
  3733   7 N     3735   1 H                                       1.0175133
  3717   6 C     3736   8 O                                       1.2312255
  3734   6 C     3737   6 C                                       1.5222201
  3734   6 C     3738   1 H                                       1.0951541
  3734   6 C     3739   1 H                                       1.0966639
  3737   6 C     3740   6 C                                       1.5299195
  3737   6 C     3741   1 H                                       1.0916111
  3737   6 C     3742   1 H                                       1.0906984
  3740   6 C     3743   6 C                                       1.5293887
  3740   6 C     3744   1 H                                       1.0904573
  3740   6 C     3745   1 H                                       1.0913457
  3743   6 C     3746   6 C                                       1.5299646
  3743   6 C     3747   1 H                                       1.0916856
  3743   6 C     3748   1 H                                       1.0900815
  3746   6 C     3749   6 C                                       1.5236972
  3746   6 C     3750   1 H                                       1.0908070
  3746   6 C     3751   1 H                                       1.0914850
  3749   6 C     3752   7 N                                       1.4516654
  3749   6 C     3753   1 H                                       1.0948784
  3749   6 C     3754   1 H                                       1.0956511
  3752   7 N     3755   6 C                                       1.3304711
  3752   7 N     3756   1 H                                       1.0145804
  3730   6 C     3757   8 O                                       1.2281835
  3758   6 C     3759   6 C                                       1.5280489
  3758   6 C     3760   1 H                                       1.0890482
  3758   6 C     3761   1 H                                       1.0954460
  3759   6 C     3762   6 C                                       1.5256855
  3759   6 C     3763   1 H                                       1.0922299
  3759   6 C     3764   1 H                                       1.0918768
  3762   6 C     3765   6 C                                       1.5322536
  3762   6 C     3766   1 H                                       1.0917559
  3762   6 C     3767   1 H                                       1.0933315
  3765   6 C     3769   1 H                                       1.0897491
  3765   6 C     3770   1 H                                       1.0911056
  3768   6 C     3771   7 N                                       1.3302325
  3755   6 C     3772   8 O                                       1.2344769
  3771   7 N     3773   6 C                                       1.4478567
  3771   7 N     3774   1 H                                       1.0148826
  3773   6 C     3775   6 C                                       1.5240337
  3773   6 C     3776   1 H                                       1.0939531
  3773   6 C     3777   1 H                                       1.0960950
  3775   6 C     3778   6 C                                       1.5259902
  3775   6 C     3779   1 H                                       1.0914777
  3775   6 C     3780   1 H                                       1.0917606
  3778   6 C     3781   6 C                                       1.5268904
  3778   6 C     3782   1 H                                       1.0919576
  3778   6 C     3783   1 H                                       1.0919375
  3781   6 C     3784   6 C                                       1.5273195
  3781   6 C     3785   1 H                                       1.0924310
  3781   6 C     3786   1 H                                       1.0928840
  3784   6 C     3787   6 C                                       1.5367372
  3784   6 C     3788   1 H                                       1.0933742
  3784   6 C     3789   1 H                                       1.0908542
  3787   6 C     3790   7 N                                       1.4540412
  3787   6 C     3791   1 H                                       1.0939524
  3787   6 C     3792   1 H                                       1.0931232
  3790   7 N     3793   1 H                                       1.0137196
  3790   7 N     3794   1 H                                       1.0143509
  3768   6 C     3795   8 O                                       1.2334047

 * 6 distinct bonds (by element types)

   Z      Z             #   av. dist./Å        max./Å        min./Å
   1 H    6 C        1980     1.0918995     1.1048682     1.0860857
   6 C    6 C         791     1.5282152     1.5399334     1.5184249
   1 H    7 N         209     1.0145110     1.0288667     1.0062253
   6 C    7 N         385     1.3931673     1.4606166     1.3249804
   1 H    8 O           2     0.9968511     0.9994467     0.9942555
   6 C    8 O         209     1.2345735     1.3263773     1.2097500


optimized geometry written to: xtbopt.xyz


           -------------------------------------------------
          | TOTAL ENERGY            -5103.699367293851 Eh   |
          | GRADIENT NORM               0.000849955466 Eh/α |
          | HOMO-LUMO GAP               3.083163642397 eV   |
           -------------------------------------------------

------------------------------------------------------------------------
 * finished run on 2024/07/12 at 22:16:47.380     
------------------------------------------------------------------------
 total:
 * wall-time:    17 d, 14 h, 14 min, 40.948 sec
 *  cpu-time:   108 d,  7 h, 42 min, 21.560 sec
 * ratio c/w:     6.157 speedup
 SCF:
 * wall-time:     0 d,  0 h, 13 min, 31.497 sec
 *  cpu-time:     0 d,  1 h, 20 min,  5.084 sec
 * ratio c/w:     5.921 speedup
 ANC optimizer:
 * wall-time:    17 d, 14 h,  0 min,  4.405 sec
 *  cpu-time:   108 d,  6 h, 20 min, 51.472 sec
 * ratio c/w:     6.157 speedup

