3864
 energy: -5104.206192823539 gnorm: 0.000885412350 xtb: 6.6.1 (8d0f1dd)
C           67.28463360363607       49.12829602839611       55.73259775672778
C           66.66167333138765       47.90437635904948       55.51683772381735
C           66.91067393264584       47.23956607497773       54.32193989268157
C           67.75149653221608       47.78170017856025       53.36598724556632
C           68.35100248059587       49.01002988531098       53.58611303192013
C           68.11354599224704       49.68186367013762       54.77300670590249
C           65.75280505650100       47.27785386516014       56.54613804551428
C           66.59927223108953       46.65143740705374       57.65944039935165
C           64.74701979060612       48.27078607090500       57.14107881868262
C           63.93919963235311       49.02319692380428       56.07320185192146
C           63.08499345040884       48.05078761435418       55.29879994050305
C           61.92809461827203       47.50645759084964       55.84427420690758
C           61.17596302035356       46.58693194277776       55.13517430884286
C           61.57264148880777       46.18694075048662       53.87099122060326
C           62.71608991836432       46.72894964189680       53.31068534308852
C           63.45966205134383       47.65529481637305       54.02006308379322
C           63.09466867465795       50.13607586143590       56.71044929453875
C           63.88395713486631       51.41943068987896       57.02701810960153
C           63.11041620902763       52.20962628515523       58.05090865638184
C           61.84355819856805       52.70309082322539       57.75667693120942
C           61.11445437864202       53.39054332460380       58.70713529344607
C           61.63758487822588       53.59443907245146       59.97264156218896
C           62.89314415666869       53.10330383770875       60.28062240025945
C           63.62256218533875       52.41738660898736       59.32420191195916
C           64.15941960136878       52.22241600305273       55.74946718477045
C           65.05144725695470       53.46042802420959       55.97771855182280
C           66.00836676058290       53.61544144538932       54.82215257967312
C           65.53554263278600       53.76372481135913       53.52299678625113
C           66.40848970458308       53.86866744972086       52.45640599377623
C           67.77569021334283       53.83290749009742       52.67173332034417
C           68.26004433770565       53.68822390944323       53.96052352778636
C           67.38165245689019       53.57594685445145       55.02446959960280
C           64.20585107706803       54.72711496331280       56.16416747820214
C           65.04685161108570       55.96798144784413       56.49445923102704
C           65.84028547913314       55.77148890196572       57.76002211158308
C           65.21021324498514       55.52517360697894       58.97440904987168
C           65.94719941208351       55.36495028182929       60.13314137524027
C           67.32873571666080       55.44741978022970       60.09952262452082
C           67.96752955361082       55.68982300378762       58.89545234402599
C           67.22709169555756       55.85037264865899       57.73750709343258
C           64.13773107506351       57.20085577952237       56.61423744920153
C           64.91167720500208       58.47578525122174       56.98006760773420
C           66.00801156764632       58.75854428440115       55.98597353569138
C           67.31841494266835       58.93033283548141       56.41322347925284
C           68.32995399438627       59.20683385419907       55.51035254702715
C           68.04701231585382       59.31038263089367       54.15896557689481
C           66.74639093117980       59.13262455275181       53.72009425422096
C           65.73776193189855       58.86050334792286       54.62643321135135
C           63.95424916231455       59.67411047137725       57.08704721836970
C           64.63406413582250       60.92962704899740       57.65084262865703
C           65.23092918156868       60.66333767230556       59.00965944030122
C           66.58537051274648       60.86758460058357       59.23752808221577
C           67.13961150295519       60.62998187057998       60.48342708911444
C           66.34206322084343       60.19218071190465       61.52645202840203
C           64.98604833886623       60.00753958095505       61.31668970530271
C           64.43628351628789       60.24340563228736       60.07034182168522
C           63.64609503142227       62.11269540012097       57.74615105078767
C           63.70419152358988       63.06298220313753       56.54127368176403
C           65.09870288768111       63.58986815316911       56.31184476254485
C           65.68408458595569       63.50882279000191       55.05427249614584
C           66.95399267903665       64.00680519552594       54.82399972580583
C           67.66485314058978       64.59737427864623       55.85351740445688
C           67.09228506162430       64.68780324195073       57.11126262603702
C           65.82166713548402       64.19127907825228       57.33604654552417
C           62.73291793009238       64.23328543018123       56.76846038769474
C           62.58552608504672       65.16731685323181       55.55352685834342
C           62.06526830459060       66.50628902240513       56.01010914843680
C           62.82615049702940       67.65458071491749       55.83329897426185
C           62.36334358470561       68.88680043827155       56.26178374400934
C           61.12940850351160       68.98838664480327       56.88101717186216
C           60.36569454457332       67.84881967083807       57.06928145884851
C           60.83001920272815       66.61953573735215       56.63825272045742
C           61.66456192305737       64.54452591971071       54.49680027166944
C           61.41907746012451       65.43667167346479       53.26824973497230
C           62.70120482459786       65.96858581117243       52.68613309383147
C           63.72518212812644       65.10972392955355       52.30351062957927
C           64.90006836020906       65.60415379298109       51.76910824184723
C           65.06917876249410       66.96783077816310       51.59760886046855
C           64.05150773629194       67.83190515468624       51.96213326645445
C           62.87933326621269       67.33350045009537       52.50284119948363
C           60.65994281405025       64.61971298018867       52.21220098527375
C           60.19173547465242       65.40877211488477       50.97944219624179
C           59.92055306204735       64.41776725123070       49.87310621294615
C           58.81807040377495       63.57200312435931       49.90663555471039
C           58.60246991923098       62.63650961979408       48.91117584671137
C           59.49360315381963       62.53171925152461       47.85709985501872
C           60.59764834152753       63.36558720819610       47.81101271106070
C           60.80874388499207       64.29782495341273       48.81234902821507
C           58.96491745317260       66.27266436738554       51.30222920153563
C           58.34059393789619       66.89286053841320       50.04589361208239
C           59.35698150646883       67.70710795614795       49.28878011274035
C           59.69117594916714       67.37174133104907       47.98278950843290
C           60.63326277503933       68.10150866838386       47.27973118016052
C           61.26170214747674       69.18123643436087       47.87571657823948
C           60.93786114310465       69.52520933232039       49.17724943839924
C           59.99356426816455       68.79484400095492       49.87505442825727
C           57.10238453321835       67.72875639652081       50.40148222116035
C           56.28138353200415       68.08302409202616       49.15271633902258
C           55.80509407392511       66.83454212884246       48.45780772055502
C           54.98261066164721       65.92290399242837       49.11218273452516
C           54.51788114490845       64.79572471588628       48.46092166682993
C           54.88578209989996       64.55101886250614       47.14846908228811
C           55.72526206571722       65.43578466522847       46.49608708875004
C           56.17454904589627       66.57263360922633       47.14495380072383
C           55.10776386908199       68.99983650522975       49.52793713581987
C           54.35808139976747       69.57163299640854       48.30765947713363
C           53.87396357257222       70.96513095416128       48.62846152527884
C           54.33708622625853       72.06247236045974       47.91387393668524
C           53.89731631931370       73.34158456943069       48.20785578646093
C           52.99254663823523       73.54529533027977       49.23507652985158
C           52.53716567231081       72.46182247894670       49.96777400148750
C           52.97207837865472       71.18497277892122       49.66406693179708
C           53.18237086899067       68.68575816159655       47.86839042976653
C           52.52346428463758       69.21212667565122       46.58117392263992
C           53.47641849159422       69.05961291881101       45.42311686913735
C           54.02307820026761       70.18000528789288       44.80853808504808
C           54.90695980148800       70.05221057300390       43.75134987972200
C           55.25674579165401       68.79604618115648       43.28649511522428
C           54.72188876519663       67.67259059582074       43.89297333261690
C           53.84619388409846       67.80354413265134       44.95538609265925
C           51.16996277748441       68.52855256396631       46.31400312733869
C           50.21500216698845       69.41332936168759       45.49354334441170
C           48.77550794292021       69.01639971393932       45.71467175161261
C           48.33320435562409       67.72797079720019       45.43720049927121
C           47.00644349285294       67.37880665046954       45.61350789085752
C           46.09320743616230       68.31667673898463       46.06631798110242
C           46.52143367748316       69.60162511127126       46.35043283669900
C           47.85179727278730       69.94375084659266       46.17999343567653
C           50.53886057944124       69.37685924784935       43.99315454867849
C           49.85915069737348       70.52755852153243       43.23921138353680
C           50.51809585210667       71.83797716081108       43.59125509998587
C           51.82203365656540       72.11435466120544       43.19590080979172
C           52.42717117254587       73.31064721146375       43.53540634683096
C           51.73985019345231       74.25442492020869       44.27991146215473
C           50.43908891412965       73.99462121701023       44.67405813178192
C           49.83563384240096       72.79799312708563       44.32809166118372
C           49.89642335633354       70.30590350155768       41.71910431072571
C           48.86947942793218       69.28848366914076       41.18985661533981
C           49.18362120065350       69.04449821898709       39.73492069349848
C           49.81066929242036       67.86550646088024       39.35195648825397
C           50.18274977023828       67.65160525448427       38.03702901535839
C           49.91324343334861       68.60995287060312       37.07496638528460
C           49.27704229509634       69.78414798483756       37.44161700506885
C           48.92454388185330       70.00263596026181       38.76171641270801
C           47.43034080041130       69.76605703821284       41.42763076124014
C           46.37328388085771       68.95072275860282       40.66965522753465
H           65.18887909501039       46.47731760779529       56.05284667402080
H           64.06026372154929       47.71935067394468       57.78796355997702
H           65.27496887771899       48.99261751757093       57.76632781626456
H           64.64823174162780       49.47646687172684       55.37293960974768
H           62.27682480267983       50.39396859203779       56.03661057061013
H           62.65360139498601       49.76774506979737       57.63953684843854
H           64.84890941201058       51.14379638321528       57.46645557719039
H           64.66049096068457       51.56330031631699       55.03677234938316
H           63.21320673240773       52.52854780125724       55.30102020284163
H           65.63906101384603       53.30767229543755       56.88990352675973
H           63.48704674040290       54.55225790333206       56.96526920583864
H           65.75278012294615       56.13595803707823       55.67255001165624
H           63.61633407622368       57.34657070937465       55.66697894618687
H           63.38890767772572       57.01310974120995       57.38599734399546
H           65.37251319265293       58.32211470635168       57.96231002708382
H           63.55500078592261       59.90544493496903       56.09904866571792
H           63.12240960736939       59.39542328014948       57.73641278866994
H           65.45050186737920       61.20944291493724       56.97643723324992
H           62.62793917569019       61.73292522491809       57.84490436097106
H           63.86280269206298       62.68180377153403       58.65202378313337
H           63.39297001881101       62.51471558554157       55.64828792240928
H           63.57606640467864       65.32158744676731       55.11253264016631
H           62.09624047419641       63.59824936260954       54.16748516388079
H           60.69879346802292       64.33075325847378       54.95851451253174
H           60.80596796861151       66.28816795524405       53.58096543251141
H           61.30768974682619       63.80710660847859       51.87617076442310
H           59.78378977448327       64.16779532237048       52.67691778208440
H           61.00488707858196       66.06750587158012       50.65403757894142
H           58.20448220187727       65.66634430383101       51.79860542425057
H           59.25899708552591       67.06137463783190       51.99613962129877
H           58.01297345711220       66.07412069595000       49.39601295549217
H           56.47673655061401       67.16753102096129       51.09828606427360
H           57.40832939275863       68.64971788773701       50.90134732758415
H           56.93769126871590       68.63370844431989       48.46733226647799
H           54.41151957665937       68.46353510788973       50.17435880512684
H           55.51156871311491       69.83613268150891       50.10515025326510
H           55.06274573555672       69.63916775820452       47.47085196591947
H           53.53471654849959       67.66699392476727       47.71121115029795
H           52.43888157596906       68.66618130707042       48.66729138128036
H           52.33306386466607       70.28269633736066       46.72775318182102
H           51.32260690487426       67.57747779967633       45.80337705574586
H           50.69175223206944       68.31330920474751       47.27287528524354
H           50.33561860172053       70.44650170794876       45.84071060226785
H           51.61770572142441       69.44712592234875       43.85147372798787
H           50.20437725796213       68.42664142795765       43.57565816507483
H           48.81547762211335       70.57995764622835       43.56195076417346
H           49.72339871337623       71.26330776005413       41.22043837602320
H           50.89371127483365       69.96360510971006       41.43157120904455
H           67.11924656260072       49.66509149746256       56.65478889530591
H           68.57179036229469       50.64455275479676       54.94907476671700
H           68.99879950331666       49.44197791111024       52.83712391964620
H           67.93862631997510       47.24801298038430       52.44422213734519
H           66.43193034560201       46.28750377761747       54.13816479194183
H           61.60381025592046       47.80030615534162       56.83175180599304
H           60.27934514424761       46.17701908917104       55.57582723768720
H           60.99366217653981       45.45818085139249       53.32309873978563
H           63.02696855025296       46.42701272039280       52.32179120496925
H           64.35632243274776       48.07212890979460       53.58025277711566
H           61.41829669391796       52.54503260264907       56.77733032300691
H           60.13521272775679       53.77142656933211       58.46225328351295
H           61.06277447522950       54.13441864116465       60.71022708121086
H           63.30860800894036       53.25042857196080       61.26793639216125
H           64.60529447900798       52.04096215541245       59.57500981629060
H           64.47346487793072       53.79533056312000       53.33485734338365
H           66.01665959475535       53.97560202278594       51.45467309623007
H           68.46194239422998       53.91446609349430       51.84058824819186
H           69.32684773453056       53.65887680211428       54.13694009848406
H           67.76828906907539       53.45727782141891       56.02803908250518
H           63.65196657416962       54.91718149832575       55.24364127496840
H           64.13448179507502       55.45228509715658       59.02192967432331
H           65.44160785640845       55.17621489046476       61.06918769690131
H           67.90571173423832       55.32448030309357       61.00524305150100
H           69.04635007638656       55.75614858599342       58.85877287582332
H           67.73242323118313       56.04458635455309       56.80087376986966
H           67.54817904726649       58.84153586227772       57.46624888289417
H           69.34400223505581       59.33957969624307       55.86178462783564
H           68.83734582142679       59.52517853305108       53.45356163053383
H           66.51518052078069       59.20549682304746       52.66651098170708
H           64.73111127076859       58.72007014853846       54.26271399734031
H           67.21206107121583       61.22073760444840       58.42955234246774
H           68.19733289185399       60.78863687933317       60.64151300265480
H           66.77410724386937       60.00382565428738       62.49885809294686
H           64.35679330843962       59.68162130253802       62.13311880823100
H           63.37633897292731       60.10680999324643       59.92246106741211
H           65.13936010250619       63.05407283217913       54.24034910187325
H           67.39086720690784       63.93379918539672       53.83818228353670
H           68.65786525095585       64.98626065598732       55.67854419171048
H           67.64012818529312       65.14888969372045       57.92120606347834
H           65.39505875755667       64.27351808711417       58.32487254739026
H           61.75243378104363       63.83503738719861       57.03568174993546
H           63.09318486761582       64.82112209032054       57.61618642425078
H           63.79223942157710       67.58249296461548       55.35205841529854
H           62.96866559732856       69.77012949525484       56.11367914104414
H           60.76768529498995       69.94952345398957       57.21765868857842
H           59.40437774597413       67.91967736609391       57.55836442970939
H           60.22188324643880       65.74122255639547       56.79415181959870
H           63.60359061680010       64.04303769334658       52.42035705757636
H           65.69003086748093       64.92401461967187       51.48321198222218
H           65.98799496868980       67.35495515126962       51.18058693416732
H           64.17258784827001       68.89752777537856       51.82704720877900
H           62.09306843462418       68.01733960715680       52.79179457164540
H           58.11490664257828       63.64111365355322       50.72070858947377
H           57.74354934757207       61.98210571964592       48.96187937066225
H           59.33082250925037       61.80436756766252       47.07443312651714
H           61.29952721106905       63.29037471747289       46.99144861792303
H           61.67438281650271       64.94569430872670       48.76960119688371
H           59.21094611513843       66.52380989798338       47.51438301134184
H           60.88052354120298       67.82540158647228       46.26417864151832
H           62.00026695280076       69.75103364887345       47.33029729243262
H           61.42580422346417       70.36605244852169       49.64973517844521
H           59.75496332894480       69.07707263642479       50.89038728447949
H           54.68587378286570       66.10500300914123       50.13495444030775
H           53.86775221585501       64.10634427477703       48.97912677071653
H           54.51802254313866       63.67862232971249       46.62983102038939
H           56.02685679554236       65.24547945598552       45.47588104128535
H           56.81371581861038       67.27097251308210       46.62145484782857
H           55.05378750817547       71.91399878486831       47.11777355114725
H           54.26357980926259       74.18170052924208       47.63481400796670
H           52.64838801489557       74.54320016915145       49.46649525555426
H           51.83801338886132       72.61287461611846       50.77812881788213
H           52.61073991540589       70.35129193302429       50.24661741842757
H           53.73960807245398       71.16459339703476       45.15360693688359
H           55.32059848109639       70.93598695682441       43.28583999822601
H           55.94185278424712       68.69499969522515       42.45666150752474
H           54.98544317246761       66.68842540950574       43.53323614608988
H           53.44892677380873       66.91376359965373       45.42120623032718
H           49.03295043687667       66.98741552344248       45.07773666993002
H           46.67742479447410       66.37231646752920       45.39843305532283
H           45.05342799135806       68.04915956931021       46.19771736464443
H           45.81863738208366       70.34371339860654       46.70404614463358
H           48.17686846527667       70.94762694517814       46.41573373433430
H           52.37289353387913       71.38747391464564       42.61760265282082
H           53.44166194281681       73.50873204439559       43.21906512548181
H           52.21392349431498       75.18753581248124       44.54797708696648
H           49.89238667563626       74.72660057900832       45.25161392128047
H           48.81608304163664       72.60716224421873       44.63402542749042
H           48.44469808058994       70.93181120102264       39.03343015714405
H           49.06211793075897       70.53661772403366       36.69556027042695
H           50.19425504455997       68.44495931752762       36.04444033954319
H           50.69143763793154       66.73704593939162       37.76662200497082
H           50.01693026396824       67.10738150101173       40.09315754967314
H           67.18729036331317       47.41402526886049       58.16599037269029
H           65.96116531731207       46.16195477747424       58.39214626815544
H           67.28290497920338       45.91210227863250       57.24733587821799
H           49.00466311996607       68.34025276121668       41.71889650537266
H           47.21594543401716       69.70316506952346       42.49611805672539
H           47.33511090527644       70.81521807835726       41.13833133926631
C           44.97246189055798       69.32849631981692       41.17857172019093
C           46.57569344288088       67.46438491013377       40.81115831401677
C           46.65160131279796       66.66266392716273       39.68016351483811
C           46.74717241552054       65.28816156919225       39.78993028891441
C           46.78537049115182       64.69754572401052       41.03953818983199
C           46.72668615583958       65.48490121385453       42.17630926555355
C           46.61966743145818       66.85847844442705       42.06171518730415
H           46.62030360526627       67.11631261298622       38.69873918259580
H           46.77467260147343       64.68683819271101       38.89402126255639
H           46.85732723902964       63.62335402045267       41.13051646372936
H           46.75068166270629       65.02565489955930       43.15413558080851
H           46.56377314296248       67.46235226985073       42.95628035865922
C           43.85784761163728       68.61443941016151       40.40364431138492
H           44.89520996177531       69.06058725600410       42.23460667083673
H           44.83311075887895       70.40955995557471       41.10226161661461
C           42.54885165458533       68.72710513162598       41.12775128600703
C           42.32169840166203       67.94643846538678       42.25568915078556
C           41.14300529836100       68.05868668893066       42.96781149136558
C           40.16462086450906       68.94823705635292       42.55506210279468
C           40.37592266777094       69.72348593027816       41.42826895336768
C           41.56291964210077       69.61591364827662       40.72284670582317
H           43.08027568559443       67.24267710478904       42.56868916797978
H           40.98582280722774       67.44997441480675       43.84672963572828
H           39.23890409760810       69.03571638178299       43.10584256770780
H           39.61450931045324       70.41577321078354       41.09768216507175
H           41.72178170806771       70.22751446775190       39.84528965914573
H           46.43508351923666       69.20116883732348       39.60465890748979
H           43.77773103211817       69.04178726429380       39.40180971950591
H           44.12342784725890       67.55898141375785       40.30875158072110
C           53.85586868393801       62.78348407176940       29.66735728025309
C           54.16754726512289       63.62798013498823       30.72701125576255
C           55.37896246643374       63.44582229777063       31.38123896648316
C           56.26318949131156       62.45999745356293       30.97960335015075
C           55.94233052194216       61.62810995654792       29.92087989593264
C           54.73055265423432       61.78863272042521       29.27086179628120
C           53.23749006854977       64.74225570810441       31.13752280264250
C           53.13146070000260       65.77560450183984       30.01164015503270
C           51.84971251279472       64.20791778112824       31.50979277065573
C           51.88378104794557       63.29252378927831       32.73519911862820
C           52.36765215162979       63.97161565701467       33.99432123622793
C           52.09363567195015       65.30088522807682       34.29208438373005
C           52.52009879681766       65.86236824671191       35.48400086553020
C           53.20500182844638       65.09806869497895       36.41149713950676
C           53.46729568660305       63.76601632906083       36.13700916189892
C           53.05811487764171       63.21493434193682       34.93616031641181
C           50.49010117973994       62.71395265932444       33.03745146242220
C           49.94669699235754       61.71891506956699       31.99848266385179
C           48.53975715009845       61.34638415939326       32.39259046153256
C           48.28276960287230       60.58696829128593       33.52799902735865
C           46.98607235911141       60.26153070890869       33.87942967434928
C           45.92134992158623       60.69341459731137       33.10768523476328
C           46.16421135434938       61.46190070768770       31.98313762460195
C           47.46327177268718       61.78479617192237       31.63154152281719
C           50.85838801365802       60.48971817965019       31.88188906511670
C           50.25518926541685       59.34802329561908       31.05162271146715
C           49.67943293140813       59.86365398620721       29.75640151558725
C           50.46197512742663       60.59074722941723       28.86593690571188
C           49.93249248880377       61.06556795191637       27.68012962779607
C           48.60779530495104       60.81675590080839       27.36103064010832
C           47.82128143763663       60.08739778212766       28.23547870108046
C           48.35493329039473       59.61524883826843       29.42222479622604
C           51.28895051877163       58.25611459883005       30.72414349610731
C           51.89065127282392       57.54142188346803       31.94296505679893
C           52.93085692279993       58.37684653904878       32.64654777317921
C           52.78216421240089       58.69204024919515       33.99147574218924
C           53.73018023304222       59.44182370758455       34.66430754006323
C           54.85499023716206       59.89052941833824       33.99400386235158
C           55.02078267215769       59.57794581444464       32.65579480869566
C           54.07031446192002       58.82475384130458       31.98944221392870
C           52.52588063068531       56.20220524867663       31.51613819157951
C           51.51276222071258       55.04780048385138       31.46386807454628
C           51.99807420715586       53.94916759436489       30.55317310618636
C           51.18813993860415       53.45102136861710       29.54152007781382
C           51.62395685549652       52.42684387999904       28.71873884541854
C           52.88629153286055       51.88792443583782       28.89200851490399
C           53.70544046524780       52.37918920121590       29.89478547135365
C           53.26367879035273       53.39577564316988       30.72067165729028
C           51.25530750803993       54.47062619441601       32.86518651345455
C           49.91349751060461       53.72640858333406       32.94133218004150
C           48.77905101043758       54.72055740679691       32.97998267062258
C           47.84506034598461       54.78185874066580       31.95444881698131
C           46.81549109095023       55.70851195639779       31.98314034486872
C           46.70027223853929       56.58993040721698       33.04378421338115
C           47.61796726543986       56.53143920062033       34.07916985896082
C           48.64417052412643       55.60602688079520       34.04475279189415
C           49.84967834771626       52.80150040442966       34.16767170825505
C           50.62103259169047       51.48968910406315       33.97570139684077
C           50.06107402492008       50.68661563841427       32.82799793184804
C           48.76432483330247       50.18545422439969       32.86254139939334
C           48.26623961871822       49.43165113420129       31.81574153280114