3864
 energy: -5104.051469639920 gnorm: 0.000753096122 xtb: 6.6.1 (8d0f1dd)
C           67.20641601953363       49.19847817052115       55.65688158295224
C           66.64276472840096       47.94161055817928       55.46984826432499
C           66.92938506384172       47.25844872037174       54.29379974851685
C           67.74935623156934       47.81434322690053       53.32779636042178
C           68.28649824714205       49.07625692692264       53.51762250509494
C           68.01102615934299       49.76691269605010       54.68511221863797
C           65.75922808527369       47.29433445329180       56.50900621196941
C           66.63363657461863       46.68541528881310       57.61013799930153
C           64.73917005477065       48.26095660071340       57.12242896818272
C           63.91167579559798       49.01375112517244       56.07004838037511
C           63.05694761114914       48.04203653111905       55.29558947809165
C           61.89546365187419       47.50304611756234       55.83650157250294
C           61.14139750386257       46.58800739989050       55.12329985107191
C           61.54093160007923       46.18772806072536       53.86004957555968
C           62.68974386370094       46.72394182480323       53.30494477046175
C           63.43584494493278       47.64495498061341       54.01837692699805
C           63.06687977437448       50.11549120752355       56.72596408390659
C           63.85209700848227       51.40180124632820       57.04047497073598
C           63.07674592387906       52.18869976857731       58.06545901582567
C           61.81073714289261       52.68282242396727       57.76915384758705
C           61.08057920845080       53.37028644455639       58.71877583372596
C           61.60141128801944       53.57339015588107       59.98528464642923
C           62.85466776402134       53.07840284570275       60.29618947373823
C           63.58539229316043       52.39298251140698       59.34073318082236
C           64.12205495088402       52.20428159580847       55.76158455034013
C           65.00733604975991       53.44754031722572       55.98522032354747
C           65.96155710738202       53.60345067919431       54.82700207306654
C           65.48437895358406       53.73795690944207       53.52816674558873
C           66.35406534826387       53.83621520139922       52.45803059657072
C           67.72157225493460       53.80837622648031       52.67156146985354
C           68.20984610020403       53.68153719626854       53.96057306593872
C           67.33511875493610       53.57522315716268       55.02809703131270
C           64.15472020234172       54.70964830663024       56.16935996264268
C           64.99086916627743       55.95385238006439       56.49622850357981
C           65.78322725228561       55.76811079983155       57.76456628416723
C           65.15103044963082       55.52265204594067       58.97778144720707
C           65.88586780142330       55.38191745430255       60.14053150998529
C           67.26601712265065       55.48255378827881       60.11024696540816
C           67.90635666393125       55.72169654479000       58.90661748840536
C           67.16891278341491       55.86353243520603       57.74450551734298
C           64.07918048968349       57.18504120963401       56.61131201400296
C           64.85503161565022       58.45957872774073       56.97197722005065
C           65.94662965490090       58.74539965325241       55.97298232182470
C           67.25460866585942       58.93951200384327       56.39800450704142
C           68.25836813100213       59.23128542030155       55.49154516248257
C           67.97021340194968       59.32700548523064       54.14088238812914
C           66.67308070931541       59.12246965430478       53.70423927735270
C           65.67132280092024       58.83515800107111       54.61396057689139
C           63.90098672862464       59.65971356078651       57.08426578488326
C           64.59336681914674       60.91528794818412       57.63147626085146
C           65.21454474691672       60.65469089852735       58.98053046057741
C           66.56854931280438       60.88413497204792       59.18596612529208
C           67.14752962829358       60.64819000292805       60.42054233838669
C           66.37651973354554       60.18583073835035       61.47263482437354
C           65.02091375610892       59.97774697432050       61.28548961062577
C           64.44517632749334       60.21428814323476       60.05090205562792
C           63.61391212883652       62.10439629058703       57.73190308846738
C           63.67282447686031       63.04764392334899       56.52150874212722
C           65.07357224628335       63.55340227550857       56.27926210328278
C           65.65167203056427       63.44861727470693       55.02033816560330
C           66.92965980637226       63.92080988066478       54.78076289346317
C           67.65451925522996       64.50789294988458       55.80213078718773
C           67.08854362318465       64.62236968453149       57.06059335861674
C           65.80977522496572       64.15219768901299       57.29523552355526
C           62.71672728945995       64.23012593389984       56.74632878686103
C           62.57644203575949       65.15697119432063       55.52576382033550
C           62.06122336553819       66.50252786790658       55.96878094785826
C           62.82393120945707       67.64621333258378       55.77243922443020
C           62.36276253547445       68.88491569479963       56.18273910997907
C           61.13021320500862       68.99714813350893       56.80238961501802
C           60.36557868880883       67.86199985512674       57.01085841841958
C           60.82790382621419       66.62554608959651       56.59824462043080
C           61.65487433513285       64.53207879822041       54.47060997269191
C           61.40519865579466       65.42397849640558       53.24297210728165
C           62.68401566248145       65.96041632935963       52.65662416967432
C           63.71151604415326       65.10470739918843       52.27727054450032
C           64.88311028736260       65.60360939488487       51.73952484471418
C           65.04261783004198       66.96715011258881       51.55991663875503
C           64.01997880080836       67.82719346759045       51.91926238072865
C           62.85177119974131       67.32534688907423       52.46504379473780
C           60.64652487922035       64.60613645056259       52.18756350891984
C           60.17107718315492       65.39852951591651       50.96019431747094
C           59.89629807181361       64.41137940656050       49.85129783877657
C           58.77927637578352       63.58460460174812       49.86931033518970
C           58.56157490300784       62.65265003449709       48.87060127262215
C           59.46569269520849       62.53279092928270       47.82941339358359
C           60.58422033920305       63.34783205187448       47.79924939721591
C           60.79749160559532       64.27622857811396       48.80322201713980
C           58.94722023556526       66.26206588096638       51.29333039976974
C           58.32310365506479       66.89114325529665       50.04150341490503
C           59.34737750988337       67.69845645230629       49.28666670734250
C           59.68058401437432       67.36011961012906       47.98143979404233
C           60.63655519413569       68.07770404720442       47.28468892039771
C           61.27959666129064       69.14502503697527       47.88680656390044
C           60.95618887685902       69.49112468223143       49.18760014682397
C           59.99669431379594       68.77491780652009       49.87915710605195
C           57.09087854692823       67.73263728292957       50.40345128217209
C           56.26717243381405       68.09101982948958       49.15769187738559
C           55.79965142192678       66.84383082272116       48.45430775663689
C           54.98006559175515       65.92345860399261       49.10023847546427
C           54.52561139751936       64.79655512209654       48.44083261261403
C           54.90224730621436       64.56003133804182       47.12929551234167
C           55.74006816835875       65.45313310699515       46.48612099324272
C           56.17740416418239       66.59030391305544       47.14199380427647
C           55.08896558515648       68.99899157212324       49.53932817194282
C           54.33185423342349       69.56780915925609       48.32269223452742
C           53.83908479485821       70.95911726693396       48.64144828625543
C           54.27814856428248       72.05494168980120       47.90984594247537
C           53.82236390231874       73.33012403759500       48.19568579997658
C           52.92887903748271       73.53120650922551       49.23301558821687
C           52.49956824973974       72.44964598941766       49.98373720628958
C           52.94811471453065       71.17586064118626       49.68674933559910
C           53.15786506794891       68.67592151627396       47.88969369382840
C           52.49277076339892       69.19887956884970       46.60452776318781
C           53.44466108008437       69.05297097990722       45.44450305243245
C           53.98196509179061       70.17827443545539       44.83070745562551
C           54.86463455134078       70.05740567773498       43.77200886753084
C           55.22216562984426       68.80427183992884       43.30538143752638
C           54.69686913583803       67.67625351157719       43.91139740041900
C           53.82206171352707       67.79972396991909       44.97570441894845
C           51.14209719978779       68.50888459688605       46.33920563454118
C           50.18433380406213       69.39225719525365       45.52031072231480
C           48.74506219106155       68.99307590038956       45.73848197392807
C           48.30371940327066       67.70642336667665       45.45145318509049
C           46.97577331099976       67.35655421014039       45.61904904888330
C           46.06019645133506       68.29262591126506       46.07123377376249
C           46.48827039543418       69.57520280883692       46.36658088153284
C           47.81974522568842       69.91755026727822       46.20666068124162
C           50.51023501962228       69.35912456791583       44.02016760437220
C           49.84035205631046       70.51783840200041       43.26836005762372
C           50.51345991465563       71.81695152072149       43.63658474716874
C           51.81117527666634       72.09525880599421       43.22360877473623
C           52.43559861547030       73.27172437057517       43.59643583147696
C           51.77513980553027       74.19088719573088       44.39366540168368
C           50.47953340685320       73.93005636289982       44.80314900223014
C           49.85555190963041       72.75494012081671       44.42245551531745
C           49.87929424417299       70.29690857747680       41.74863079092280
C           48.85116472241911       69.27953489440631       41.22073078881910
C           49.16799157802227       69.02504501747283       39.76794573788278
C           49.80795244304669       67.84856222239597       39.39867492812161
C           50.18060734830318       67.62259099962064       38.08593107849093
C           49.89850029138294       68.56582393572755       37.11263855357621
C           49.25067200769761       69.73749291233824       37.46630944020756
C           48.89813929881796       69.96894465729567       38.78415641103492
C           47.41273650517410       69.76157515023392       41.45487575514137
C           46.35366104806033       68.94974523034550       40.69567147629152
H           65.20661936703094       46.48298939896723       56.02090774808720
H           64.06520262919291       47.68974273155804       57.76550075355149
H           65.25763037994453       48.98429390239646       57.75377964384316
H           64.60693332911295       49.47866141769956       55.36448792217833
H           62.23913114943922       50.37400229291003       56.06415827269257
H           62.63894081427861       49.73974491999898       57.65805051694543
H           64.81834895835354       51.13090489779277       57.47858285789293
H           64.62567224507691       51.54737693383183       55.04878019170126
H           63.17317326949589       52.50342454523455       55.31246206832058
H           65.59492820175818       53.30193857525253       56.89805353821458
H           63.43489255172916       54.53443693385290       56.97024153344879
H           65.69451616947848       56.12200279114561       55.67303330403587
H           63.55263746298025       57.32719887614918       55.66502500344706
H           63.32834541232438       56.99971122451627       57.38330137514666
H           65.31749855572626       58.30542278836070       57.95302952039386
H           63.48775034150478       59.88615432034337       56.09978820881587
H           63.07258734559046       59.38689463396259       57.74258490270600
H           65.39780330248658       61.18648154142887       56.93983388128751
H           62.59237019563871       61.73277829379209       57.84129160119480
H           63.84132157796372       62.67530066764370       58.63401665407827
H           63.34703711943452       62.49495011251278       55.63526590436711
H           63.56841099499888       65.30031970408132       55.08528155218742
H           62.08554936995804       63.58486760958828       54.14052213015995
H           60.68982912586133       64.31432148244893       54.93435741415654
H           60.78843777864621       66.27162747449243       53.55910855417390
H           61.29694624657235       63.79736720802250       51.84720862903313
H           59.77366826586193       64.14614240072817       52.65266779508827
H           60.98252886491231       66.05814184122512       50.63501832033151
H           58.18670278727475       65.65478550340974       51.79058543204616
H           59.24482323772670       67.04550265252948       51.99180271371235
H           57.98811005583731       66.07591752904618       49.39104865035354
H           56.46505316119881       67.17427959069191       51.10368588935616
H           57.40300637782792       68.65192686973154       50.90244219127129
H           56.92062218604931       68.64841515600735       48.47631030273930
H           54.39905675593548       68.45597529260552       50.18753836563091
H           55.48947985881464       69.83608091146625       50.11728585669645
H           55.03198171565873       69.63605913481427       47.48279586587899
H           53.51167388499280       67.65727090001681       47.73306183478883
H           52.41751551695938       68.65404970975057       48.69196029495235
H           52.29640495694796       70.26762171367949       46.75309966896782
H           51.29767831029449       67.55793732650291       45.82826745927864
H           50.66561377631712       68.28966897998694       47.29840710541411
H           50.30281598936404       70.42403821941052       45.87042682906317
H           51.58960569714169       69.42359462785610       43.88067292763409
H           50.17135274404928       68.41156966906335       43.59979347013628
H           48.79650183228809       70.57705234026197       43.58922674203018
H           49.70748781982095       71.25390382159138       41.24936062189554
H           50.87549226164921       69.95129015953370       41.46194283937471
H           67.01340320759223       49.74968598648376       56.56502893387360
H           68.42034961565737       50.75485865637106       54.83760874232967
H           68.91666361932479       49.51933074721849       52.76056512378312
H           67.96946916766245       47.26455834558121       52.42303090913236
H           66.49715526337643       46.28026396877475       54.13503358149968
H           61.56835057457673       47.79844781110215       56.82230254703679
H           60.24065255203180       46.18304167529912       55.55944966040886
H           60.95938661273910       45.46407460398268       53.30845925334730
H           63.00103971619395       46.42321587063591       52.31641303032514
H           64.33623016414575       48.05695838178617       53.58307118508802
H           61.38687515358764       52.52902676037664       56.78809074626513
H           60.10209939321071       53.75226885182301       58.47070921822841
H           61.02469545857149       54.11701350980537       60.71841489209928
H           63.26634877872554       53.22391498587533       61.28434540834331
H           64.56653880328449       52.01547064790743       59.59213110806982
H           64.42100606931132       53.76383392728206       53.34422907295978
H           65.95766102658401       53.93055007187702       51.45712968319379
H           68.40432651929298       53.88378588621639       51.83779023917568
H           69.27644652506943       53.66081690176524       54.13504920729607
H           67.72206787187699       53.46939709728658       56.03242667925340
H           63.59665238334888       54.89506032844980       55.24935393606006
H           64.07560906396778       55.43664877821094       59.02035378555764
H           65.37756186841652       55.19510968701336       61.07528971723735
H           67.83992316597866       55.37558699312645       61.01919158759920
H           68.98358306183584       55.80101033516281       58.87297893357141
H           67.67230561769441       56.05699690149872       56.80746220771906
H           67.48517417660747       58.85721415861493       57.45065706366522
H           69.26971824561728       59.38277466007961       55.84046786819906
H           68.75352809619041       59.55490375621670       53.43285992332726
H           66.43609459634578       59.18602305826589       52.65153582962019
H           64.66558220304157       58.67400375010093       54.25462566929531
H           67.17189935606552       61.25552282878985       58.36926285100661
H           68.20368564875092       60.82669092495331       60.56202140865620
H           66.82741571707309       59.99692502006800       62.43571740937865
H           64.41041736385213       59.63396496667104       62.10873399431234
H           63.38458835929678       60.06165547084152       59.91916793208851
H           65.09372027426893       62.99548529166650       54.21440931926534
H           67.36003363777846       63.82910209403767       53.79422033872319
H           68.65350244733402       64.87591798761959       55.61986104940037
H           67.64640501166546       65.08116849594957       57.86425471663295
H           65.38646353150598       64.25137554097054       58.28379598188670
H           61.73204101735987       63.84455033563970       57.02145478470900
H           63.08755978364754       64.81899772914680       57.58863552884217
H           63.78819846234857       67.56347330894097       55.29089657930078
H           62.96858360510060       69.76458992532837       56.02013905306059
H           60.76909705071172       69.96303339151821       57.12455046604693
H           59.40544806776763       67.93989494848248       57.50115746906321
H           60.22056406731505       65.74884898106234       56.76927811929390
H           63.59473547818281       64.03812728096392       52.40087806859478
H           65.67574396591597       64.92570296520969       51.45728764001176
H           65.95840542463365       67.35687462442753       51.14010298094212
H           64.13288877945374       68.89217460635864       51.77699972588272
H           62.06071173596126       68.00401031938033       52.75194572424148
H           58.06435390394815       63.66668663424414       50.67281639721271
H           57.69035205795795       62.01370449247284       48.91106949186047
H           59.29937495495325       61.80885812535547       47.04498193632374
H           61.29448159207258       63.26089493190126       46.98931154687155
H           61.67292627399821       64.90984399924140       48.77455941588411
H           59.18952724153323       66.51972267319142       47.51113696774328
H           60.88292378502705       67.80018999595289       46.26979303110959
H           62.02964892569664       69.70379216989397       47.34654791855004
H           61.45512036797221       70.32195688665885       49.66538174351444
H           59.75629502778274       69.05735695259607       50.89408389921787
H           54.67644517363759       66.09736928810447       50.12272927815932
H           53.87474587983024       64.10164703722525       48.95231073657738
H           54.54052911533212       63.68799853035352       46.60562057185076
H           56.04777210736091       65.26830024830669       45.46750345246814
H           56.81340039423775       67.29523509144114       46.62558301862001
H           54.98824986341933       71.90722454483766       47.10831949007051
H           54.16870397582321       74.16866591567918       47.60894819415336
H           52.57354001763731       74.52594512899999       49.45949409303444
H           51.81023755254257       72.59788999360322       50.80274517860790
H           52.60652011026030       70.34181203546339       50.28090240768998
H           53.69046512071419       71.15911328617777       45.17769919384777
H           55.27104795126911       70.94429824905973       43.30737822644988
H           55.90605686991719       68.70819119360692       42.47457122568694
H           54.96582039585086       66.69381832652707       43.55143493335719
H           53.43135220511435       66.90680404022167       45.44192847619841
H           49.00494557520270       66.96760317911328       45.09050896994719
H           46.64926093426817       66.35090550813746       45.39605584936531
H           45.01982543001225       68.02461689431155       46.19310826889998
H           45.78400328357874       70.31521531224419       46.71935086221961
H           48.14478258108606       70.91827460504553       46.45235573814897
H           52.34186429714622       71.38504378643482       42.60723298768463
H           53.44470789642379       73.47191116886617       43.26530357938240
H           52.26530643869236       75.10682458376232       44.68949069561736
H           49.95231236059805       74.64376850609325       45.41986320311785
H           48.83959904531126       72.56303393930756       44.73905558574785
H           48.41027438996575       70.89645268902169       39.04630411961929
H           49.02678346666451       70.47825482656204       36.71173071650335
H           50.17990345218301       68.39091524727630       36.08399981467002
H           50.69935709417283       66.71024995815532       37.82746436171509
H           50.02309448194514       67.10198486021250       40.14860076976663
H           67.21339748010796       47.46065719056026       58.10690822013757
H           66.01597458443676       46.18417983378092       58.35262357412871
H           67.32556942188924       45.95997700146543       57.18802485162448
H           48.98250808192493       68.33353926836929       41.75494726688597
H           47.19651235108744       69.69921810699493       42.52310502754047
H           47.32136941503475       70.81074848224841       41.16502698860054
C           44.95435640842033       69.32287307571754       41.21177916748564
C           46.55780641636522       67.46289391038682       40.82896563727270
C           46.64720947334388       66.66938161417178       39.69308101077140
C           46.74287814800572       65.29429389015311       39.79438064630083
C           46.76630202261313       64.69488503128662       41.04027219698342
C           46.69427582738813       65.47399885511173       42.18204033990276
C           46.58845908015560       66.84834478767948       42.07578385404186
H           46.62645026217258       67.12885081364296       38.71503530249005
H           46.78154042729079       64.69796254835646       38.89582620996426
H           46.83805110354636       63.61964689923051       41.12486159217986
H           46.70713468466229       65.00681164836544       43.15647412060002
H           46.52299304842301       67.44485654520201       42.97426478899783
C           43.83713780461998       68.60432856686838       40.44437090954664
H           44.88462926314396       69.05546342611613       42.26845076309161
H           44.81184642944774       70.40331034475949       41.13598063022965
C           42.54010848171892       68.68976618438754       41.19384114515286
C           42.34630033788678       67.89039746032357       42.31479092538502
C           41.18117210695411       67.97826001377443       43.05242865682875
C           40.18418902662636       68.86130297839729       42.67166978352585
C           40.36261465525849       69.65432183810486       41.55182151248125
C           41.53595314891650       69.57164809906007       40.82100184128609
H           43.12075792331009       67.19260311538420       42.60159458947047
H           41.05002023246092       67.35606113309946       43.92596313539675
H           39.26953649399191       68.93024957045007       43.24273888129163
H           39.58677598187393       70.34188981858647       41.24681904544681
H           41.67072362815389       70.19720246125604       39.94950610236963
H           46.41240039303231       69.20414417718013       39.63202758413399
H           43.73447294508350       69.04392772855242       39.45012016038843
H           44.11459003689982       67.55382903838844       40.33118650765616
C           53.84369190768311       62.74256510660839       29.70113996155722
C           54.16492368081460       63.58006140816882       30.76335541292126
C           55.37517225697206       63.38488628754784       31.41565170587899
C           56.25064219042883       62.39413711548109       31.00766309197247
C           55.92100875714426       61.56950855674562       29.94604978521051
C           54.70920060689909       61.74180422584654       29.29954278756456
C           53.24638720467772       64.70225420857396       31.17856582551273
C           53.15275664103903       65.74171507481991       30.05776314042115
C           51.85305532667923       64.18009947381904       31.54649896955889
C           51.88076453623359       63.25693597130618       32.76623871942651
C           52.36690013312230       63.92653304592950       34.02976898776767
C           52.08975419624265       65.25245566917499       34.33928260743915
C           52.51680160395360       65.80447174067746       35.53537615788737
C           53.20610797018632       65.03402530751687       36.45440576508052
C           53.47306819139764       63.70555255349036       36.16744638253923
C           53.06286000855165       63.16380968817160       34.96254541133419
C           50.48375580298720       62.68356988037952       33.06264873247704
C           49.94182790142604       61.69144535175725       32.02000369561043
C           48.53174335705909       61.32374391472717       32.40714056386459
C           48.26737082553674       60.56035416054036       33.53810075356984
C           46.96758761592268       60.24009927369806       33.88333300390209
C           45.90790435500919       60.68093895627929       33.10973992005155
C           46.15863632468965       61.45304988618918       31.98944498722690
C           47.46030782051677       61.77099736725542       31.64401064888830
C           50.85108637553977       60.45988748918241       31.90521527701658
C           50.24324524736475       59.31423778447443       31.08295071638452
C           49.64179129557570       59.82674755197772       29.79815128730516
C           50.40355394591626       60.56254958289608       28.89727372394810
C           49.84898492529082       61.03675444989947       27.72282267406747
C           48.52096948907509       60.77838931874641       27.42709573968280
C           47.75591383503268       60.03946598856648       28.31214836068247
C           48.31390462447349       59.56733151399781       29.48747363522110
C           51.28069110674650       58.23154992915181       30.73821397288225
C           51.89143519249009       57.50940789715720       31.94800800280784
C           52.92984028715448       58.34395481051165       32.65482445549472
C           52.77900041445711       58.65343718779876       34.00086555042152
C           53.72393559222297       59.40376443959897       34.67770363919605
C           54.84770314208375       59.85847985012944       34.00968540433391
C           55.01561298980383       59.55124100238499       32.67058197400885
C           54.06809945567489       58.79803811148395       32.00007873058652
C           52.52740631246886       56.17441156381488       31.50857281935291
C           51.51521032811582       55.01959331521278       31.46502948925611
C           51.99241998878389       53.91046401314181       30.56218944548459
C           51.16456399452724       53.38994459165422       29.57679915106283
C           51.58772487730727       52.35011588724559       28.76756006068203
C           52.85497664281345       51.81910745653856       28.92756191233979
C           53.69224037151050       52.33414306134456       29.90276621617652
C           53.26305501550286       53.36567060653068       30.71689315228119
C           51.26217192259318       54.45018581546471       32.87059721542973
C           49.91936659442099       53.70840850175271       32.95368444602825
C           48.78755491993471       54.70594786337218       32.99102879540212
C           47.86277143742970       54.77764716862940       31.95784236276531
C           46.83857452241563       55.71002701211733       31.98254161338666
C           46.71822479849491       56.58598252072295       33.04706569358245
C           47.62668830991134       56.51717440783922       34.08992311315507
C           48.64899263143442       55.58685361358938       34.05903219306218
C           49.85966693533086       52.78717585433969       34.18266900118774
C           50.62826927905414       51.47434946335287       33.98778259845962
C           50.06471667564972       50.66727065922422       32.84369103573110
C           48.75940498481116       50.18887058586265       32.87314079038980
C           48.25943375573546       49.42774114325407       31.83228986897252