3258
 energy: -3427.435590841068 gnorm: 0.000669520802 xtb: 6.6.1 (8d0f1dd)
C          126.38958308311253      117.75111457799318      118.62380999606759
C          125.38630220359620      117.22986211058634      117.60192072614126
C          124.70414975937622      115.93266848205046      118.03711517724008
C          123.68494505974759      116.12921971113867      119.15759204003692
C          123.01637675654929      114.81293517535124      119.54442123871003
C          121.94363228595347      114.98498218750359      120.61686959976448
C          121.29650272031759      113.65022102850492      120.97915153539502
C          120.10313836593035      113.81565326082239      121.91644388658757
C          119.42890592019559      112.49312261280373      122.28658174366890
C          118.77058347562145      111.80699091341189      121.09222972730765
C          118.06009518239625      110.50867441136501      121.46753291816488
C          117.60114642622447      109.75065280479336      120.22433400793101
C          116.93292623177180      108.41772789475496      120.54802276132386
C          116.66759226277601      107.60272656709546      119.28527039156783
C          115.99258449763086      106.26542771212080      119.57546815711692
C          115.82100527381583      105.44103285399729      118.30305247933987
C          115.12312143580898      104.10700812862133      118.54962195598188
C          114.93898864210500      103.32608475722300      117.25253916459087
C          114.30334079373870      101.95512767021776      117.46794068305849
C          114.09286724022944      101.23680953684669      116.13787753554685
C          113.46118464672416       99.85175539636639      116.25865248340452
C          114.32357153101597       98.85049714045189      117.02457091937491
C          113.85274651857488       97.40314046768215      116.86028698232739
C          114.18896705419822       96.79941580122951      115.49696773272360
C          113.69763294214987       95.35808122960113      115.38069202491602
C          114.17865163608344       94.63886799209509      114.11927903195377
C          113.72937656544991       95.26822718116128      112.79876567113634
C          112.21069213206903       95.35368519301780      112.65193594896813
C          111.76072035286248       95.60905614620189      111.21248302026761
C          112.30195651049989       96.91141609225889      110.62728891822034
C          111.71910071523214       97.20012469105224      109.24519524626514
C          112.35629509956469       98.42473918101109      108.59040887176376
C          111.69001837119578       98.78229180282737      107.26445228663120
C          112.29600540713535      100.01335642277016      106.58874435368138
C          111.41737515357899      100.46587728786831      105.42422790537393
C          112.01979128132524      101.54672462411155      104.52734334034527
C          112.39156231694663      102.84350012269383      105.24184878517694
C          112.82839704237654      103.91934154269941      104.24521275965232
C          113.51156922189760      105.10399600626590      104.92566984478795
C          114.23139058266317      106.04154193729789      103.95485837272992
C          113.30017455179765      106.93919735197645      103.14478376333497
C          114.07856201859781      107.77666034576895      102.13084515529020
C          113.20336006781672      108.81731274142174      101.43266861082732
C          113.81589407487388      109.36543134029843      100.14278959207851
C          115.21258617187674      109.95398669298723      100.32727383751303
C          115.71793409416333      110.62699312455943       99.05039320554111
C          117.23049629315787      110.85049722329026       99.04122114611256
C          117.72349732978152      111.73741876558813      100.18185634100166
C          119.22574707712192      112.02083762715607      100.10066033088390
C          119.57180417318359      113.11190119579298       99.08888373451364
C          121.06982130082800      113.23732135052532       98.80979117888424
C          121.89207330693409      113.59393239633184      100.04533312534321
C          123.36181615227066      113.82432166262574       99.70088260061107
C          124.23593670995278      114.10979865796840      100.92388547138012
C          124.40763636982918      112.89602591622510      101.83371821532739
C          125.31216581861037      113.18556066099511      103.02916889590530
C          125.45953574906834      111.96072955756324      103.92892424351544
C          126.37775215921471      112.21816388612100      105.12178046701443
C          126.43634077512908      111.03751362983789      106.09204710989121
C          127.16580143400039      109.81645311410185      105.53563919096474
C          127.05740541608964      108.62312594066769      106.48169016209158
C          127.69278863298685      107.35747973332961      105.91028425493414
C          127.41792063324704      106.14631080753078      106.79785190189307
C          127.87497532784687      104.83123155731428      106.17284789816858
C          127.41201238545266      103.63313117105537      106.99873345129863
C          127.70978039376067      102.30479574360916      106.30795617225637
C          127.22669720725993      101.08799728739638      107.09951466484965
C          125.70833713190075      101.04556455313633      107.26332048081260
C          125.22871545739011       99.71840635868124      107.84858469383011
C          123.73942919376866       99.72912780712360      108.19378214062560
C          122.82283970322622       99.75495694792643      106.97274732198250
C          121.36243256486736       99.95700639714094      107.37053074772271
C          120.43376468101076       99.98354455512040      106.15718749124693
C          119.07285550635164      100.61188166181898      106.45262436826690
C          118.23601089548838       99.84795171403606      107.47504542657747
C          116.86503586346591      100.50016088957423      107.64158820797324
C          115.95210279205301       99.77714610438647      108.63114170113333
C          116.32128700538242      100.04172256574978      110.08838634384104
C          115.49195017991167       99.19460492432350      111.05106004802740
C          115.75580136735920       99.50946782768131      112.52304383068926
C          117.19968710503548       99.24934511396715      112.94480468779092
C          117.41685261024388       99.50564203252117      114.43367948755852
C          118.89530961171116       99.62061903477179      114.79193404255631
C          119.10946784844981      100.02547098718365      116.25028364957531
C          120.50547454333559      100.59808168901706      116.50398532994571
C          120.65597831036818      102.01595008949901      115.95569535176786
C          122.05051157352783      102.58997721155079      116.19321308167410
C          122.29473667124584      103.89201006315852      115.42930992682960
C          121.42762754205349      105.05264123176092      115.91094251736692
C          121.74661452918404      106.37033280477161      115.20309604971466
C          121.29845625170877      106.40026972131353      113.74320757907770
C          121.61897502296807      107.74186922491694      113.09082024355936
C          121.19947836686775      107.83190875237791      111.62410215819759
C          119.68927829104959      107.88855141936008      111.42467749340317
C          119.30875096479006      108.04113333786395      109.95489538882653
C          117.79384201827271      108.08752247711014      109.78071871076760
C          117.34113345938418      108.27524576314738      108.33445413750410
C          117.76787074075898      107.16966531465940      107.36755541568905
C          117.40530826325563      105.74799070108386      107.79178759254252
C          115.91839217912812      105.55090805548720      108.06880867907255
C          115.59052415923628      104.07525482852706      108.27434456971504
C          114.13942151434658      103.80778490433367      108.66994574944925
C          113.78076494824546      104.42260583151651      110.01950915914702
C          112.45107303814927      103.92752778624273      110.58235253384450
C          112.48775548090309      102.45968720184186      111.00211907296691
C          111.34055914984876      102.09627435541367      111.93976982220246
C          111.40196743193601      100.62876667057996      112.35096918029484
C          110.44474191026013      100.29544175088677      113.49004221277612
C          110.57166821517379       98.83709157289759      113.91513898066010
C          109.76343268950806       98.51588486683369      115.16569828670841
C          109.91952722168831       97.05266142919358      115.55943370875416
C          109.18577409747101       96.68012453965585      116.84463833695762
C          107.67416638541047       96.56782288931554      116.67105972192775
C          107.00160145187995       96.07209608700559      117.94852499964210
C          105.52547145200343       95.75219338066148      117.73210604707036
C          104.83181984252167       95.18676305211768      118.97312296952650
C          105.48040392784704       93.92728257535505      119.55477501871808
C          105.63672378170868       92.79246386188932      118.54501117655246
C          106.23813785716447       91.54100757402405      119.18031229362830
C          106.48267819237992       90.44626656557386      118.14845337695303
H          107.18527075303739       91.80154963085820      119.65947670496512
H          105.56726008434984       91.16768881359495      119.95793498596025
H          104.66148231922546       92.54998844115775      118.11541118794301
H          106.28780842294105       93.11170619571870      117.72964588219223
H          106.45981210365393       94.17684221214013      119.96816079207125
H          104.86274540803427       93.57736456542270      120.38660163291135
H          104.81573676229520       95.95383952555686      119.75173357889466
H          103.79392620412176       94.96165449119856      118.71323126163817
H          105.00326849119662       96.66365815233783      117.43003502782106
H          105.43035052583760       95.04011811917773      116.90927952955938
H          107.52195476575864       95.17296705557719      118.28367101569827
H          107.10082961354581       96.82281970269224      118.73683453771693
H          107.24981578792602       97.53088477029071      116.38204652790819
H          107.46647920789914       95.86082229071245      115.86358782321409
H          109.56011315649407       95.71335396401766      117.18808344935191
H          109.41656591702765       97.41616289262895      117.61895777472560
H          109.56315992495173       96.41865352022062      114.74293317691476
H          110.98382515605938       96.84606167464446      115.69454718043529
H          110.10874108571250       99.14436514540139      115.98929395639269
H          108.71302947535854       98.74416190584108      114.98723866215549
H          110.24380615177355       98.18949384182621      113.09946663417965
H          111.62395091454904       98.61277389451062      114.10646968482598
H          110.66960770493441      100.93961482154670      114.34425771929764
H          109.41676259035081      100.49800233979475      113.18010737413701
H          111.17318965295335       99.99908946993091      111.48708448754390
H          112.42201286859544      100.39323098391675      112.66884795280764
H          111.39866920570016      102.72068024904527      112.83513288543575
H          110.38399339378400      102.30538484041132      111.45521767699057
H          112.44779881388148      101.81552972243844      110.12093181171014
H          113.43262743819105      102.25658309293836      111.51367478027103
H          112.20321345643124      104.53427459495100      111.45819860216152
H          111.66377774078683      104.08102749404024      109.84147790486882
H          114.57318158615844      104.19761572511132      110.73669860914589
H          113.72588915980661      105.50735687932061      109.91455284689818
H          113.46773074413804      104.20042015628395      107.90404991140002
H          113.99728912009179      102.72597343938165      108.71556126700307
H          115.81209745967226      103.53284908943873      107.35037326004087
H          116.24607972408606      103.67581306118512      109.05393537877789
H          115.64467657444638      106.10938856255896      108.96334323185127
H          115.33309098550525      105.94321341007159      107.23419681902257
H          117.71274117026070      105.06782856534221      106.99147087900204
H          117.97190742337031      105.46971246779313      108.68280341935497
H          117.29736689003141      107.37074991857176      106.40123443992914
H          118.84779672834605      107.21972282578983      107.21692127078317
H          116.25343983395321      108.35622065085182      108.32311197660086
H          117.74213818909372      109.22114678027638      107.95865405695010
H          117.35920594126506      107.17146792146809      110.18560635046184
H          117.39892009463411      108.91944687733189      110.37212735161317
H          119.75080302951612      108.95813281143835      109.55587936046433
H          119.72462838001555      107.20347727376286      109.39206217920871
H          119.23171909469590      106.97859799890215      111.81747429422158
H          119.28439820960561      108.73129933275237      111.99074531655427
H          121.64363327951502      108.73281525291139      111.19156866163584
H          121.59842966218653      106.97366612606402      111.07695101605964
H          121.13558050634551      108.54343744146082      113.65446047926396
H          122.69786065746983      107.90275970686415      113.15494106862973
H          121.80123745247460      105.60715734315038      113.18598617974028
H          120.22460093485914      106.21069027820982      113.69708618218074
H          121.24823274869631      107.18677373757779      115.73407846328840
H          122.82305470871846      106.55591820582437      115.25614044424317
H          120.37304261088497      104.81523592574356      115.75725775678234
H          121.58732619291956      105.17974451546917      116.98444285849639
H          123.34629088353643      104.17181732561070      115.53677404735694
H          122.11223370823808      103.71140753767256      114.36873536138754
H          122.20162258532596      102.75836592855684      117.26261124145522
H          122.79203486531871      101.85517645037501      115.86753089788176
H          120.45891747255932      102.01855262759524      114.88205802099765
H          119.90921920316711      102.65406280090639      116.43125924519791
H          120.69674752918013      100.61654618641099      117.57967908918918
H          121.25410235090034       99.94493269371183      116.04828206006286
H          118.36763082250781      100.77890410075157      116.52719039028020
H          118.94548337265738       99.15755883710608      116.89336878743750
H          119.40355826571570       98.67435110933023      114.59281891882620
H          119.34574371065509      100.37380461713309      114.14250585498311
H          116.92272586714820      100.44314314815907      114.70336854685864
H          116.95249631158130       98.70924426300242      115.01924485374805
H          117.47455774370574       98.21972920688845      112.70472789638303
H          117.85934351038537       99.91099456922045      112.37994441990335
H          115.51295849180194      100.55742096147011      112.71741947092856
H          115.09134935365888       98.89881140260283      113.13984964509754
H          114.43186720794034       99.35796387892108      110.84172716098992
H          115.70223228529002       98.13662357512621      110.87219451859546
H          117.38111977378146       99.82862629306400      110.23126259735669
H          116.15958535182081      101.09952192950745      110.31057373399329
H          114.92266718069787      100.10355540130818      108.46689591571318
H          115.99402330469771       98.70254602170580      108.43353972442470
H          116.99836211769937      101.53368660438450      107.96663817479579
H          116.37648585806390      100.52630557727591      106.66382650588282
H          118.10969775180263       98.81430125450363      107.14274913681642
H          118.75676247526357       99.82682577016476      108.43298318140732
H          119.22547123876475      101.63409174483465      106.80934250816411
H          118.50867460965026      100.67397218472972      105.51907437509746
H          120.91155327907487      100.56542799028028      105.36364756563962
H          120.29583952910151       98.96783724028005      105.77781262539114
H          121.05825482664757       99.16148720203398      108.05407473673181
H          121.27575240216329      100.90497093931735      107.90504870662953
H          123.11816531679492      100.57098086299554      106.31066051697033
H          122.92986998619239       98.82081303063497      106.41542874929044
H          123.50629280364291       98.84474080217907      108.79240099780385
H          123.53385898527522      100.60623043548466      108.81117845919094
H          125.43710751867894       98.90900838320312      107.14460522390578
H          125.79623366227216       99.51527336602550      108.76072785861687
H          125.38954039671067      101.85222295671163      107.92588685044323
H          125.24525080712910      101.20675566986050      106.28796962756319
H          127.55027523677167      100.18341213004884      106.57765660131977
H          127.69871680192807      101.08468165413676      108.08513519346339
H          127.23388929191783      102.30034546455552      105.32361842068789
H          128.78805303379954      102.21960446745352      106.15001468492765
H          127.89646759885089      103.65231708520628      107.97783511758531
H          126.33688487837105      103.72363091522608      107.16015922920745
H          127.45496493487616      104.75095696181111      105.16736942294490
H          128.96322127167468      104.82053732907764      106.07737458615343
H          127.90610181102791      106.28199315804702      107.76541886606960
H          126.34294525149335      106.08554135987281      106.98147693615354
H          127.28209063311841      107.17020191196988      104.91481140638550
H          128.77000721746637      107.50077683183490      105.79877276912674
H          127.52586811572738      108.86769058686427      107.43794547589215
H          126.00001603425707      108.42709286970855      106.67831647936491
H          126.73409624297744      109.53878782849890      104.57240738403902
H          128.21721326580899      110.06145077288289      105.36727970878141
H          126.93528756252864      111.35526495097446      107.01161303927164
H          125.41567156695305      110.74926430082751      106.35468831447238
H          127.38485489491977      112.44864888918464      104.76554734614466
H          126.01104804776926      113.09517165880054      105.66162063032537
H          124.47389428529098      111.66343176539608      104.29494599436951
H          125.85327232943996      111.13481755297997      103.33368911884217
H          126.29805797916234      113.49745849354299      102.67454828074618
H          124.89424692522365      114.01502586450637      103.60534045522516
H          123.43389953636544      112.57110660728441      102.20340533322550
H          124.83254599567765      112.07327401415446      101.25242595124193
H          125.22305500525908      114.43467228711071      100.58319032725619
H          123.80275098067978      114.93183558985278      101.49797813486565
H          123.75216778820268      112.94502237891028       99.18087710237894
H          123.43386559978892      114.66889563713546       99.00958283143036
H          121.48428276198726      114.49907788580835      100.50113944607412
H          121.81399720155939      112.78437333864882      100.77016152608034
H          121.44142362544774      112.29604777661562       98.39589272133051
H          121.22013124225893      114.00862593583591       98.04839705683865
H          119.06833138382424      112.90233595859625       98.14245152489055
H          119.19535474885812      114.06829649251657       99.45571368406094
H          119.57928888193371      112.32884081308552      101.08680705594524
H          119.74920488810393      111.09988954960825       99.83494917601325
H          117.17571691222281      112.68187877807415      100.17452960143085
H          117.51250288788017      111.23730926134962      101.12869499786184
H          117.73318879998556      109.88113214087039       99.10196575909039
H          117.50906622524644      111.29833481938870       98.08365849761363
H          115.46298628831056      109.99472661764408       98.19405888032949
H          115.20650326458434      111.58363339598947       98.91229106451649
H          115.19021192960815      110.67975888370296      101.14242181980002
H          115.90371271286674      109.15543585048110      100.60272464044560
H          113.86714213730114      108.56062520570275       99.40335832886694
H          113.15146751637560      110.13495460369403       99.73891460199403
H          112.24174672121833      108.36130275511495      101.18132477650548
H          113.00326399770884      109.64361355974913      102.11980828867917
H          114.90420634047410      108.27867499596768      102.64026252365537
H          114.51021188458581      107.10942958043734      101.38264843179114
H          112.56771196181114      106.32861953998754      102.61530444987758
H          112.75761994688368      107.59801261182204      103.82683355955065
H          114.91611334808756      106.67771507569282      104.52288443953944
H          114.84025211617590      105.44259677019427      103.27162651830143
H          112.78248188688052      105.67234498777692      105.50885407480855
H          114.25333559964096      104.70471389105542      105.62041344640572
H          113.53289774783771      103.47403362065162      103.53940200666267
H          111.96362750164522      104.25807590629140      103.67068684353343
H          111.54097295305348      103.20204226923235      105.82549389685963
H          113.21223378569761      102.64572258037039      105.93393268644778
H          112.91403545326364      101.14918559477731      104.04379375877723
H          111.29545378251066      101.77318699943208      103.74048205334897
H          111.19720565654356       99.59488427820523      104.80059982640583
H          110.46870716359534      100.82331143188996      105.83051687528740
H          112.38185043232015      100.82216657643291      107.31764976971473
H          113.29996575124186       99.77863539942055      106.22809787559203
H          111.76363980750800       97.93104633667224      106.58279152464553
H          110.62731190877606       98.96327748730934      107.44186182835718
H          112.27788905209351       99.27625547657597      109.27202532043826
H          113.41873069884647       98.23177987172788      108.42625559930430
H          111.87147257782924       96.32861632507283      108.60256907049160
H          110.64171525017626       97.35740499265279      109.33492000090958
H          112.06459461549566       97.73671870756013      111.30201165209905
H          113.38851747689857       96.85071185300043      110.55101733646109
H          112.07814324800054       94.77473024843471      110.58084750233785
H          110.66745344655638       95.63978424812795      111.18974983612259
H          111.76821340674100       94.41293820876740      112.99153912521287
H          111.82506601564204       96.14986601707260      113.28938481545066
H          114.16575685841919       96.26304507689153      112.70439485041955
H          114.12729768196571       94.65783388865212      111.98307416230345
H          115.27188021456600       94.60123562376340      114.13132648391111
H          113.81739134177688       93.60705707748856      114.15735142256004
H          114.05340060366176       94.79325074655827      116.24764930225832
H          112.60708613328819       95.34098770223446      115.41025587688600
H          113.73658709369550       97.39861276120806      114.70631902737087
H          115.27263858547187       96.82179788764078      115.35328739177382
H          114.32765759441041       96.78701176308391      117.62970802760978
H          112.77358877889847       97.35796144841318      117.02672169451212
H          115.35956374400102       98.92913793499928      116.68616706168325
H          114.30172896274766       99.10488941058449      118.08625557056588
H          112.48672877154399       99.93304872478622      116.74589441593676
H          113.29378647299849       99.47916071840392      115.24756225462399
H          113.45152296456466      101.85524240552525      115.50368510627047
H          115.05591239914280      101.13974852370106      115.63070608388793
H          114.95203128333534      101.36153525297641      118.11490650851820
H          113.34282009456787      102.07222526333388      117.97497835226604
H          114.31712248803262      103.90959960067165      116.56747957384482
H          115.91434487210135      103.19454163651825      116.77502777874658
H          115.71538755203123      103.50987817815303      119.24708867585309
H          114.14857234520903      104.28451410030581      119.00890652680575
H          115.24126411016017      106.01824348615251      117.57735986629343
H          116.80440641827546      105.25564240854857      117.86235599530936
H          116.59445328011824      105.70439699681704      120.29562529557639
H          115.01693235833100      106.43844258233138      120.03401842251905
H          116.04090240980990      108.18492329321572      118.60500119790814
H          117.61714774057546      107.41569493520035      118.77538382612433
H          117.57917664221928      107.84464680222601      121.21646968930196
H          115.99387968999227      108.59469192017895      121.07744805761496
H          116.91067729932109      110.37445410591047      119.65236827524021
H          118.47249149292054      109.56103817202838      119.59056448653602
H          118.74527073834346      109.87626831771715      122.03804941079251
H          117.20326099115168      110.72412172967537      122.11106695956400
H          118.05257784229876      112.49068693963022      120.63168959873700
H          119.53711180538831      111.57576966326067      120.35037248290656
H          120.17105239964819      111.82022950072314      122.72429498538349
H          118.67104520912490      112.68681185116664      123.05068088626331
H          120.43726462066692      114.30996264939780      122.83247961315303
H          119.36888504696719      114.46909652041211      121.44124586061388
H          120.97080319830351      113.16827270000485      120.05701785634886
H          122.04006268553823      113.00150496674824      121.44964145181669
H          122.38397287871551      115.43768576425855      121.50902861614361
H          121.17577244789912      115.66681795159219      120.24564734487863
H          122.55747921234783      114.37207676046295      118.65548675580256
H          123.77699871370963      114.11296614559591      119.90043708295708
H          124.17383363813678      116.55314936307798      120.03674912387434
H          122.92286485959592      116.83877463595769      118.82708208494478
H          124.19105522092777      115.50037649859908      117.17455158479507
H          125.46481548156069      115.21687724923524      118.35915225080524
H          124.62482491532796      117.99133747785218      117.42114049095282
H          125.90843246712762      117.05319949799700      116.65798550904984
H          125.90113054802625      117.98606527533923      119.56622315155316
H          127.16002904644044      117.00659272406901      118.81445513100876
H          126.87095800724899      118.65472644368062      118.25577022930293
H          107.17599413058461       90.79333811623711      117.38504658304605
H          106.90517565208550       89.56149968286744      118.61920889625803
H          105.55106468458064       90.16463764449027      117.66195391687759
C           91.53688435960709      120.38055755168101      115.06210576857823
C           93.05671632847297      120.45500346408446      115.13791204656707
C           93.54170199983389      120.90549379289854      116.51412397370511
C           95.06483862172506      120.96389035963324      116.59086846661938
C           95.56835606355136      121.40130528690602      117.96420852077981
C           97.09361130118813      121.41679186946322      118.02613273401209
C           97.62273313083868      121.87357147206021      119.38384372274326
C           99.14876984015449      121.91417527324785      119.41453257718180
C           99.69331218487747      122.40866106172372      120.75229773663504
C          101.20921451164097      122.61251531453738      120.74283853880787
C          102.01077667125551      121.31346491724041      120.68415112329883
C          103.50862180400820      121.59493904692420      120.59092436028227
C          104.36883244686231      120.33948300170530      120.71632279009368
C          105.85130555340587      120.67344526666139      120.56486985966008
C          106.77337595180119      119.52115202195762      120.95284618238685
C          108.24072707545805      119.91334007438772      120.79733581127945
C          109.20452584040460      118.86535794623752      121.34648072432536
C          110.65305679295751      119.34147753242380      121.26712356291834
C          111.62630969399734      118.33019587645295      121.86551616738595
C          113.08993255318195      118.75643331701275      121.74873242619826
C          113.46433758611347      119.88375414648660      122.70867551825235