      -----------------------------------------------------------      
     |                   =====================                   |     
     |                           x T B                           |     
     |                   =====================                   |     
     |                         S. Grimme                         |     
     |          Mulliken Center for Theoretical Chemistry        |     
     |                    University of Bonn                     |     
      -----------------------------------------------------------      

   * xtb version 6.6.1 (8d0f1dd) compiled by 'stahn@M-Bot' on 2023-08-01

   xtb is free software: you can redistribute it and/or modify it under
   the terms of the GNU Lesser General Public License as published by
   the Free Software Foundation, either version 3 of the License, or
   (at your option) any later version.
   
   xtb is distributed in the hope that it will be useful,
   but WITHOUT ANY WARRANTY; without even the implied warranty of
   MERCHANTABILITY or FITNESS FOR A PARTICULAR PURPOSE.  See the
   GNU Lesser General Public License for more details.
   
   Cite this work as:
   * C. Bannwarth, E. Caldeweyher, S. Ehlert, A. Hansen, P. Pracht,
     J. Seibert, S. Spicher, S. Grimme, WIREs Comput. Mol. Sci., 2020, 11,
     e01493. DOI: 10.1002/wcms.1493
   
   for GFN2-xTB:
   * C. Bannwarth, S. Ehlert and S. Grimme., J. Chem. Theory Comput., 2019,
     15, 1652-1671. DOI: 10.1021/acs.jctc.8b01176
   for GFN1-xTB:
   * S. Grimme, C. Bannwarth, P. Shushkov, J. Chem. Theory Comput., 2017,
     13, 1989-2009. DOI: 10.1021/acs.jctc.7b00118
   for GFN0-xTB:
   * P. Pracht, E. Caldeweyher, S. Ehlert, S. Grimme, ChemRxiv, 2019, preprint.
     DOI: 10.26434/chemrxiv.8326202.v1
   for GFN-FF:
   * S. Spicher and S. Grimme, Angew. Chem. Int. Ed., 2020, 59, 15665-15673.
     DOI: 10.1002/anie.202004239
   
   for ALPB and GBSA implicit solvation:
   * S. Ehlert, M. Stahn, S. Spicher, S. Grimme, J. Chem. Theory Comput.,
     2021, 17, 4250-4261. DOI: 10.1021/acs.jctc.1c00471
   
   for DFT-D4:
   * E. Caldeweyher, C. Bannwarth and S. Grimme, J. Chem. Phys., 2017,
     147, 034112. DOI: 10.1063/1.4993215
   * E. Caldeweyher, S. Ehlert, A. Hansen, H. Neugebauer, S. Spicher,
     C. Bannwarth and S. Grimme, J. Chem. Phys., 2019, 150, 154122.
     DOI: 10.1063/1.5090222
   * E. Caldeweyher, J.-M. Mewes, S. Ehlert and S. Grimme, Phys. Chem. Chem. Phys.
     2020, 22, 8499-8512. DOI: 10.1039/D0CP00502A
   
   for sTDA-xTB:
   * S. Grimme and C. Bannwarth, J. Chem. Phys., 2016, 145, 054103.
     DOI: 10.1063/1.4959605
   
   in the mass-spec context:
   * V. Asgeirsson, C. Bauer and S. Grimme, Chem. Sci., 2017, 8, 4879.
     DOI: 10.1039/c7sc00601b
   * J. Koopman and S. Grimme, ACS Omega 2019, 4, 12, 15120-15133.
     DOI: 10.1021/acsomega.9b02011
   
   for metadynamics refer to:
   * S. Grimme, J. Chem. Theory Comput., 2019, 155, 2847-2862
     DOI: 10.1021/acs.jctc.9b00143
   
   for SPH calculations refer to:
   * S. Spicher and S. Grimme, J. Chem. Theory Comput., 2021, 17, 1701-1714
     DOI: 10.1021/acs.jctc.0c01306
   
   with help from (in alphabetical order)
   P. Atkinson, C. Bannwarth, F. Bohle, G. Brandenburg, E. Caldeweyher
   M. Checinski, S. Dohm, S. Ehlert, S. Ehrlich, I. Gerasimov, C. Hölzer
   A. Katbashev, J. Koopman, C. Lavigne, S. Lehtola, F. März, M. Müller,
   F. Musil, H. Neugebauer, J. Pisarek, C. Plett, P. Pracht, F. Pultar,
   J. Seibert, P. Shushkov, S. Spicher, M. Stahn, M. Steiner, T. Strunk,
   J. Stückrath, T. Rose, and J. Unsleber
   
 * started run on 2024/10/04 at 03:01:17.875     

           -------------------------------------------------
          |                Calculation Setup                |
           -------------------------------------------------

          program call               : /home/abt-grimme/AK-bin/xtb input.xyz --input input.inp --opt
          hostname                   : boar062.thch.uni-bonn.de
          coordinate file            : input.xyz
          omp threads                :                     8

   ID    Z sym.   atoms
    1    6 C      1-120, 363-482, 725-844, 1087-1206, 1449-1568, 1811-1930,
                  2173-2292, 2535-2654, 2897-3016
    2    1 H      121-362, 483-724, 845-1086, 1207-1448, 1569-1810,
                  1931-2172, 2293-2534, 2655-2896, 3017-3258

molecular fragmentation (1/2 indicates fragments):
111111111111111111111111111111111111111111111111111111111111111111111111
111111111111111111111111111111111111111111111111111111111111111111111111
111111111111111111111111111111111111111111111111111111111111111111111111
111111111111111111111111111111111111111111111111111111111111111111111111
111111111111111111111111111111111111111111111111111111111111111111111111
112222222222222222222222222222222222222222222222222222222222222222222222
222222222222222222222222222222222222222222222222222222222222222222222222
222222222222222222222222222222222222222222222222222222222222222222222222
222222222222222222222222222222222222222222222222222222222222222222222222
222222222222222222222222222222222222222222222222222222222222222222222222
222222222222222222222222222222222222222222222222222222222222222222222222
222222222222222222222222222222222222222222222222222222222222222222222222
222222222222222222222222222222222222222222222222222222222222222222222222
222222222222222222222222222222222222222222222222222222222222222222222222
222222222222222222222222222222222222222222222222222222222222222222222222
222222222222222222222222222222222222222222222222222222222222222222222222
222222222222222222222222222222222222222222222222222222222222222222222222
222222222222222222222222222222222222222222222222222222222222222222222222
222222222222222222222222222222222222222222222222222222222222222222222222
222222222222222222222222222222222222222222222222222222222222222222222222
222222222222222222222222222222222222222222222222222222222222222222222222
222222222222222222222222222222222222222222222222222222222222222222222222
222222222222222222222222222222222222222222222222222222222222222222222222
222222222222222222222222222222222222222222222222222222222222222222222222
222222222222222222222222222222222222222222222222222222222222222222222222
222222222222222222222222222222222222222222222222222222222222222222222222
222222222222222222222222222222222222222222222222222222222222222222222222
222222222222222222222222222222222222222222222222222222222222222222222222
222222222222222222222222222222222222222222222222222222222222222222222222
222222222222222222222222222222222222222222222222222222222222222222222222
222222222222222222222222222222222222222222222222222222222222222222222222
222222222222222222222222222222222222222222222222222222222222222222222222
222222222222222222222222222222222222222222222222222222222222222222222222
222222222222222222222222222222222222222222222222222222222222222222222222
222222222222222222222222222222222222222222222222222222222222222222222222
222222222222222222222222222222222222222222222222222222222222222222222222
222222222222222222222222222222222222222222222222222222222222222222222222
222222222222222222222222222222222222222222222222222222222222222222222222
222222222222222222222222222222222222222222222222222222222222222222222222
222222222222222222222222222222222222222222222222222222222222222222222222
222222222222222222222222222222222222222222222222222222222222222222222222
222222222222222222222222222222222222222222222222222222222222222222222222
222222222222222222222222222222222222222222222222222222222222222222222222
222222222222222222222222222222222222222222222222222222222222222222222222
222222222222222222222222222222222222222222222222222222222222222222222222
222222222222222222
# atoms in fragment 1/2:   362  2896
 fragment masses (1/2) :     1685.21    13481.68
CMA distance (Bohr)    :  21.863
constraining FC (au)   :  0.0500

           -------------------------------------------------
          |                 G F N 2 - x T B                 |
           -------------------------------------------------

        Reference                      10.1021/acs.jctc.8b01176
      * Hamiltonian:
        H0-scaling (s, p, d)           1.850000    2.230000    2.230000
        zeta-weighting                 0.500000
      * Dispersion:
        s8                             2.700000
        a1                             0.520000
        a2                             5.000000
        s9                             5.000000
      * Repulsion:
        kExp                           1.500000    1.000000
        rExp                           1.000000
      * Coulomb:
        alpha                          2.000000
        third order                    shell-resolved
        anisotropic                    true
        a3                             3.000000
        a5                             4.000000
        cn-shift                       1.200000
        cn-exp                         4.000000
        max-rad                        5.000000


          ...................................................
          :                      SETUP                      :
          :.................................................:
          :  # basis functions                6498          :
          :  # atomic orbitals                6498          :
          :  # shells                         4338          :
          :  # electrons                      6498          :
          :  max. iterations                   250          :
          :  Hamiltonian                  GFN2-xTB          :
          :  restarted?                      false          :
          :  GBSA solvation                  false          :
          :  PC potential                    false          :
          :  electronic temp.          300.0000000     K    :
          :  accuracy                    1.0000000          :
          :  -> integral cutoff          0.2500000E+02      :
          :  -> integral neglect         0.1000000E-07      :
          :  -> SCF convergence          0.1000000E-05 Eh   :
          :  -> wf. convergence          0.1000000E-03 e    :
          :  Broyden damping             0.4000000          :
          ...................................................

 iter      E             dE          RMSdq      gap      omega  full diag
   1  -3473.3002364 -0.347330E+04  0.245E+00   11.46       0.0  T
   2  -3478.4318089 -0.513157E+01  0.136E+00   11.47       1.0  T
   3  -3478.6334246 -0.201616E+00  0.601E-01   11.38       1.0  T
   4  -3478.6539759 -0.205513E-01  0.757E-02   11.41       1.0  T
   5  -3478.6548468 -0.870843E-03  0.388E-02   11.40       1.0  T
   6  -3478.6550524 -0.205625E-03  0.639E-03   11.40       1.0  T
   7  -3478.6550687 -0.162794E-04  0.125E-03   11.40       1.4  T
   8  -3478.6550697 -0.103255E-05  0.386E-04   11.40       4.5  T
   9  -3478.6550698 -0.615210E-07  0.141E-04   11.40      12.4  T
  10  -3478.6550698 -0.372938E-08  0.408E-05   11.40      43.0  T

   *** convergence criteria satisfied after 10 iterations ***

         #    Occupation            Energy/Eh            Energy/eV
      -------------------------------------------------------------
         1        2.0000           -0.6251237             -17.0105
       ...           ...                  ...                  ...
      3243        2.0000           -0.4025477             -10.9539
      3244        2.0000           -0.4023976             -10.9498
      3245        2.0000           -0.4022200             -10.9450
      3246        2.0000           -0.4020898             -10.9414
      3247        2.0000           -0.4019634             -10.9380
      3248        2.0000           -0.4004559             -10.8970
      3249        2.0000           -0.3985978             -10.8464 (HOMO)
      3250                          0.0204200               0.5557 (LUMO)
      3251                          0.0235111               0.6398
      3252                          0.0250431               0.6815
      3253                          0.0271679               0.7393
      3254                          0.0276382               0.7521
       ...                                ...                  ...
      6498                          0.3835065              10.4357
      -------------------------------------------------------------
                  HL-Gap            0.4190178 Eh           11.4021 eV
             Fermi-level           -0.1890889 Eh           -5.1454 eV

 SCC (total)                   0 d,  0 h, 14 min, 13.763 sec
 SCC setup                      ...        0 min,  0.427 sec (  0.050%)
 Dispersion                     ...        0 min,  3.587 sec (  0.420%)
 classical contributions        ...        0 min,  0.185 sec (  0.022%)
 integral evaluation            ...        0 min,  6.313 sec (  0.739%)
 iterations                     ...       10 min, 32.904 sec ( 74.131%)
 molecular gradient             ...        3 min, 21.770 sec ( 23.633%)
 printout                       ...        0 min,  8.576 sec (  1.004%)

         :::::::::::::::::::::::::::::::::::::::::::::::::::::
         ::                     SUMMARY                     ::
         :::::::::::::::::::::::::::::::::::::::::::::::::::::
         :: total energy           -3427.427345658192 Eh    ::
         :: gradient norm              0.018195420351 Eh/a0 ::
         :: HOMO-LUMO gap             11.402055622751 eV    ::
         ::.................................................::
         :: SCC energy             -3478.655069782811 Eh    ::
         :: -> isotropic ES            0.423976773317 Eh    ::
         :: -> anisotropic ES          1.110519190069 Eh    ::
         :: -> anisotropic XC          1.947020500013 Eh    ::
         :: -> dispersion             -3.998501392503 Eh    ::
         :: repulsion energy          50.597481729042 Eh    ::
         :: add. restraining           0.000000000000 Eh    ::
         :: total charge              -0.000000000015 e     ::
         :::::::::::::::::::::::::::::::::::::::::::::::::::::

      ----------------------------------------------------------- 
     |              Fast Inertial Relaxation Engine              |
      ----------------------------------------------------------- 

          ...................................................
          :                      SETUP                      :
          :.................................................:
          :   energy convergence        0.5000000E-05 Eh    :
          :   grad. convergence         0.1000000E-02 Eh/a0 :
          :   optimization log               true           :
          :   writing optlog all                1     steps :
          :   Hessian reset                    20     steps :
          :   time step scaling                 5     steps :
          :   maximium step len.        1.0000000     a0    :
          :   initial time step         0.2500000     fs    :
          :   maximum time step         1.2500000     fs    :
          :   power reset thr           0.0000000     au    :
          :   alpha parameter           0.1000000           :
          :   BFGS update                   false           :
          :   preconditioning               false           :
          ...................................................

........................................................................
.............................. CYCLE    1 ..............................
........................................................................

 iter      E             dE          RMSdq      gap      omega  full diag
   1  -3478.6586159 -0.347866E+04  0.261E-04   11.40       0.0  T
   2  -3478.6586159 -0.277487E-07  0.149E-04   11.40      11.8  T
   3  -3478.6586159 -0.607088E-09  0.484E-05   11.40      36.2  T
     SCC iter.                  ...        3 min,  3.377 sec
     gradient                   ...        3 min, 21.762 sec
 * total energy  : -3427.4273829 Eh     change    :  -0.3725076E-04 Eh
   gradient norm :     0.0167468 Eh/a0  converged?    E=F G=F D=F
   time step     :     0.2500000 fs     power     :   0.1895025E-08
   step length   :     0.0021325 a0     speed     :   0.2063274E-03

........................................................................
.............................. CYCLE    2 ..............................
........................................................................

 iter      E             dE          RMSdq      gap      omega  full diag
   1  -3478.6637772 -0.347866E+04  0.377E-04   11.40       0.0  T
   2  -3478.6637773 -0.580767E-07  0.215E-04   11.40       8.1  T
   3  -3478.6637773 -0.120281E-08  0.701E-05   11.40      25.0  T
     SCC iter.                  ...        3 min,  1.859 sec
     gradient                   ...        3 min, 21.819 sec
 * total energy  : -3427.4274318 Eh     change    :  -0.4886601E-04 Eh
   gradient norm :     0.0146636 Eh/a0  converged?    E=F G=F D=F
   time step     :     0.2500000 fs     power     :   0.2419779E-08
   step length   :     0.0031136 a0     speed     :   0.3012591E-03

........................................................................
.............................. CYCLE    3 ..............................
........................................................................

 iter      E             dE          RMSdq      gap      omega  full diag
   1  -3478.6703271 -0.347867E+04  0.480E-04   11.40       0.0  T
   2  -3478.6703272 -0.935256E-07  0.274E-04   11.40       6.4  T
   3  -3478.6703272 -0.197724E-08  0.888E-05   11.40      19.7  T
     SCC iter.                  ...        3 min,  3.536 sec
     gradient                   ...        3 min, 20.771 sec
 * total energy  : -3427.4274847 Eh     change    :  -0.5296128E-04 Eh
   gradient norm :     0.0120652 Eh/a0  converged?    E=F G=F D=F
   time step     :     0.2500000 fs     power     :   0.2528544E-08
   step length   :     0.0039717 a0     speed     :   0.3842797E-03

........................................................................
.............................. CYCLE    4 ..............................
........................................................................

 iter      E             dE          RMSdq      gap      omega  full diag
   1  -3478.6779717 -0.347868E+04  0.564E-04   11.40       0.0  T
   2  -3478.6779718 -0.126909E-06  0.322E-04   11.40       5.4  T
   3  -3478.6779718 -0.275213E-08  0.103E-04   11.40      17.0  T
     SCC iter.                  ...        3 min,  3.948 sec
     gradient                   ...        3 min, 20.066 sec
 * total energy  : -3427.4275338 Eh     change    :  -0.4901531E-04 Eh
   gradient norm :     0.0091422 Eh/a0  converged?    E=F G=F D=F
   time step     :     0.2500000 fs     power     :   0.2218047E-08
   step length   :     0.0046737 a0     speed     :   0.4522082E-03

........................................................................
.............................. CYCLE    5 ..............................
........................................................................

 iter      E             dE          RMSdq      gap      omega  full diag
   1  -3478.6863473 -0.347869E+04  0.623E-04   11.40       0.0  T
   2  -3478.6863475 -0.151523E-06  0.356E-04   11.40       4.9  T
   3  -3478.6863475 -0.339014E-08  0.112E-04   11.40      15.6  T
     SCC iter.                  ...        3 min,  0.047 sec
     gradient                   ...        3 min, 20.588 sec
 * total energy  : -3427.4275719 Eh     change    :  -0.3813788E-04 Eh
   gradient norm :     0.0062469 Eh/a0  converged?    E=F G=F D=F
   time step     :     0.2500000 fs     power     :   0.1562495E-08
   step length   :     0.0051916 a0     speed     :   0.5023159E-03

........................................................................
.............................. CYCLE    6 ..............................
........................................................................

 iter      E             dE          RMSdq      gap      omega  full diag
   1  -3478.6958848 -0.347870E+04  0.724E-04   11.40       0.0  T
   2  -3478.6958850 -0.194558E-06  0.415E-04   11.40       4.2  T
   3  -3478.6958850 -0.448927E-08  0.126E-04   11.40      13.9  T
     SCC iter.                  ...        3 min,  0.707 sec
     gradient                   ...        3 min, 20.694 sec
 * total energy  : -3427.4275961 Eh     change    :  -0.2419559E-04 Eh
   gradient norm :     0.0041732 Eh/a0  converged?    E=F G=F D=F
   time step     :     0.2750000 fs     power     :   0.6200924E-09
   step length   :     0.0060750 a0     speed     :   0.5343554E-03

........................................................................
.............................. CYCLE    7 ..............................
........................................................................

 iter      E             dE          RMSdq      gap      omega  full diag
   1  -3478.7055813 -0.347871E+04  0.775E-04   11.40       0.0  T
   2  -3478.7055815 -0.196800E-06  0.446E-04   11.40       3.9  T
   3  -3478.7055815 -0.469754E-08  0.124E-04   11.40      14.2  T
     SCC iter.                  ...        2 min, 54.405 sec
     gradient                   ...        3 min, 21.470 sec
 * total energy  : -3427.4276012 Eh     change    :  -0.5118936E-05 Eh
   gradient norm :     0.0050689 Eh/a0  converged?    E=F G=F D=F
   time step     :     0.3025000 fs     power     :  -0.3015780E-09
   step length   :     0.0065966 a0     speed     :   0.5274850E-03

........................................................................
.............................. CYCLE    8 ..............................
........................................................................
 * reset velocities

 iter      E             dE          RMSdq      gap      omega  full diag
   1  -3478.7054625 -0.347871E+04  0.135E-05   11.40       0.0  T
   2  -3478.7054625 -0.864020E-10  0.715E-06   11.40     245.0  T
   3  -3478.7054625 -0.263753E-10  0.321E-06   11.40     546.2  T
     SCC iter.                  ...        3 min,  4.795 sec
     gradient                   ...        3 min, 22.056 sec
 * total energy  : -3427.4276018 Eh     change    :  -0.5492407E-06 Eh
   gradient norm :     0.0050107 Eh/a0  converged?    E=T G=F D=T
   time step     :     0.1512500 fs     power     :   0.4779204E-10
   step length   :     0.0001087 a0     speed     :   0.1738725E-04

........................................................................
.............................. CYCLE    9 ..............................
........................................................................

 iter      E             dE          RMSdq      gap      omega  full diag
   1  -3478.7052267 -0.347871E+04  0.266E-05   11.40       0.0  T
   2  -3478.7052267 -0.185082E-09  0.156E-05   11.40     112.6  T
   3  -3478.7052267  0.354703E-10  0.378E-06   11.40     464.0  T
     SCC iter.                  ...        2 min, 58.003 sec
     gradient                   ...        3 min, 21.918 sec
 * total energy  : -3427.4276028 Eh     change    :  -0.1071355E-05 Eh
   gradient norm :     0.0049013 Eh/a0  converged?    E=T G=F D=T
   time step     :     0.1512500 fs     power     :   0.9294790E-10
   step length   :     0.0002162 a0     speed     :   0.3457470E-04

........................................................................
.............................. CYCLE   10 ..............................
........................................................................

 iter      E             dE          RMSdq      gap      omega  full diag
   1  -3478.7048792 -0.347870E+04  0.392E-05   11.40       0.0  T
   2  -3478.7048792 -0.394266E-09  0.229E-05   11.40      76.6  T
   3  -3478.7048792  0.391083E-10  0.555E-06   11.40     315.4  T
     SCC iter.                  ...        3 min,  0.247 sec
     gradient                   ...        3 min, 19.685 sec
 * total energy  : -3427.4276044 Eh     change    :  -0.1549012E-05 Eh
   gradient norm :     0.0047419 Eh/a0  converged?    E=T G=F D=T
   time step     :     0.1512500 fs     power     :   0.1335978E-09
   step length   :     0.0003213 a0     speed     :   0.5138516E-04

........................................................................
.............................. CYCLE   11 ..............................
........................................................................

 iter      E             dE          RMSdq      gap      omega  full diag
   1  -3478.7044276 -0.347870E+04  0.514E-05   11.40       0.0  T
   2  -3478.7044276 -0.707132E-09  0.300E-05   11.40      58.4  T
   3  -3478.7044276 -0.295586E-10  0.724E-06   11.40     241.9  T
     SCC iter.                  ...        3 min,  2.708 sec
     gradient                   ...        3 min, 20.823 sec
 * total energy  : -3427.4276063 Eh     change    :  -0.1944940E-05 Eh
   gradient norm :     0.0045374 Eh/a0  converged?    E=T G=F D=T
   time step     :     0.1512500 fs     power     :   0.1681328E-09
   step length   :     0.0004230 a0     speed     :   0.6764310E-04

........................................................................
.............................. CYCLE   12 ..............................
........................................................................

 iter      E             dE          RMSdq      gap      omega  full diag
   1  -3478.7038824 -0.347870E+04  0.630E-05   11.40       0.0  T
   2  -3478.7038824 -0.991804E-09  0.368E-05   11.40      47.6  T
   3  -3478.7038824  0.354703E-10  0.876E-06   11.40     199.9  T
     SCC iter.                  ...        3 min,  0.470 sec
     gradient                   ...        3 min, 19.962 sec
 * total energy  : -3427.4276086 Eh     change    :  -0.2308076E-05 Eh
   gradient norm :     0.0042948 Eh/a0  converged?    E=T G=F D=T
   time step     :     0.1512500 fs     power     :   0.1953493E-09
   step length   :     0.0005201 a0     speed     :   0.8318407E-04

........................................................................
.............................. CYCLE   13 ..............................
........................................................................

 iter      E             dE          RMSdq      gap      omega  full diag
   1  -3478.7032570 -0.347870E+04  0.738E-05   11.40       0.0  T
   2  -3478.7032570 -0.128421E-08  0.431E-05   11.40      40.6  T
   3  -3478.7032570 -0.181899E-11  0.101E-05   11.40     173.6  T
     SCC iter.                  ...        3 min,  1.561 sec
     gradient                   ...        3 min, 20.336 sec
 * total energy  : -3427.4276112 Eh     change    :  -0.2532274E-05 Eh
   gradient norm :     0.0040233 Eh/a0  converged?    E=T G=F D=T
   time step     :     0.1512500 fs     power     :   0.2145457E-09
   step length   :     0.0006119 a0     speed     :   0.9785891E-04

........................................................................
.............................. CYCLE   14 ..............................
........................................................................

 iter      E             dE          RMSdq      gap      omega  full diag
   1  -3478.7024910 -0.347870E+04  0.930E-05   11.40       0.0  T
   2  -3478.7024910 -0.201635E-08  0.544E-05   11.40      32.2  T
   3  -3478.7024910 -0.536602E-10  0.125E-05   11.40     140.4  T
     SCC iter.                  ...        3 min,  6.326 sec
     gradient                   ...        3 min, 20.528 sec
 * total energy  : -3427.4276141 Eh     change    :  -0.2978128E-05 Eh
   gradient norm :     0.0037029 Eh/a0  converged?    E=T G=F D=T
   time step     :     0.1663750 fs     power     :   0.2261749E-09
   step length   :     0.0007766 a0     speed     :   0.1129101E-03

........................................................................
.............................. CYCLE   15 ..............................
........................................................................

 iter      E             dE          RMSdq      gap      omega  full diag
   1  -3478.7015834 -0.347870E+04  0.115E-04   11.40       0.0  T
   2  -3478.7015834 -0.280124E-08  0.673E-05   11.40      26.1  T
   3  -3478.7015834 -0.918590E-10  0.149E-05   11.40     117.4  T
     SCC iter.                  ...        3 min,  3.901 sec
     gradient                   ...        3 min, 21.064 sec
 * total energy  : -3427.4276175 Eh     change    :  -0.3346553E-05 Eh
   gradient norm :     0.0033470 Eh/a0  converged?    E=T G=F D=T
   time step     :     0.1830125 fs     power     :   0.2281158E-09
   step length   :     0.0009683 a0     speed     :   0.1279867E-03

........................................................................
.............................. CYCLE   16 ..............................
........................................................................

 iter      E             dE          RMSdq      gap      omega  full diag
   1  -3478.7005525 -0.347870E+04  0.139E-04   11.40       0.0  T
   2  -3478.7005525 -0.390401E-08  0.814E-05   11.40      21.5  T
   3  -3478.7005525 -0.954969E-10  0.172E-05   11.40     101.7  T
     SCC iter.                  ...        3 min,  1.424 sec
     gradient                   ...        3 min, 20.551 sec
 * total energy  : -3427.4276211 Eh     change    :  -0.3586373E-05 Eh
   gradient norm :     0.0029878 Eh/a0  converged?    E=T G=F D=F
   time step     :     0.2013138 fs     power     :   0.2192673E-09
   step length   :     0.0011869 a0     speed     :   0.1426098E-03

........................................................................
.............................. CYCLE   17 ..............................
........................................................................

 iter      E             dE          RMSdq      gap      omega  full diag
   1  -3478.6994488 -0.347870E+04  0.164E-04   11.40       0.0  T
   2  -3478.6994488 -0.480441E-08  0.964E-05   11.40      18.2  T
   3  -3478.6994488 -0.709406E-10  0.189E-05   11.40      92.5  T
     SCC iter.                  ...        2 min, 55.839 sec
     gradient                   ...        3 min, 20.606 sec
 * total energy  : -3427.4276248 Eh     change    :  -0.3722682E-05 Eh
   gradient norm :     0.0026825 Eh/a0  converged?    E=T G=F D=F
   time step     :     0.2214451 fs     power     :   0.2007344E-09
   step length   :     0.0014295 a0     speed     :   0.1561488E-03

........................................................................
.............................. CYCLE   18 ..............................
........................................................................

 iter      E             dE          RMSdq      gap      omega  full diag
   1  -3478.6983720 -0.347870E+04  0.189E-04   11.40       0.0  T
   2  -3478.6983720 -0.539876E-08  0.111E-04   11.40      15.8  T
   3  -3478.6983720 -0.145064E-09  0.195E-05   11.40      90.1  T
     SCC iter.                  ...        2 min, 59.248 sec
     gradient                   ...        3 min, 20.050 sec
 * total energy  : -3427.4276285 Eh     change    :  -0.3700472E-05 Eh
   gradient norm :     0.0025029 Eh/a0  converged?    E=T G=F D=F
   time step     :     0.2435896 fs     power     :   0.1770541E-09
   step length   :     0.0016901 a0     speed     :   0.1678270E-03

........................................................................
.............................. CYCLE   19 ..............................
........................................................................

 iter      E             dE          RMSdq      gap      omega  full diag
   1  -3478.6974796 -0.347870E+04  0.211E-04   11.40       0.0  T
   2  -3478.6974796 -0.512182E-08  0.124E-04   11.40      14.1  T
   3  -3478.6974796 -0.110958E-09  0.183E-05   11.40      96.0  T
     SCC iter.                  ...        2 min, 57.455 sec
     gradient                   ...        3 min, 20.515 sec
 * total energy  : -3427.4276321 Eh     change    :  -0.3623827E-05 Eh
   gradient norm :     0.0024807 Eh/a0  converged?    E=T G=F D=F
   time step     :     0.2679486 fs     power     :   0.1560923E-09
   step length   :     0.0019601 a0     speed     :   0.1769444E-03

........................................................................
.............................. CYCLE   20 ..............................
........................................................................

 iter      E             dE          RMSdq      gap      omega  full diag
   1  -3478.6969716 -0.347870E+04  0.230E-04   11.40       0.0  T
   2  -3478.6969716 -0.403088E-08  0.136E-04   11.40      12.9  T
   3  -3478.6969716 -0.804903E-10  0.157E-05   11.40     111.4  T
     SCC iter.                  ...        2 min, 56.488 sec
     gradient                   ...        3 min, 20.488 sec
 * total energy  : -3427.4276358 Eh     change    :  -0.3674358E-05 Eh
   gradient norm :     0.0025503 Eh/a0  converged?    E=T G=F D=F
   time step     :     0.2947435 fs     power     :   0.1456279E-09
   step length   :     0.0022370 a0     speed     :   0.1835866E-03
 * RMSD in coord.:     0.0005617 a0     energy gain  -0.2901330E-03 Eh

........................................................................
.............................. CYCLE   21 ..............................
........................................................................

 iter      E             dE          RMSdq      gap      omega  full diag
   1  -3478.6969999 -0.347870E+04  0.189E-04   11.40       0.0  T
   2  -3478.6969999 -0.168620E-08  0.111E-04   11.40      15.7  T
   3  -3478.6969999 -0.950422E-10  0.104E-05   11.40     168.7  T
     SCC iter.                  ...        2 min, 57.952 sec
     gradient                   ...        3 min, 21.098 sec
 * total energy  : -3427.4276389 Eh     change    :  -0.3094704E-05 Eh
   gradient norm :     0.0025729 Eh/a0  converged?    E=T G=F D=F
   time step     :     0.2500000 fs     power     :   0.1507281E-09
   step length   :     0.0019204 a0     speed     :   0.1858126E-03

........................................................................
.............................. CYCLE   22 ..............................
........................................................................

 iter      E             dE          RMSdq      gap      omega  full diag
   1  -3478.6974846 -0.347870E+04  0.185E-04   11.40       0.0  T
   2  -3478.6974846 -0.133468E-08  0.108E-04   11.40      16.2  T
   3  -3478.6974846 -0.818545E-11  0.997E-06   11.40     175.7  T
     SCC iter.                  ...        2 min, 55.597 sec
     gradient                   ...        3 min, 21.482 sec
 * total energy  : -3427.4276421 Eh     change    :  -0.3236223E-05 Eh
   gradient norm :     0.0024918 Eh/a0  converged?    E=T G=F D=F
   time step     :     0.2500000 fs     power     :   0.1603104E-09
   step length   :     0.0019457 a0     speed     :   0.1882614E-03

........................................................................
.............................. CYCLE   23 ..............................
........................................................................

 iter      E             dE          RMSdq      gap      omega  full diag
   1  -3478.6983877 -0.347870E+04  0.184E-04   11.40       0.0  T
   2  -3478.6983877 -0.173259E-08  0.107E-04   11.40      16.3  T
   3  -3478.6983877 -0.572982E-10  0.109E-05   11.40     160.4  T
     SCC iter.                  ...        3 min,  1.237 sec
     gradient                   ...        3 min, 21.045 sec
 * total energy  : -3427.4276455 Eh     change    :  -0.3341646E-05 Eh
   gradient norm :     0.0022922 Eh/a0  converged?    E=T G=F D=F
   time step     :     0.2500000 fs     power     :   0.1664974E-09
   step length   :     0.0019813 a0     speed     :   0.1917050E-03

........................................................................
.............................. CYCLE   24 ..............................
........................................................................

 iter      E             dE          RMSdq      gap      omega  full diag
   1  -3478.6996433 -0.347870E+04  0.186E-04   11.40       0.0  T
   2  -3478.6996433 -0.251475E-08  0.108E-04   11.40      16.3  T
   3  -3478.6996433 -0.545697E-10  0.128E-05   11.40     136.8  T
     SCC iter.                  ...        2 min, 56.149 sec
     gradient                   ...        3 min, 21.783 sec
 * total energy  : -3427.4276488 Eh     change    :  -0.3328922E-05 Eh
   gradient norm :     0.0019961 Eh/a0  converged?    E=T G=F D=F
   time step     :     0.2500000 fs     power     :   0.1632992E-09
   step length   :     0.0020271 a0     speed     :   0.1961358E-03

........................................................................
.............................. CYCLE   25 ..............................
........................................................................

 iter      E             dE          RMSdq      gap      omega  full diag
   1  -3478.7011583 -0.347870E+04  0.188E-04   11.40       0.0  T
   2  -3478.7011584 -0.351019E-08  0.108E-04   11.40      16.2  T
   3  -3478.7011584 -0.148248E-09  0.150E-05   11.40     116.6  T
     SCC iter.                  ...        2 min, 57.783 sec
     gradient                   ...        3 min, 22.164 sec
 * total energy  : -3427.4276519 Eh     change    :  -0.3083410E-05 Eh
   gradient norm :     0.0016635 Eh/a0  converged?    E=T G=F D=F
   time step     :     0.2500000 fs     power     :   0.1484728E-09
   step length   :     0.0020779 a0     speed     :   0.2010466E-03

........................................................................
.............................. CYCLE   26 ..............................
........................................................................

 iter      E             dE          RMSdq      gap      omega  full diag
   1  -3478.7029784 -0.347870E+04  0.207E-04   11.40       0.0  T
   2  -3478.7029784 -0.522141E-08  0.119E-04   11.40      14.8  T
   3  -3478.7029784 -0.954969E-10  0.184E-05   11.40      95.2  T
     SCC iter.                  ...        2 min, 56.727 sec
     gradient                   ...        3 min, 22.051 sec
 * total energy  : -3427.4276548 Eh     change    :  -0.2926503E-05 Eh
   gradient norm :     0.0013856 Eh/a0  converged?    E=T G=F D=F
   time step     :     0.2750000 fs     power     :   0.1215706E-09
   step length   :     0.0023464 a0     speed     :   0.2063857E-03

........................................................................
.............................. CYCLE   27 ..............................
........................................................................

 iter      E             dE          RMSdq      gap      omega  full diag
   1  -3478.7049021 -0.347870E+04  0.219E-04   11.40       0.0  T
   2  -3478.7049021 -0.578484E-08  0.125E-04   11.40      14.0  T
   3  -3478.7049021 -0.220098E-09  0.195E-05   11.40      89.7  T
     SCC iter.                  ...        2 min, 58.448 sec
     gradient                   ...        3 min, 22.656 sec
 * total energy  : -3427.4276573 Eh     change    :  -0.2541279E-05 Eh
   gradient norm :     0.0013565 Eh/a0  converged?    E=T G=F D=F
   time step     :     0.3025000 fs     power     :   0.9083133E-10
   step length   :     0.0026263 a0     speed     :   0.2100081E-03

........................................................................
.............................. CYCLE   28 ..............................
........................................................................

 iter      E             dE          RMSdq      gap      omega  full diag
   1  -3478.7065833 -0.347871E+04  0.217E-04   11.40       0.0  T
   2  -3478.7065833 -0.448472E-08  0.124E-04   11.40      14.1  T
   3  -3478.7065833 -0.275122E-09  0.166E-05   11.40     105.4  T
     SCC iter.                  ...        2 min, 59.996 sec
     gradient                   ...        3 min, 22.782 sec
 * total energy  : -3427.4276595 Eh     change    :  -0.2203009E-05 Eh
   gradient norm :     0.0015619 Eh/a0  converged?    E=T G=F D=F
   time step     :     0.3327500 fs     power     :   0.7166120E-10
   step length   :     0.0028730 a0     speed     :   0.2088494E-03

........................................................................
.............................. CYCLE   29 ..............................
........................................................................

 iter      E             dE          RMSdq      gap      omega  full diag
   1  -3478.7077010 -0.347871E+04  0.204E-04   11.40       0.0  T
   2  -3478.7077010 -0.223145E-08  0.118E-04   11.40      14.9  T
   3  -3478.7077010 -0.184173E-09  0.112E-05   11.40     155.8  T
     SCC iter.                  ...        3 min,  3.414 sec
     gradient                   ...        3 min, 22.277 sec
 * total energy  : -3427.4276618 Eh     change    :  -0.2262659E-05 Eh
   gradient norm :     0.0017510 Eh/a0  converged?    E=T G=F D=F
   time step     :     0.3660250 fs     power     :   0.7166704E-10
   step length   :     0.0030896 a0     speed     :   0.2041751E-03

........................................................................
.............................. CYCLE   30 ..............................
........................................................................

 iter      E             dE          RMSdq      gap      omega  full diag
   1  -3478.7080414 -0.347871E+04  0.193E-04   11.40       0.0  T
   2  -3478.7080414 -0.949967E-09  0.113E-04   11.40      15.5  T
   3  -3478.7080414 -0.186446E-09  0.835E-06   11.40     209.9  T
     SCC iter.                  ...        2 min, 58.831 sec
     gradient                   ...        3 min, 19.758 sec
 * total energy  : -3427.4276646 Eh     change    :  -0.2776124E-05 Eh
   gradient norm :     0.0017473 Eh/a0  converged?    E=T G=F D=F
   time step     :     0.4026275 fs     power     :   0.8359980E-10
   step length   :     0.0033346 a0     speed     :   0.2003318E-03

........................................................................
.............................. CYCLE   31 ..............................
........................................................................

 iter      E             dE          RMSdq      gap      omega  full diag
   1  -3478.7075156 -0.347871E+04  0.194E-04   11.40       0.0  T
   2  -3478.7075156 -0.254795E-08  0.114E-04   11.40      15.3  T
   3  -3478.7075156 -0.150067E-09  0.111E-05   11.40     157.4  T
     SCC iter.                  ...        2 min, 59.574 sec
     gradient                   ...        3 min, 20.577 sec
 * total energy  : -3427.4276680 Eh     change    :  -0.3385951E-05 Eh
   gradient norm :     0.0015255 Eh/a0  converged?    E=T G=F D=F
   time step     :     0.4428903 fs     power     :   0.9190953E-10
   step length   :     0.0036610 a0     speed     :   0.1999492E-03

........................................................................
.............................. CYCLE   32 ..............................
........................................................................

 iter      E             dE          RMSdq      gap      omega  full diag
   1  -3478.7062487 -0.347871E+04  0.205E-04   11.40       0.0  T
   2  -3478.7062487 -0.584669E-08  0.122E-04   11.40      14.4  T
   3  -3478.7062487 -0.255568E-09  0.183E-05   11.40      95.7  T
     SCC iter.                  ...        2 min, 59.457 sec
     gradient                   ...        3 min, 19.593 sec
 * total energy  : -3427.4276716 Eh     change    :  -0.3655115E-05 Eh
   gradient norm :     0.0012809 Eh/a0  converged?    E=T G=F D=F
   time step     :     0.4871793 fs     power     :   0.8511765E-10
   step length   :     0.0040870 a0     speed     :   0.2029247E-03

........................................................................
.............................. CYCLE   33 ..............................
........................................................................

 iter      E             dE          RMSdq      gap      omega  full diag
   1  -3478.7047760 -0.347870E+04  0.207E-04   11.40       0.0  T
   2  -3478.7047760 -0.715045E-08  0.123E-04   11.40      14.2  T
   3  -3478.7047760 -0.238288E-09  0.208E-05   11.40      84.1  T
     SCC iter.                  ...        3 min,  2.659 sec
     gradient                   ...        3 min, 19.674 sec
 * total energy  : -3427.4276751 Eh     change    :  -0.3492198E-05 Eh
   gradient norm :     0.0013585 Eh/a0  converged?    E=T G=F D=F
   time step     :     0.5358972 fs     power     :   0.7176117E-10
   step length   :     0.0045740 a0     speed     :   0.2064562E-03

........................................................................
.............................. CYCLE   34 ..............................
........................................................................

 iter      E             dE          RMSdq      gap      omega  full diag
   1  -3478.7039797 -0.347870E+04  0.195E-04   11.40       0.0  T
   2  -3478.7039797 -0.329374E-08  0.116E-04   11.40      15.1  T
   3  -3478.7039797 -0.486580E-10  0.115E-05   11.40     151.7  T
     SCC iter.                  ...        3 min,  0.377 sec
     gradient                   ...        3 min, 20.636 sec
 * total energy  : -3427.4276788 Eh     change    :  -0.3702764E-05 Eh
   gradient norm :     0.0015543 Eh/a0  converged?    E=T G=F D=F
   time step     :     0.5894869 fs     power     :   0.7429561E-10
   step length   :     0.0050541 a0     speed     :   0.2073905E-03

........................................................................
.............................. CYCLE   35 ..............................
........................................................................

 iter      E             dE          RMSdq      gap      omega  full diag
   1  -3478.7045104 -0.347870E+04  0.210E-04   11.40       0.0  T
   2  -3478.7045104 -0.104046E-08  0.123E-04   11.40      14.3  T
   3  -3478.7045104 -0.141881E-09  0.751E-06   11.40     233.4  T
     SCC iter.                  ...        3 min,  2.298 sec
     gradient                   ...        3 min, 23.756 sec
 * total energy  : -3427.4276835 Eh     change    :  -0.4693816E-05 Eh
   gradient norm :     0.0014509 Eh/a0  converged?    E=T G=F D=F
   time step     :     0.6484356 fs     power     :   0.8938338E-10
   step length   :     0.0056154 a0     speed     :   0.2094719E-03

........................................................................
.............................. CYCLE   36 ..............................
........................................................................

 iter      E             dE          RMSdq      gap      omega  full diag
   1  -3478.7064731 -0.347871E+04  0.264E-04   11.40       0.0  T
   2  -3478.7064731 -0.705086E-08  0.153E-04   11.40      11.5  T
   3  -3478.7064731 -0.262389E-09  0.214E-05   11.40      82.0  T
     SCC iter.                  ...        2 min, 57.217 sec
     gradient                   ...        3 min, 22.070 sec
 * total energy  : -3427.4276890 Eh     change    :  -0.5531339E-05 Eh
   gradient norm :     0.0011427 Eh/a0  converged?    E=F G=F D=F
   time step     :     0.7132792 fs     power     :   0.8977292E-10
   step length   :     0.0063768 a0     speed     :   0.2162513E-03

........................................................................
.............................. CYCLE   37 ..............................
........................................................................

 iter      E             dE          RMSdq      gap      omega  full diag
   1  -3478.7088995 -0.347871E+04  0.287E-04   11.40       0.0  T
   2  -3478.7088995 -0.113828E-07  0.166E-04   11.40      10.5  T
   3  -3478.7088995 -0.371529E-09  0.284E-05   11.40      61.7  T
     SCC iter.                  ...        2 min, 56.545 sec
     gradient                   ...        3 min, 21.971 sec
 * total energy  : -3427.4276945 Eh     change    :  -0.5435318E-05 Eh
   gradient norm :     0.0012681 Eh/a0  converged?    E=F G=F D=F
   time step     :     0.7846071 fs     power     :   0.7670122E-10
   step length   :     0.0073031 a0     speed     :   0.2251501E-03

........................................................................
.............................. CYCLE   38 ..............................
........................................................................

 iter      E             dE          RMSdq      gap      omega  full diag
   1  -3478.7099237 -0.347871E+04  0.250E-04   11.40       0.0  T
   2  -3478.7099237 -0.485306E-08  0.147E-04   11.40      11.9  T
   3  -3478.7099237 -0.250111E-09  0.196E-05   11.40      89.4  T
     SCC iter.                  ...        3 min,  1.430 sec
     gradient                   ...        3 min, 21.660 sec
 * total energy  : -3427.4277006 Eh     change    :  -0.6093715E-05 Eh
   gradient norm :     0.0013518 Eh/a0  converged?    E=F G=F D=F
   time step     :     0.8630678 fs     power     :   0.8478745E-10
   step length   :     0.0082226 a0     speed     :   0.2304526E-03

........................................................................
.............................. CYCLE   39 ..............................
........................................................................

 iter      E             dE          RMSdq      gap      omega  full diag
   1  -3478.7088320 -0.347871E+04  0.278E-04   11.40       0.0  T
   2  -3478.7088320 -0.874616E-08  0.162E-04   11.40      10.8  T
   3  -3478.7088320 -0.313321E-09  0.267E-05   11.40      65.5  T
     SCC iter.                  ...        3 min,  6.145 sec
     gradient                   ...        3 min, 21.599 sec
 * total energy  : -3427.4277079 Eh     change    :  -0.7292021E-05 Eh
   gradient norm :     0.0010838 Eh/a0  converged?    E=F G=F D=F
   time step     :     0.9493746 fs     power     :   0.8969064E-10
   step length   :     0.0093639 a0     speed     :   0.2385791E-03

........................................................................
.............................. CYCLE   40 ..............................
........................................................................

 iter      E             dE          RMSdq      gap      omega  full diag
   1  -3478.7073421 -0.347871E+04  0.311E-04   11.40       0.0  T
   2  -3478.7073421 -0.957880E-08  0.181E-04   11.40       9.7  T
   3  -3478.7073421 -0.252385E-09  0.246E-05   11.40      71.2  T
     SCC iter.                  ...        3 min,  2.211 sec
     gradient                   ...        3 min, 21.985 sec
 * total energy  : -3427.4277154 Eh     change    :  -0.7574723E-05 Eh
   gradient norm :     0.0012826 Eh/a0  converged?    E=F G=F D=F
   time step     :     1.0443120 fs     power     :   0.8266457E-10
   step length   :     0.0107842 a0     speed     :   0.2497880E-03

........................................................................
.............................. CYCLE   41 ..............................
........................................................................

 iter      E             dE          RMSdq      gap      omega  full diag
   1  -3478.7083799 -0.347871E+04  0.333E-04   11.40       0.0  T
   2  -3478.7083799 -0.535647E-08  0.194E-04   11.40       9.0  T
   3  -3478.7083799 -0.373348E-09  0.149E-05   11.40     117.8  T
     SCC iter.                  ...        3 min,  0.678 sec
     gradient                   ...        3 min, 20.389 sec
 * total energy  : -3427.4277246 Eh     change    :  -0.9158655E-05 Eh
   gradient norm :     0.0011221 Eh/a0  converged?    E=F G=F D=F
   time step     :     1.1487432 fs     power     :   0.9651774E-10
   step length   :     0.0122859 a0     speed     :   0.2587025E-03

........................................................................
.............................. CYCLE   42 ..............................
........................................................................

 iter      E             dE          RMSdq      gap      omega  full diag
   1  -3478.7107786 -0.347871E+04  0.393E-04   11.40       0.0  T
   2  -3478.7107786 -0.177874E-07  0.230E-04   11.40       7.6  T
   3  -3478.7107786 -0.675755E-09  0.314E-05   11.40      55.9  T
     SCC iter.                  ...        2 min, 56.626 sec
     gradient                   ...        3 min, 20.968 sec
 * total energy  : -3427.4277345 Eh     change    :  -0.9917047E-05 Eh
   gradient norm :     0.0012077 Eh/a0  converged?    E=F G=F D=F
   time step     :     1.2500000 fs     power     :   0.8929609E-10
   step length   :     0.0140916 a0     speed     :   0.2726885E-03
 * RMSD in coord.:     0.0017810 a0     energy gain  -0.9872714E-04 Eh

........................................................................
.............................. CYCLE   43 ..............................
........................................................................

 iter      E             dE          RMSdq      gap      omega  full diag
   1  -3478.7108055 -0.347871E+04  0.615E-05   11.40       0.0  T
   2  -3478.7108055 -0.134150E-09  0.362E-05   11.40      48.3  T
   3  -3478.7108055 -0.286491E-10  0.205E-06   11.40     854.8  T
     SCC iter.                  ...        2 min, 56.071 sec
     gradient                   ...        3 min, 22.343 sec
 * total energy  : -3427.4277364 Eh     change    :  -0.1890078E-05 Eh
   gradient norm :     0.0012197 Eh/a0  converged?    E=T G=F D=F
   time step     :     0.2500000 fs     power     :   0.1002530E-09
   step length   :     0.0027281 a0     speed     :   0.2639542E-03

........................................................................
.............................. CYCLE   44 ..............................
........................................................................

 iter      E             dE          RMSdq      gap      omega  full diag
   1  -3478.7104272 -0.347871E+04  0.618E-05   11.40       0.0  T
   2  -3478.7104272 -0.422460E-09  0.361E-05   11.40      48.6  T
   3  -3478.7104272 -0.409273E-11  0.480E-06   11.40     365.4  T
     SCC iter.                  ...        2 min, 57.282 sec
     gradient                   ...        3 min, 21.833 sec
 * total energy  : -3427.4277385 Eh     change    :  -0.2084267E-05 Eh
   gradient norm :     0.0011282 Eh/a0  converged?    E=T G=F D=F
   time step     :     0.2500000 fs     power     :   0.1087656E-09
   step length   :     0.0026658 a0     speed     :   0.2579292E-03

........................................................................
.............................. CYCLE   45 ..............................
........................................................................

 iter      E             dE          RMSdq      gap      omega  full diag
   1  -3478.7097449 -0.347871E+04  0.720E-05   11.40       0.0  T
   2  -3478.7097449 -0.916316E-09  0.418E-05   11.40      41.9  T
   3  -3478.7097449 -0.682121E-10  0.841E-06   11.40     208.4  T
     SCC iter.                  ...        2 min, 58.982 sec
     gradient                   ...        3 min, 21.866 sec
 * total energy  : -3427.4277406 Eh     change    :  -0.2152759E-05 Eh
   gradient norm :     0.0009937 Eh/a0  converged?    E=T G=T D=F
   time step     :     0.2500000 fs     power     :   0.1106018E-09
   step length   :     0.0026371 a0     speed     :   0.2551582E-03

   *** GEOMETRY OPTIMIZATION CONVERGED AFTER 45 CYCLES ***

------------------------------------------------------------------------
 total energy gain   :        -0.0003950 Eh       -0.2479 kcal/mol
 total RMSD          :         0.0021433 a0        0.0011 Å
 total power (kW/mol):        -0.0230453 (step)   -0.0001 (real)
------------------------------------------------------------------------

 FIRE (total)                  0 d,  5 h,  0 min,  1.379 sec
 setup                          ...        0 min,  0.116 sec (  0.001%)
 velocities                     ...        0 min,  0.003 sec (  0.000%)
 propagation                    ...        0 min,  0.005 sec (  0.000%)
 singlepoint calculation        ...      300 min,  0.528 sec ( 99.995%)
 log and printout               ...        0 min,  0.670 sec (  0.004%)
 preconditioner                 ...        0 min,  0.000 sec (  0.000%)
 model hessian                  ...        0 min,  0.000 sec (  0.000%)
 hessian update                 ...        0 min,  0.000 sec (  0.000%)

================
 final structure:
================
3258
 xtb: 6.6.1 (8d0f1dd)
C          126.38697288757632      117.75155387096136      118.62483174178590
C          125.38431743573034      117.23054307557570      117.60244319211189
C          124.70306700550462      115.93273929747470      118.03743247047446
C          123.68388788623709      116.12940607076801      119.15804161066029
C          123.01554854328977      114.81269058463154      119.54437750099052
C          121.94275179968450      114.98483743521312      120.61698949451062
C          121.29587298082174      113.64960846707777      120.97896070761632
C          120.10237234010972      113.81532189651242      121.91640391437970
C          119.42853830336730      112.49268553820711      122.28723066051063
C          118.77018523733152      111.80655669081297      121.09262512618642
C          118.05978098266307      110.50812665850877      121.46875618790574
C          117.60098011883279      109.75034438536035      120.22499566590307
C          116.93279558878858      108.41708304576379      120.54896575222730
C          116.66772463264208      107.60248334117571      119.28544835959254
C          115.99234359210841      106.26500691518913      119.57584961452662
C          115.82130466560562      105.44088408309737      118.30273500146389
C          115.12327714360379      104.10658232883206      118.54966201920553
C          114.93944143818449      103.32576780312860      117.25208438975319
C          114.30344373901026      101.95471065108198      117.46820969243095
C          114.09307905947612      101.23668554944379      116.13766594928822
C          113.46121447622485       99.85141005412561      116.25914522305001
C          114.32426996797787       98.85023378532087      117.02497754243045
C          113.85301821243688       97.40288092142673      116.85997821518319
C          114.18920662811095       96.79948490075644      115.49621479095713
C          113.69770163419777       95.35792183199973      115.38013588722923
C          114.17923132644674       94.63912556614858      114.11865650010252
C          113.73044154384118       95.26828211025152      112.79786392324058
C          112.21151025329665       95.35347323965777      112.65155504069587
C          111.76074421829348       95.60842194598756      111.21217230779655
C          112.30219550173628       96.91108819410523      110.62720026522877
C          111.71903684529995       97.19956288177232      109.24489199289505
C          112.35645369561055       98.42463009980037      108.59046717781662
C          111.68970153628672       98.78219788308284      107.26440966746702
C          112.29635300562899      100.01353652315910      106.58911568798368
C          111.41737425591853      100.46568703863474      105.42435710158894
C          112.02070191051789      101.54620900539138      104.52730525677758
C          112.39222970187087      102.84315472970175      105.24251516402857
C          112.82922069715137      103.91885164579962      104.24520486230148
C          113.51237654873458      105.10380820000748      104.92599446222310
C          114.23244544491968      106.04128551014291      103.95470391475415
C          113.30059473661395      106.93886400408968      103.14462774425641
C          114.07956241641843      107.77619835941786      102.13043131219275
C          113.20376456473556      108.81723578920777      101.43278098611590
C          113.81622649751813      109.36526368298141      100.14243972443761
C          115.21317153047116      109.95396690956869      100.32715306201416
C          115.71823638393364      110.62704488181581       99.04971039538363
C          117.23108013604880      110.84974748590264       99.04089976785752
C          117.72397957651555      111.73696296714874      100.18173559785046
C          119.22659324524150      112.02009189946733      100.09970091829109
C          119.57221636923764      113.11159691304199       99.08786754109558
C          121.07043288038282      113.23663714488048       98.80927770910368
C          121.89210447039967      113.59332252347502      100.04543374428017
C          123.36200679146452      113.82397917243844       99.70091154350193
C          124.23553354490838      114.10965366531553      100.92422428812048
C          124.40667464580751      112.89564234275979      101.83419602304552
C          125.31169619510833      113.18544188311517      103.02938109861498
C          125.45895702284271      111.96024504047000      103.92886152370748
C          126.37711125621109      112.21788930554709      105.12184111410859
C          126.43577455980000      111.03707780164353      106.09201780604485
C          127.16538992296240      109.81619747025101      105.53507706504814
C          127.05666680542365      108.62285456639260      106.48124195759860
C          127.69224056148182      107.35727524889980      105.90962686282977
C          127.41741900826673      106.14620575887263      106.79748903019083
C          127.87448022427201      104.83110784591354      106.17237087196604
C          127.41129363642258      103.63328168604620      106.99860162976788
C          127.70898202909892      102.30506283566025      106.30753815919186
C          127.22610896367436      101.08856427676309      107.09933205380342
C          125.70766179527422      101.04623832872801      107.26267460421546
C          125.22853185577294       99.71893561125511      107.84802249417173
C          123.73934794497298       99.72945193331036      108.19358519580928
C          122.82303431419311       99.75552591023910      106.97218626693811
C          121.36255108286986       99.95725428565446      107.37051603144725
C          120.43392408947675       99.98395522648433      106.15697358951699
C          119.07274530961232      100.61206118011998      106.45210767234312
C          118.23662532075274       99.84707447969453      107.47475017537022
C          116.86574928448199      100.49992646682958      107.64158120934016
C          115.95252849880369       99.77647959396471      108.63103899483163
C          116.32188770366304      100.04158213440533      110.08845686816913
C          115.49253481702627       99.19401360257493      111.05124331217803
C          115.75641355619921       99.50956441379863      112.52340367252646
C          117.20060446296222       99.24906971420145      112.94478132151544
C          117.41750197081601       99.50573981093106      114.43390777642618
C          118.89628330844781       99.62056444133994      114.79178524528545
C          119.10986593447485      100.02538117576846      116.25044421743488
C          120.50609337781489      100.59773081320412      116.50382698549976
C          120.65605956294924      102.01591536240308      115.95562652910958
C          122.05079043390671      102.58990351856762      116.19348465488673
C          122.29493621961265      103.89160233887480      115.42897364871391
C          121.42770460107454      105.05210754340088      115.91140478390639
C          121.74687525107480      106.37016141610870      115.20393672272623
C          121.29859296145737      106.39976938964672      113.74375834790432
C          121.61937398129639      107.74182532535268      113.09171136592651
C          121.20017751212787      107.83217164900927      111.62466506947329
C          119.68961524811751      107.88865189812061      111.42554383350931
C          119.30981606838611      108.04133191012390      109.95523076647871
C          117.79455836419538      108.08755032541788      109.78144976759074
C          117.34182047140132      108.27534410002299      108.33480374866504
C          117.76881991120099      107.16963353053104      107.36756963834401
C          117.40646905905461      105.74770614442103      107.79178647559127
C          115.91901939089104      105.55144787659576      108.06865432684687
C          115.59156355920814      104.07534436470701      108.27412470082184
C          114.14012934520127      103.80777650158095      108.66953128456252
C          113.78197666345007      104.42270791855087      110.01958742861440
C          112.45157418156984      103.92758359816901      110.58176160103532
C          112.48830649785815      102.45932513737253      111.00126912970711
C          111.34042650140331      102.09634148584507      111.93887576113116
C          111.40268243691651      100.62850698122976      112.35012516084140
C          110.44500855500114      100.29570102785983      113.48943695766326
C          110.57208813313996       98.83698641516982      113.91448389060166
C          109.76332337906297       98.51606555833449      115.16518663341485
C          109.92000638301273       97.05251359550658      115.55878633557154
C          109.18605247500240       96.68053629170839      116.84428401444509
C          107.67425058689312       96.56789705136839      116.67018270031117
C          107.00149532879992       96.07203483593834      117.94774269841865
C          105.52542405696278       95.75197426985029      117.72988936279944
C          104.83226876278067       95.18652627557739      118.97116450163682
C          105.48173978371250       93.92752828765941      119.55251549577743
C          105.63798418806050       92.79264400739218      118.54287382139796
C          106.23957446982337       91.54189424875844      119.17933796821322
C          106.48403807741896       90.44713449667572      118.14781453843516
H          107.18626547159126       91.80271379301348      119.65904446893734
H          105.56792015840239       91.16907720144678      119.95605723695034
H          104.66256824341336       92.54989492395025      118.11447272657027
H          106.28832276601668       93.11126184868711      117.72659902623961
H          106.46081235783376       94.17766324776541      119.96626774513858
H          104.86385549662523       93.57764493543525      120.38364395285215
H          104.81608689123567       95.95415725232422      119.74902769800104
H          103.79494542773804       94.96135554014570      118.71041061486402
H          105.00382333902867       96.66352747564700      117.42726662208230
H          105.43172793054705       95.03969391582460      116.90743093251544
H          107.52185285520348       95.17321814601210      118.28236952053604
H          107.10052538009610       96.82314933206658      118.73535381574233
H          107.24999599071346       97.53078841205318      116.38060489779187
H          107.46805074514259       95.86077722635503      115.86278068060271
H          109.56049249519215       95.71398036097459      117.18697536918989
H          109.41758491976404       97.41692077192695      117.61777109724027
H          109.56356464957987       96.41945871962507      114.74205407335621
H          110.98429094263156       96.84724676448741      115.69371519282176
H          110.10868999174431       99.14482726522539      115.98826146015766
H          108.71321114986299       98.74438768317199      114.98601501379632
H          110.24420417864401       98.19000054953628      113.09880601980214
H          111.62408946057695       98.61354108807959      114.10621957303623
H          110.67007301052071      100.93989861409985      114.34329700085992
H          109.41754559001728      100.49832898822393      113.17875032190952
H          111.17337502786137       99.99959692024001      111.48642016451178
H          112.42243797548866      100.39393185179678      112.66817123581023
H          111.39867280450217      102.72091424273280      112.83386303417815
H          110.38410912692416      102.30459102057368      111.45383294816629
H          112.44786167697011      101.81592811094276      110.12015640046745
H          113.43247621662630      102.25706094034204      111.51352865941152
H          112.20387023632918      104.53401706017249      111.45754727586359
H          111.66546610558700      104.08158913798340      109.84005609495726
H          114.57401049448326      104.19735065407930      110.73651438263900
H          113.72660304979775      105.50725115192137      109.91456638595044
H          113.46789398909343      104.20091661392595      107.90462099986284
H          113.99828440683291      102.72643884283902      108.71592749121652
H          115.81287540725192      103.53373946928318      107.35030490195284
H          116.24636496479927      103.67696767008042      109.05413207322957
H          115.64533850848713      106.10977240935989      108.96321220050719
H          115.33393197919803      105.94369538839159      107.23415514152401
H          117.71321356276458      105.06826564398446      106.99130489544635
H          117.97204545700683      105.46993512124152      108.68304250058209
H          117.29806808670941      107.37083339123690      106.40171266833322
H          118.84840191905492      107.22006958126295      107.21788550653316
H          116.25421425174956      108.35634906287062      108.32365501800594
H          117.74327694598993      109.22070859619063      107.95916701257362
H          117.35968391326318      107.17169165053724      110.18587618745461
H          117.39938987794551      108.91968342374632      110.37192216366248
H          119.75090878539723      108.95843990937290      109.55649020228913
H          119.72518030024825      107.20382091869978      109.39239424462831
H          119.23189294072166      106.97871894631383      111.81748796634243
H          119.28421438795385      108.73134540908413      111.99071615524427
H          121.64301015832363      108.73331433718390      111.19213142311769
H          121.59792004697385      106.97402956451032      111.07717720166322
H          121.13592124698745      108.54346668041158      113.65465964606042
H          122.69784507247992      107.90176523406822      113.15479104366088
H          121.80192954952419      105.60756685408884      113.18651251241313
H          120.22481301496504      106.21001369932443      113.69682173320615
H          121.24822356630196      107.18645031619114      115.73445577051926
H          122.82282961824210      106.55491828820830      115.25575453383379
H          120.37264062078825      104.81554196531040      115.75869839665148
H          121.58854314804572      105.17940026800757      116.98428051729573
H          123.34562803736461      104.17211788015722      115.53682089925813
H          122.11193151984774      103.71135597002818      114.36851639504283
H          122.20103466452889      102.75905145227591      117.26230916155291
H          122.79137229704814      101.85519832873440      115.86729327965848
H          120.45909277045099      102.01876959439038      114.88191329270141
H          119.90853606075115      102.65376638787637      116.43057874973231
H          120.69687925685959      100.61656220400060      117.57904183545386
H          121.25385351151581       99.94512037685094      116.04719567125825
H          118.36779971561815      100.77892143800418      116.52670407815698
H          118.94570460347390       99.15744440116127      116.89260271339558
H          119.40315444369521       98.67428299798016      114.59271410769909
H          119.34640646569993      100.37373600238475      114.14220542849640
H          116.92284879884323      100.44318637800340      114.70319403564970
H          116.95337048341523       98.70923511564507      115.01866957525907
H          117.47377796936344       98.21951661017243      112.70515105629345
H          117.85967071962381       99.91061151935699      112.37937528938242
H          115.51301744773873      100.55748889634098      112.71744142023954
H          115.09207919591144       98.89888017500790      113.13978495037816
H          114.43250390876855       99.35708660368677      110.84174789288079
H          115.70410614697705       98.13677510694365      110.87291274471086
H          117.38131949014554       99.82824184981794      110.23103397306103
H          116.16003522768237      101.09929751402086      110.31061009966136
H          114.92303081209232      100.10260816919751      108.46688017352329
H          115.99570541408238       98.70238033209510      108.43410475526765
H          116.99875510993483      101.53348859024165      107.96679428690305
H          116.37660036267351      100.52616524313275      106.66442273710443
H          118.10895899585404       98.81453746454996      107.14142907118034
H          118.75704258869378       99.82595672638450      108.43264130048898
H          119.22355453916165      101.63475110752260      106.80871248112486
H          118.50791774778561      100.67313809696597      105.51914640444747
H          120.91072190927723      100.56648781052665      105.36375286483421
H          120.29507442682483       98.96875240420617      105.77847519277705
H          121.05851578063822       99.16132334840441      108.05319224344628
H          121.27517185672019      100.90492952884907      107.90573751446118
H          123.11794437338763      100.57156198265719      106.31013916315339
H          122.92911869371908       98.82146932313186      106.41577073472328
H          123.50598551151204       98.84499003384923      108.79149539138268
H          123.53337067726473      100.60642851422305      108.81122244599858
H          125.43618644466227       98.91007886709987      107.14388331045757
H          125.79567503651475       99.51620620347778      108.76012382839254
H          125.38845207511146      101.85296787459565      107.92508764056227
H          125.24468215050419      101.20710621846661      106.28728027154497
H          127.54918145092076      100.18407413510941      106.57765586593250
H          127.69740749196475      101.08576462771738      108.08503662162096
H          127.23312513044030      102.30074015247177      105.32329836038075
H          128.78700459734222      102.22034867883258      106.15018717911673
H          127.89592886182838      103.65247379908058      107.97734125339001
H          126.33612793299227      103.72411170971124      107.16057280092578
H          127.45485320257106      104.75082107180106      105.16685535295767
H          128.96234340735481      104.82070354703407      106.07811895509226
H          127.90589068358257      106.28211912894183      107.76458329385078
H          126.34232509049669      106.08564395490653      106.98190172791861
H          127.28190720350754      107.17013133649957      104.91408001115806
H          128.76900401171096      107.50089949814539      105.79935279046595
H          127.52516286661354      108.86753635933350      107.43715228109048
H          125.99897617028263      108.42708661308498      106.67824434597223
H          126.73397354253655      109.53889342587446      104.57173288736890
H          128.21640746731291      110.06129685564957      105.36807138160566
H          126.93473340443981      111.35477456115005      107.01128588593649
H          125.41505823982374      110.74863518676244      106.35513733020389
H          127.38366541935422      112.44722533449197      104.76511474244811
H          126.01054868468248      113.09492674068416      105.66167537655176
H          124.47313500737518      111.66201382657054      104.29434971106006
H          125.85321441746480      111.13499139903233      103.33356777093260
H          126.29711774428003      113.49573120703027      102.67400040269919
H          124.89458226023928      114.01508486018457      103.60574433986690
H          123.43289053145665      112.56987695892757      102.20404546791866
H          124.83188997184584      112.07348017226367      101.25303310126269
H          125.22262777356141      114.43264304578979      100.58362189565341
H          123.80309401674869      114.93221496563719      101.49801209660679
H          123.75165235626625      112.94437398481904       99.18201723930093
H          123.43310502450925      114.66841204357148       99.01018811890432
H          121.48346184483064      114.49813688986161      100.50117586560278
H          121.81357615660457      112.78389024066725      100.77058218619787
H          121.44109887305888      112.29531659942670       98.39608848601360
H          121.21982413997864      114.00826037318116       98.04903053565592
H          119.06846534826023      112.90111816141676       98.14231259111479
H          119.19501573930442      114.06720210254423       99.45573046812655
H          119.57992226045934      112.32714875675883      101.08617158461118
H          119.74877103272073      111.09898422500947       99.83367751141931
H          117.17609748079819      112.68127906697555      100.17420183664360
H          117.51281303499321      111.23729271196218      101.12888071555700
H          117.73293538180378      109.88054361774199       99.10268976650009
H          117.50938192353749      111.29807276673930       98.08431855539227
H          115.46302887479663      109.99430664382616       98.19462051889859
H          115.20685872032722      111.58350147293353       98.91245826796700
H          115.19048693367347      110.67926643445061      101.14262145139138
H          115.90376402424046      109.15521284027595      100.60241069970387
H          113.86763283457792      108.56012958861035       99.40434889991913
H          113.15138375838505      110.13442888896533       99.73949622225922
H          112.24245277862052      108.36093439932191      101.18174373185418
H          113.00380980982681      109.64302597243216      102.12033621216929
H          114.90487286665660      108.27792193415843      102.63991117899880
H          114.50988697938506      107.10892981087127      101.38216512254365
H          112.56859987016702      106.32816023297340      102.61513991212097
H          112.75803475629175      107.59770544355000      103.82644469097717
H          114.91676741623810      106.67762026930325      104.52242570145930
H          114.84034745943630      105.44252279667796      103.27145685634704
H          112.78364721512972      105.67218187365567      105.50944092120584
H          114.25457869816911      104.70443810161544      105.61981807876326
H          113.53435768568671      103.47362523650752      103.54077681342538
H          111.96490100653055      104.25774865954638      103.67071643936558
H          111.54207357803919      103.20198121681074      105.82638130533243
H          113.21316119174128      102.64561657114183      105.93393510487070
H          112.91554629130549      101.14898821969778      104.04578374536815
H          111.29709656176827      101.77318392785953      103.74044264683104
H          111.19810838942919       99.59502446268567      104.80097936702094
H          110.46897414493746      100.82345503249208      105.83060107547237
H          112.38170937358154      100.82255522109294      107.31776246179942
H          113.29968553033714       99.77882941667455      106.22810141582222
H          111.76385109782244       97.93170772469085      106.58283789572531
H          110.62731916474731       98.96393569929596      107.44191369570267
H          112.27815194394988       99.27628576790562      109.27186637535166
H          113.41843250600363       98.23171252557221      108.42568310914943
H          111.87256916750488       96.32885676004544      108.60251149209532
H          110.64187101670640       97.35712170992186      109.33438750084221
H          112.06546609528779       97.73684748158374      111.30167465491719
H          113.38841853994248       96.85036365908159      110.55022401167487
[...]
  3011   6 C     3012   6 C                                       1.5275091
  3012   6 C     3013   6 C                                       1.5270273
  3013   6 C     3014   6 C                                       1.5271095
  3014   6 C     3015   6 C                                       1.5267353
  3015   6 C     3016   6 C                                       1.5222482
  3015   6 C     3017   1 H                                       1.0926431
  3015   6 C     3018   1 H                                       1.0911849
  3014   6 C     3019   1 H                                       1.0931301
  3014   6 C     3020   1 H                                       1.0931963
  3013   6 C     3021   1 H                                       1.0930965
  3013   6 C     3022   1 H                                       1.0915009
  3012   6 C     3023   1 H                                       1.0911265
  3012   6 C     3024   1 H                                       1.0935687
  3011   6 C     3025   1 H                                       1.0929412
  3011   6 C     3026   1 H                                       1.0933032
  3010   6 C     3027   1 H                                       1.0913369
  3010   6 C     3028   1 H                                       1.0925611
  3009   6 C     3029   1 H                                       1.0927776
  3009   6 C     3030   1 H                                       1.0932672
  3008   6 C     3031   1 H                                       1.0927131
  3008   6 C     3032   1 H                                       1.0927549
  3007   6 C     3033   1 H                                       1.0930804
  3007   6 C     3034   1 H                                       1.0912912
  3006   6 C     3035   1 H                                       1.0914786
  3006   6 C     3036   1 H                                       1.0933684
  3005   6 C     3037   1 H                                       1.0930156
  3005   6 C     3038   1 H                                       1.0931303
  3004   6 C     3039   1 H                                       1.0936731
  3004   6 C     3040   1 H                                       1.0914187
  3003   6 C     3041   1 H                                       1.0899031
  3003   6 C     3042   1 H                                       1.0926412
  3002   6 C     3043   1 H                                       1.0932493
  3002   6 C     3044   1 H                                       1.0921899
  3001   6 C     3045   1 H                                       1.0922386
  3001   6 C     3046   1 H                                       1.0935129
  3000   6 C     3047   1 H                                       1.0927629
  3000   6 C     3048   1 H                                       1.0913559
  2999   6 C     3049   1 H                                       1.0923057
  2999   6 C     3050   1 H                                       1.0934768
  2998   6 C     3051   1 H                                       1.0920833
  2998   6 C     3052   1 H                                       1.0924082
  2997   6 C     3053   1 H                                       1.0924063
  2997   6 C     3054   1 H                                       1.0932860
  2996   6 C     3055   1 H                                       1.0925001
  2996   6 C     3056   1 H                                       1.0913976
  2995   6 C     3057   1 H                                       1.0922833
  2995   6 C     3058   1 H                                       1.0933246
  2994   6 C     3059   1 H                                       1.0930955
  2994   6 C     3060   1 H                                       1.0923344
  2993   6 C     3061   1 H                                       1.0906545
  2993   6 C     3062   1 H                                       1.0920596
  2992   6 C     3063   1 H                                       1.0923223
  2992   6 C     3064   1 H                                       1.0923712
  2991   6 C     3065   1 H                                       1.0926267
  2991   6 C     3066   1 H                                       1.0920271
  2990   6 C     3067   1 H                                       1.0922002
  2990   6 C     3068   1 H                                       1.0933673
  2989   6 C     3069   1 H                                       1.0921873
  2989   6 C     3070   1 H                                       1.0919373
  2988   6 C     3071   1 H                                       1.0914617
  2988   6 C     3072   1 H                                       1.0919431
  2987   6 C     3073   1 H                                       1.0923235
  2987   6 C     3074   1 H                                       1.0914877
  2986   6 C     3075   1 H                                       1.0928805
  2986   6 C     3076   1 H                                       1.0927217
  2985   6 C     3077   1 H                                       1.0922901
  2985   6 C     3078   1 H                                       1.0892451
  2984   6 C     3079   1 H                                       1.0930972
  2984   6 C     3080   1 H                                       1.0920957
  2983   6 C     3081   1 H                                       1.0932447
  2983   6 C     3082   1 H                                       1.0922941
  2982   6 C     3083   1 H                                       1.0904956
  2982   6 C     3084   1 H                                       1.0925474
  2981   6 C     3085   1 H                                       1.0926520
  2981   6 C     3086   1 H                                       1.0927242
  2980   6 C     3087   1 H                                       1.0916276
  2980   6 C     3088   1 H                                       1.0929813
  2979   6 C     3089   1 H                                       1.0930858
  2979   6 C     3090   1 H                                       1.0926926
  2978   6 C     3091   1 H                                       1.0923598
  2978   6 C     3092   1 H                                       1.0925814
  2977   6 C     3093   1 H                                       1.0926914
  2977   6 C     3094   1 H                                       1.0907652
  2976   6 C     3095   1 H                                       1.0916781
  2976   6 C     3096   1 H                                       1.0930411
  2975   6 C     3097   1 H                                       1.0930088
  2975   6 C     3098   1 H                                       1.0925730
  2974   6 C     3099   1 H                                       1.0915295
  2974   6 C     3100   1 H                                       1.0925840
  2973   6 C     3101   1 H                                       1.0934206
  2973   6 C     3102   1 H                                       1.0927814
  2972   6 C     3103   1 H                                       1.0918760
  2972   6 C     3104   1 H                                       1.0926557
  2971   6 C     3105   1 H                                       1.0930892
  2971   6 C     3106   1 H                                       1.0920973
  2970   6 C     3107   1 H                                       1.0917463
  2970   6 C     3108   1 H                                       1.0924293
  2969   6 C     3109   1 H                                       1.0930739
  2969   6 C     3110   1 H                                       1.0922225
  2968   6 C     3111   1 H                                       1.0923538
  2968   6 C     3112   1 H                                       1.0915860
  2967   6 C     3113   1 H                                       1.0931563
  2967   6 C     3114   1 H                                       1.0930605
  2966   6 C     3115   1 H                                       1.0931367
  2966   6 C     3116   1 H                                       1.0902066
  2965   6 C     3117   1 H                                       1.0917557
  2965   6 C     3118   1 H                                       1.0934478
  2964   6 C     3119   1 H                                       1.0938889
  2964   6 C     3120   1 H                                       1.0919167
  2963   6 C     3121   1 H                                       1.0897222
  2963   6 C     3122   1 H                                       1.0925578
  2962   6 C     3123   1 H                                       1.0923378
  2962   6 C     3124   1 H                                       1.0928388
  2961   6 C     3125   1 H                                       1.0928311
  2961   6 C     3126   1 H                                       1.0910434
  2960   6 C     3127   1 H                                       1.0910678
  2960   6 C     3128   1 H                                       1.0927472
  2959   6 C     3129   1 H                                       1.0935972
  2959   6 C     3130   1 H                                       1.0923891
  2958   6 C     3131   1 H                                       1.0917494
  2958   6 C     3132   1 H                                       1.0930899
  2957   6 C     3133   1 H                                       1.0927987
  2957   6 C     3134   1 H                                       1.0909885
  2956   6 C     3135   1 H                                       1.0928632
  2956   6 C     3136   1 H                                       1.0930835
  2955   6 C     3137   1 H                                       1.0916326
  2955   6 C     3138   1 H                                       1.0916592
  2954   6 C     3139   1 H                                       1.0930244
  2954   6 C     3140   1 H                                       1.0916886
  2953   6 C     3141   1 H                                       1.0912489
  2953   6 C     3142   1 H                                       1.0938886
  2952   6 C     3143   1 H                                       1.0934292
  2952   6 C     3144   1 H                                       1.0930934
  2951   6 C     3145   1 H                                       1.0933968
  2951   6 C     3146   1 H                                       1.0910229
  2950   6 C     3147   1 H                                       1.0917904
  2950   6 C     3148   1 H                                       1.0932109
  2949   6 C     3149   1 H                                       1.0929389
  2949   6 C     3150   1 H                                       1.0923985
  2948   6 C     3151   1 H                                       1.0925839
  2948   6 C     3152   1 H                                       1.0928459
  2947   6 C     3153   1 H                                       1.0926605
  2947   6 C     3154   1 H                                       1.0927821
  2946   6 C     3155   1 H                                       1.0921193
  2946   6 C     3156   1 H                                       1.0921590
  2945   6 C     3157   1 H                                       1.0926288
  2945   6 C     3158   1 H                                       1.0933173
  2944   6 C     3159   1 H                                       1.0930951
  2944   6 C     3160   1 H                                       1.0917517
  2943   6 C     3161   1 H                                       1.0923345
  2943   6 C     3162   1 H                                       1.0933430
  2942   6 C     3163   1 H                                       1.0930714
  2942   6 C     3164   1 H                                       1.0927276
  2941   6 C     3165   1 H                                       1.0914206
  2941   6 C     3166   1 H                                       1.0925598
  2940   6 C     3167   1 H                                       1.0926435
  2940   6 C     3168   1 H                                       1.0925919
  2939   6 C     3169   1 H                                       1.0928475
  2939   6 C     3170   1 H                                       1.0924653
  2938   6 C     3171   1 H                                       1.0915253
  2938   6 C     3172   1 H                                       1.0924551
  2937   6 C     3173   1 H                                       1.0923049
  2937   6 C     3174   1 H                                       1.0925481
  2936   6 C     3175   1 H                                       1.0922653
  2936   6 C     3176   1 H                                       1.0927983
  2935   6 C     3177   1 H                                       1.0927236
  2935   6 C     3178   1 H                                       1.0914840
  2934   6 C     3179   1 H                                       1.0933560
  2934   6 C     3180   1 H                                       1.0930827
  2933   6 C     3181   1 H                                       1.0930226
  2933   6 C     3182   1 H                                       1.0927718
  2932   6 C     3183   1 H                                       1.0912188
  2932   6 C     3184   1 H                                       1.0932128
  2931   6 C     3185   1 H                                       1.0935732
  2931   6 C     3186   1 H                                       1.0925520
  2930   6 C     3187   1 H                                       1.0928256
  2930   6 C     3188   1 H                                       1.0931734
  2929   6 C     3189   1 H                                       1.0900086
  2929   6 C     3190   1 H                                       1.0911982
  2928   6 C     3191   1 H                                       1.0936465
  2928   6 C     3192   1 H                                       1.0925053
  2927   6 C     3193   1 H                                       1.0927252
  2927   6 C     3194   1 H                                       1.0930692
  2926   6 C     3195   1 H                                       1.0925025
  2926   6 C     3196   1 H                                       1.0897440
  2925   6 C     3197   1 H                                       1.0925653
  2925   6 C     3198   1 H                                       1.0927785
  2924   6 C     3199   1 H                                       1.0936592
  2924   6 C     3200   1 H                                       1.0928251
  2923   6 C     3201   1 H                                       1.0911447
  2923   6 C     3202   1 H                                       1.0907034
  2922   6 C     3203   1 H                                       1.0903820
  2922   6 C     3204   1 H                                       1.0934583
  2921   6 C     3205   1 H                                       1.0933078
  2921   6 C     3206   1 H                                       1.0936401
  2920   6 C     3207   1 H                                       1.0921299
  2920   6 C     3208   1 H                                       1.0915181
  2919   6 C     3209   1 H                                       1.0920590
  2919   6 C     3210   1 H                                       1.0937392
  2918   6 C     3211   1 H                                       1.0924685
  2918   6 C     3212   1 H                                       1.0935114
  2917   6 C     3213   1 H                                       1.0933747
  2917   6 C     3214   1 H                                       1.0917524
  2916   6 C     3215   1 H                                       1.0912430
  2916   6 C     3216   1 H                                       1.0927370
  2915   6 C     3217   1 H                                       1.0926915
  2915   6 C     3218   1 H                                       1.0929397
  2914   6 C     3219   1 H                                       1.0930872
  2914   6 C     3220   1 H                                       1.0939194
  2913   6 C     3221   1 H                                       1.0932583
  2913   6 C     3222   1 H                                       1.0906280
  2912   6 C     3223   1 H                                       1.0914865
  2912   6 C     3224   1 H                                       1.0919019
  2911   6 C     3225   1 H                                       1.0931236
  2911   6 C     3226   1 H                                       1.0938898
  2910   6 C     3227   1 H                                       1.0935692
  2910   6 C     3228   1 H                                       1.0916832
  2909   6 C     3229   1 H                                       1.0901418
  2909   6 C     3230   1 H                                       1.0928759
  2908   6 C     3231   1 H                                       1.0928148
  2908   6 C     3232   1 H                                       1.0921950
  2907   6 C     3233   1 H                                       1.0927893
  2907   6 C     3234   1 H                                       1.0924040
  2906   6 C     3235   1 H                                       1.0926833
  2906   6 C     3236   1 H                                       1.0910518
  2905   6 C     3237   1 H                                       1.0939891
  2905   6 C     3238   1 H                                       1.0916235
  2904   6 C     3239   1 H                                       1.0915874
  2904   6 C     3240   1 H                                       1.0921081
  2903   6 C     3241   1 H                                       1.0934559
  2903   6 C     3242   1 H                                       1.0917579
  2902   6 C     3243   1 H                                       1.0918347
  2902   6 C     3244   1 H                                       1.0920515
  2901   6 C     3245   1 H                                       1.0932788
  2901   6 C     3246   1 H                                       1.0919467
  2900   6 C     3247   1 H                                       1.0924235
  2900   6 C     3248   1 H                                       1.0933432
  2899   6 C     3249   1 H                                       1.0927764
  2899   6 C     3250   1 H                                       1.0915848
  2898   6 C     3251   1 H                                       1.0923217
  2898   6 C     3252   1 H                                       1.0923979
  2897   6 C     3253   1 H                                       1.0878903
  2897   6 C     3254   1 H                                       1.0882860
  2897   6 C     3255   1 H                                       1.0871524
  3016   6 C     3256   1 H                                       1.0879258
  3016   6 C     3257   1 H                                       1.0878045
  3016   6 C     3258   1 H                                       1.0876453

 * 2 distinct bonds (by element types)

   Z      Z             #   av. dist./Å        max./Å        min./Å
   1 H    6 C        2178     1.0922652     1.0946716     1.0865306
   6 C    6 C        1071     1.5276832     1.5376210     1.5219470


optimized geometry written to: xtbopt.xyz


           -------------------------------------------------
          | TOTAL ENERGY            -3427.427740645483 Eh   |
          | GRADIENT NORM               0.000994223539 Eh/α |
          | HOMO-LUMO GAP              11.403724490691 eV   |
           -------------------------------------------------

------------------------------------------------------------------------
 * finished run on 2024/10/04 at 08:22:47.711     
------------------------------------------------------------------------
 total:
 * wall-time:     0 d,  5 h, 21 min, 29.834 sec
 *  cpu-time:     1 d,  5 h, 46 min, 40.660 sec
 * ratio c/w:     5.557 speedup
 SCF:
 * wall-time:     0 d,  0 h, 14 min, 13.888 sec
 *  cpu-time:     0 d,  1 h, 33 min, 42.732 sec
 * ratio c/w:     6.585 speedup
 ANC optimizer:
 * wall-time:     0 d,  5 h,  6 min, 34.476 sec
 *  cpu-time:     1 d,  4 h, 12 min,  0.884 sec
 * ratio c/w:     5.519 speedup

