3864
 energy: -5104.218155949813 gnorm: 0.000775498745 xtb: 6.6.1 (8d0f1dd)
C           56.86497371551407       62.11312607406093       29.64706862483892
C           57.02484851150174       61.01500840205208       30.48224298581361
C           58.16667230280220       60.94599223398491       31.27227099065232
C           59.12238140491690       61.94365313528471       31.22544721891922
C           58.95051666765773       63.03504755837793       30.39114720784888
C           57.81721763075488       63.11682407617253       29.60127559493568
C           55.98106608748558       59.92768341259530       30.52708159070566
C           56.56238506885528       58.60393225408566       30.02276399098059
C           55.41870729350457       59.76112400880554       31.94334345280876
C           54.78830540819272       61.05492079291252       32.47119083124916
C           53.57991541920699       61.45326044922948       31.66022203725671
C           52.51517867171346       60.58151665678223       31.46024420115835
C           51.40965415048748       60.96813967475762       30.72417641256898
C           51.34427001567395       62.23731996764127       30.17503829715004
C           52.39397503839024       63.11723511704176       30.37256593858673
C           53.49958607177750       62.72554018080651       31.10700110201426
C           54.41344381372493       60.91879404847627       33.95706765349192
C           55.62743870937564       61.06200088065467       34.89384249780466
C           55.34483479564520       60.35875624995732       36.19491866001502
C           54.26877995423259       60.73346210107929       36.99167925691201
C           54.00966691995928       60.07778623190305       38.18119656112111
C           54.81878462060636       59.03106177052417       38.59125591401754
C           55.88546987741922       58.64331262199298       37.79974363854680
C           56.14173280344095       59.30101242404620       36.61021023974592
C           56.00317911820356       62.53800569567036       35.10067060288796
C           57.42508607923242       62.73533175848631       35.66300095522718
C           58.00258696536791       64.03426530045776       35.15807024652801
C           57.42824053729418       65.25651769371157       35.48888213736963
C           57.96746976255537       66.44229520018330       35.02467418008263
C           59.09073492862920       66.42784027973900       34.21508736878811
C           59.66403122855133       65.21713803706614       33.86778457018207
C           59.12127898418978       64.03361276265079       34.33520537610573
C           57.46467016383425       62.68966895174216       37.19692992029913
C           58.90301202237949       62.74203639535716       37.73983225203133
C           59.69139424707934       61.55633384011553       37.24762135943157
C           60.80778070182789       61.73537048098709       36.44023987198549
C           61.51448202335425       60.64875999992073       35.95435886443269
C           61.11451595064604       59.36148613100518       36.26929614443031
C           60.00928297827409       59.17289496920762       37.08253953199174
C           59.30652115636293       60.25983969385113       37.56764852622018
C           58.89176309269590       62.80746996726771       39.27281589017851
C           60.28647687158688       63.02024492820922       39.88661346210865
C           60.88139806192959       64.31862230810547       39.40695426885213
C           60.29102644599342       65.53995980707603       39.71108807046985
C           60.84339300834056       66.72718966934177       39.26808981357357
C           61.99721073190481       66.71509504365829       38.50366802646966
C           62.59257821931408       65.50599345070174       38.18835158683715
C           62.03875402070251       64.32078640813786       38.63891551075399
C           60.16996030486769       62.98736368490640       41.41741245467139
C           61.45915539800136       63.32263866627813       42.18004024556231
C           62.55108167369899       62.32002129942364       41.90200476940818
C           62.46741221410488       61.01097752080518       42.36151387498054
C           63.48292663279825       60.10419140137845       42.11748015605767
C           64.59945989341568       60.48734708192851       41.39625387117155
C           64.69902863179561       61.79024379832224       40.93891806466993
C           63.68644726886848       62.69815147852275       41.19593540221346
C           61.16379783535452       63.39420393787328       43.69077239983606
C           60.55566345342915       64.73648711560939       44.12608527799150
C           61.55048531611627       65.84829071532828       43.90561710158055
C           61.29641235025821       66.84472565109247       42.97238507675915
C           62.21165250979681       67.85578460655803       42.74207604415990
C           63.40079808092146       67.88920630491074       43.44809278350403
C           63.66596878642697       66.90260359301361       44.38336087341342
C           62.75020489961749       65.89153267805209       44.60717318954877
C           60.09760481671704       64.68081385635949       45.59189969388175
C           59.40384185278276       65.98206543501013       46.03431166953285
C           59.55216425302237       66.19135686797414       47.52027558274271
C           59.03336658910722       65.27819619456564       48.43160953728076
C           59.15950270682074       65.48826839778525       49.79241571330871
C           59.81494502466589       66.61089457193786       50.26805884942765
C           60.34228914886344       67.52292036324235       49.37133432833853
C           60.20929875129227       67.31214353616964       48.01005671725085
C           57.91691960454017       66.01511632921346       45.64422342586098
C           57.39120618982849       67.45787545045827       45.62303528805799
C           57.95592490480319       68.18431194620874       44.42688520892698
C           57.61622722272885       67.80477719402542       43.13277942016764
C           58.13893651828218       68.46600198941456       42.03654496146362
C           59.01588364619920       69.52256485579919       42.21513342767352
C           59.36203381797277       69.91152175574319       43.49702645305331
C           58.83361584382175       69.24769497012136       44.59060538003608
C           55.85454109456493       67.53443041039256       45.61031678854037
C           55.20969102651652       67.34032458913553       46.99297754905414
C           55.73462477473737       68.35582252450635       47.97363828791421
C           56.46079278698888       67.94468900416555       49.08417127953981
C           56.96712450303917       68.86570967580671       49.98325530924235
C           56.75437498765730       70.21860648729665       49.78547859971972
C           56.02977228967124       70.64135497325712       48.68336261030262
C           55.52568918480523       69.71740534639095       47.78640754109552
C           53.68030108879986       67.41631174241427       46.84924257435834
C           52.91493860418439       67.42648919643051       48.18355961903961
C           53.35164600864757       66.32888755152136       49.11598703821335
C           53.37087478391338       64.99753384030841       48.71480837804494
C           53.71465981670479       63.99534061720438       49.60363050202067
C           54.03502636784609       64.30894519928297       50.91385975325355
C           54.03808138046455       65.63099185597322       51.32158135469982
C           53.70725311725901       66.63233835527576       50.42486618817593
C           51.40478911551460       67.34284444430905       47.89085139452685
C           50.49475873837673       67.49778200106495       49.12721222819901
C           49.19901164355879       68.15535108161660       48.72018078631012
C           48.30144172433211       67.51270338469986       47.87423446033717
C           47.11276502393837       68.11912478513008       47.51222995148243
C           46.80242702796390       69.38357858437892       47.98359949080713
C           47.69331510292101       70.03799273139543       48.81652378003539
C           48.88065130666863       69.42650434586440       49.17979757231378
C           50.22018813784448       66.15124320275125       49.81068180239686
C           49.20930415768932       66.23841773067562       50.96690893453624
C           49.59481297513661       67.29901355471671       51.96208704712917
C           48.71054233002329       68.32571351395683       52.26867073389901
C           49.05874561789474       69.32127268182944       53.16442731431094
C           50.30755571415131       69.31104859468242       53.76216158794364
C           51.19633674477382       68.29182793117671       53.46519369621337
C           50.83973037425550       67.29020529538182       52.58086014799871
C           49.09858245043667       64.85869357324724       51.62997865963118
C           47.92439441091955       64.70956297778108       52.61168652426966
C           46.61326032030905       65.02662840513167       51.94078962700755
C           46.14545166829879       64.26298532939181       50.87749530035678
C           44.93487660137551       64.54880048591157       50.27562334575013
C           44.16780027572947       65.60883028554986       50.72712352007829
C           44.62088407221623       66.37691118984594       51.78539085138019
C           45.83268117802230       66.08481242383144       52.38695297211867
C           47.94004243328123       63.27084572064046       53.15594137258982
C           46.67687175544982       62.84228708867606       53.91303672052730
C           46.55610354108438       63.55968736136707       55.23086375039345
C           45.48532804644880       64.41205688908752       55.46831089105829
C           45.37109950208831       65.09443305034245       56.66668064818594
C           46.33220401156734       64.93807126732474       57.65068825107910
C           47.40353682741300       64.09042511100611       57.42729292786073
C           47.51020660618966       63.40692762181641       56.23030710978733
C           46.67610076933716       61.31508183229264       54.08475189215743
C           45.32653271554347       60.77167727106529       54.57422562629945
C           44.20111277868614       61.27783616975400       53.70787797910658
C           44.20202894902175       61.06661896114050       52.33342269389938
C           43.17473693911661       61.54459268729484       51.54183643736727
C           42.12215037280095       62.23968017033562       52.11145443905113
C           42.10831846512311       62.45555380887453       53.47836593139761
C           43.14141762291381       61.97984897758069       54.26703261966734
C           45.34649812646006       59.23491128439750       54.58526287232466
C           44.07708984693519       58.63904755141132       55.21006582901435
C           43.93486811668187       59.05074024197587       56.65314278086354
C           44.93069586991322       58.77114260074585       57.58202745787280
C           44.79288143627361       59.14374159896788       58.90667088904883
C           43.64788762108498       59.79640696579172       59.32941184046900
C           42.64523698225116       60.07521685875940       58.41644332155124
C           42.79122749051649       59.70672939158329       57.09068939393281
C           44.07999063078080       57.10741289178517       55.09210480697197
C           42.74412459666009       56.49207907074318       55.52980889443383
H           55.15773043576835       60.21834948032977       29.86328937028907
H           54.67688545563055       58.96265542912659       31.93762025525417
H           56.21987476203793       59.44692948289123       32.61309248061414
H           55.53140220140300       61.85456981286715       32.37340338866239
H           53.67191682964100       61.67981214113320       34.21174803926912
H           53.95658703999551       59.93939829534418       34.11833275897484
H           56.48156872254494       60.56652500070778       34.42033526616766
H           55.95315213252660       63.04220916502920       34.13183319912121
H           55.27534721259534       63.01866747835351       35.75676428967973
H           58.05552862212595       61.92269818264565       35.28506080037838
H           56.97864984942380       61.77587964414397       37.53865499139595
H           59.37727194189552       63.65618542457528       37.36219542713414
H           58.24446801997227       63.63215984292749       39.57741753928451
H           58.46499311943871       61.88641340177124       39.67262276757688
H           60.94044468679624       62.20136556508070       39.56532185840588
H           59.40702564632942       63.70337881405936       41.71958977304983
H           59.82573730298700       61.99587761241108       41.71791290381381
H           61.81366489815142       64.30574984474744       41.84981367264886
H           60.47518233951931       62.59064707904472       43.95389310987817
H           62.09289076417559       63.23374104547721       44.24172634597107
H           59.67920425632827       64.94258283618035       43.50422522480204
H           59.90842362944290       66.81063012474773       45.52430227225579
H           57.78708569632556       65.56941765004711       44.65727907654833
H           57.33891703273185       65.42657309360938       46.35752567814696
H           57.74498223569561       67.96223024960558       46.52958664049208
H           55.56685475755551       68.51714204586779       45.22894617508880
H           55.44881313145050       66.78770758912880       44.92832467972039
H           55.47067511242390       66.34723117838314       47.37219203283271
H           53.41602386269358       68.32526384076279       46.30435400691116
H           53.34963371372302       66.57200040466131       46.24161942185383
H           53.11106675974165       68.38470447752917       48.67879060166840
H           51.16192026147724       68.14175422838412       47.18500400517615
H           51.18419764417172       66.39540082763368       47.39792741227609
H           50.99574177594861       68.15568403795479       49.84594295417681
H           49.82368582876297       65.45429093235920       49.07141487665638
H           51.15980236553265       65.74711053982205       50.18509266407418
H           48.23036885489164       66.50041680570737       50.54967710082179
H           48.97630009080514       64.11962490156810       50.83674345296727
H           50.02914054097354       64.63942779573931       52.15809572836179
H           48.06242357285374       65.41193058626706       53.44200701215971
H           48.06982585110040       62.58639656313100       52.31740661778114
H           48.80546363457066       63.16140624518047       53.81025894402802
H           45.80956067147373       63.10949785135823       53.30108552355375
H           46.91874740795141       60.85689707605514       53.12444978524970
H           47.45419966406241       61.02220866935856       54.79066543792962
H           45.15941336731662       61.12607366688447       55.59836493869320
H           45.43802264094837       58.87484094124173       53.55901633299302
H           46.22239049214453       58.89239073084356       55.13765939817736
H           55.98049881065345       62.18628954112199       29.02851616918343
H           57.67410393869530       63.96500505532752       28.94665741622731
H           59.69479446607495       63.81735172919579       30.35670410469055
H           60.00844662133157       61.87101116588694       31.84041702540233
H           58.31168274087971       60.10242078369725       31.93058744789661
H           52.54794204215523       59.58578739160694       31.87712612895924
H           50.59688595390445       60.27237166641769       30.57029732534124
H           50.48243472417466       62.53677991156803       29.59554943963786
H           52.35298632630326       64.11178279180531       29.95112816940555
H           54.31901439632397       63.41828886885654       31.24678107041463
H           53.62788388651141       61.54519184310114       36.67728893486739
H           53.16992940571652       60.38665470682999       38.78745333829454
H           54.61356743693594       58.51531400328486       39.51907071339745
H           56.52593201060499       57.83016405335471       38.10467655476027
H           56.97776707060874       58.99344432715984       35.99751508376706
H           56.54710094295923       65.28519618699457       36.11276139892841
H           57.51077131806587       67.38446049556718       35.29349426550161
H           59.51402931589669       67.35431690370488       33.85416272284851
H           60.53757938814807       65.19560810748573       33.23112317270093
H           59.57308782587656       63.09165697167615       34.05862942443691
H           56.90691009062511       63.53866257666236       37.59701948281784
H           61.12323446207650       62.73916246903647       36.18741533081786
H           62.38108927410983       60.80571246744660       35.32630078251267
H           61.67327613368606       58.51743192254595       35.89004139778166
H           59.68778961546086       58.17495989879799       37.34681009131291
H           58.44675279511140       60.08975867645309       38.19677997080529
H           59.38866196956855       65.56973517278905       40.30350965536076
H           60.37481938117938       67.66773991878877       39.52098554572283
H           62.43105347003252       67.64162794629739       38.15551558364304
H           63.49378045253155       65.48715036772738       37.59081227074711
H           62.51218697835957       63.37986372149792       38.39312361243587
H           61.60730889133283       60.69234939798419       42.92836197147699
H           63.40613264143575       59.09453468416849       42.49590888662572
H           65.38532994119525       59.77576007640405       41.18654544567233
H           65.57191046530627       62.10245330761050       40.38144300640836
H           63.77761423293283       63.71719691077635       40.84327386151341
H           60.36967571154699       66.83596774917334       42.41814929917987
H           61.99410043568692       68.61913965380126       42.00928900782606
H           64.11852266855246       68.67776107256101       43.27199468837085
H           64.59317990307616       66.92160403709441       44.93909547542665
H           62.97768998184973       65.12976419625448       45.33899194427643
H           59.41496799803536       63.84008792561009       45.72629610630734
H           60.96394027406036       64.50318757062601       46.23246941340451
H           58.52543273473761       64.39348667754274       48.07649476766915
H           58.73786342130636       64.78005197430248       50.49201017526619
H           59.91533528371147       66.77438785956920       51.33179835986213
H           60.85590970074757       68.40310498326149       49.73217519965164
H           60.62686242223228       68.02839803493106       47.31482153263302
H           56.92664967182492       66.98862267769219       42.97634867725135
H           57.86169487223214       68.15881160980754       41.03759846295762
H           59.42545143094418       70.04191006581863       41.36027399370381
H           60.04586193182563       70.73518952082306       43.64649175774225
H           59.10303250914905       69.56373505134516       45.58960759242195
H           56.63685931643750       66.89116673989047       49.24760939854485
H           57.53311424394295       68.52504586070769       50.83822567890219
H           57.15015110044231       70.94161921305030       50.48462732957098
H           55.85908956430692       71.69677494833688       48.52254636559691
H           54.96457694802728       70.06525855731778       46.93117933520001
H           53.10581793366489       64.74250816934965       47.69988664499831
H           53.73464470633863       62.96539365397821       49.27746715297991
H           54.28577867649108       63.52918576210224       51.61610039910826
H           54.29132576995179       65.88114672526207       52.34310309384598
H           53.71181606137930       67.66435466794549       50.74935127098256
H           48.52448662744872       66.52770028788466       47.49376643736269
H           46.42428648851480       67.60011397952420       46.86086735752422
H           45.87263593119452       69.85787557953925       47.70344509993187
H           47.46184379649410       71.02666312942415       49.18777961639280
H           49.56733086937742       69.94242820545466       49.83746680162180
H           47.73968003222696       68.34836158477151       51.79234830673023
H           48.35727425835822       70.11241071166948       53.39085001561502
H           50.58578893432357       70.09388980689270       54.45377902651660
H           52.17505043462996       68.27834217913951       53.92340975054788
H           51.54649326062171       66.50232638397651       52.36644077618585
H           46.73072345445374       63.43046242848972       50.52115925022995
H           44.58503695772783       63.94518263630143       49.45085969207836
H           43.22013159600154       65.83553051427013       50.25968464953256
H           44.02694180884181       67.20548810737625       52.14661912481044
H           46.17617132138096       66.68462858829719       53.21945226772654
H           44.73325426674491       64.54297596822512       54.70184356078817
H           44.53052149845630       65.75391449503232       56.83321577927860
H           46.24679937867672       65.47417781516492       58.58524341503190
H           48.16051209159634       63.96794565155021       58.18977836574343
H           48.35102664519200       62.74579513752104       56.07846346611264
H           45.01920442706492       60.53148010144770       51.87348204897775
H           43.19308337124292       61.37465172141495       50.47513868977162
H           41.31764636916598       62.61558961447004       51.49509217085498
H           41.29174331189970       63.00078760270537       53.93212228424662
H           43.12908595453724       62.16030450630514       55.33379092963413
H           42.00493637419032       59.93092497124493       56.38210952926315
H           41.74663380731358       60.58357486025341       58.73895123808306
H           43.53522532802916       60.08771062841188       60.36438555741874
H           45.58414473215902       58.92424355805372       59.61005726874428
H           45.83279726116843       58.26285993858989       57.27523169382948
H           56.96429741702986       58.72393187237994       29.01863633439081
H           57.36260626564009       58.25620943389917       30.67243437132821
H           55.78933696792146       57.83934059600642       29.99448337400173
H           43.21181006048641       59.02204414580951       54.65558499522155
H           44.27911988710623       56.83643587773633       54.05538882763790
H           44.88838666187351       56.70476734309106       55.70240756718441
C           42.79219341710945       54.95555513314815       55.55724151823733
C           41.62705098420586       56.92462023319518       54.61151835653754
C           41.68179648479242       56.67523471776414       53.24488469512868
C           40.64922061583575       57.05840305486320       52.40962055604337
C           39.53490301895543       57.69555997565873       52.92706845725586
C           39.46295604209605       57.94268587893472       54.28716730793256
C           40.50022368932788       57.55826123985457       55.11947885877005
H           42.53801140742834       56.17646222712259       52.81898211252533
H           40.71685404024823       56.86504815934071       51.34850169974994
H           38.72419324798600       57.99367932959923       52.27716472413060
H           38.59482122899645       58.43663257798173       54.70208864872061
H           40.43377666786351       57.75193128160281       56.18209766755200
C           43.62260591371317       54.37186567952467       56.70670777806777
H           41.77034432751429       54.57611922150171       55.64073770477746
H           43.19555515503110       54.59213967653094       54.61333096250302
C           43.01835757281217       54.68554842281046       58.04258445880772
C           43.51187007000066       55.71660918636127       58.83158427589831
C           42.92701809487674       56.01991490753068       60.04875865920409
C           41.83798704692083       55.29177553580727       60.49499922081192
C           41.33873840952859       54.25969290490201       59.71688908727912
C           41.92567234518349       53.95941776279349       58.50139562806402
H           44.35708120786255       56.29851162223710       58.49139355610843
H           43.32200050501402       56.82886347943277       60.64720848678813
H           41.37907120016173       55.52643249510378       61.44558284278914
H           40.48848898808535       53.68672211246822       60.06122463650653
H           41.53701953396249       53.14770416503865       57.90210406899400
H           42.51402441940713       56.84521046531196       56.54150479155494
H           43.65573611049584       53.28765412668510       56.57621374797716
H           44.63997443487072       54.76063626271704       56.65712167718127
C           37.50404600186356       31.47231314703414       55.62998907943450
C           38.28850524122510       32.58937004604086       55.89150063774178
C           37.96801548589769       33.37985006621986       56.98863973328334
C           36.89817017652274       33.06264057471112       57.80655888970060
C           36.12875314985635       31.94372510084524       57.53985504730830
C           36.43550893870086       31.15011628150513       56.44717341922224
C           39.44829202868380       32.96920383883141       55.00320858787839
C           40.42160649684065       31.80516739356709       54.81479222220028
C           38.89869011163444       33.48506466613711       53.66341350826842
C           39.94281620448221       34.12437225056129       52.72773044980549
C           39.22865430492367       34.52639386768194       51.46120430017357
C           39.30684681008379       33.71270026402799       50.33791996154216
C           38.60947727362252       34.02378567632206       49.18446210727609
C           37.83648360980614       35.16961709867866       49.12545173968061
C           37.75517520404270       35.99138025311814       50.23585131370583
C           38.43429756297070       35.66534261355838       51.39602526206179
C           40.64826191002260       35.29022051872077       53.42646015968755
C           41.50143322354818       36.17866471584135       52.51034997206228
C           42.51344746421604       35.37372892058420       51.73724551296000
C           43.54964404186691       34.70977504841316       52.38300889339160
C           44.49627401911632       34.00454821825298       51.66309187200553
C           44.41892594327209       33.94047081791206       50.28332974154317
C           43.37684448759867       34.57610891025048       49.63112181103781
C           42.43483237358860       35.28836982025706       50.35244671100691
C           42.18329802794616       37.23782822769310       53.38575095153674
C           42.98958810854590       38.26607782716378       52.58923525902424
C           42.11794680703072       39.10646298964127       51.69153179574318
C           42.44180930106718       39.29110861184974       50.35456363111445
C           41.65522547605082       40.07552216254719       49.52947218770151
C           40.52116270450957       40.69007319515561       50.02838471392977
C           40.20039772951836       40.53317369375910       51.36483490286614
C           40.99169877702087       39.75424591990452       52.18604182391478
C           43.78028853486857       39.17235768899487       53.54701088948869
C           45.04633803316296       39.76510201471425       52.90887816379315
C           46.04575349598582       38.66042760112664       52.66851744743067
C           46.13421927546386       38.03047062650767       51.43387517398955
C           47.02452667257612       36.99217998095222       51.22582043979963
C           47.86348618418825       36.57963670370781       52.24434933593474
C           47.78491672586101       37.19649222276770       53.48001952729327
C           46.87801726637704       38.21835763767338       53.69064651010767
C           45.63272915291300       40.84631728098230       53.82635255346617
C           44.99998447745033       42.23653850685476       53.65260514210914
C           45.19047972458214       43.01288801302091       54.93103799294448
C           44.10570749829245       43.54387311759828       55.61448328628851
C           44.27650530630562       44.20776020045047       56.81690860346671
C           45.54236483113500       44.35746055691117       57.35414954184342
C           46.63423671231308       43.84085799440915       56.67740123738808
C           46.45932487661931       43.18326233505065       55.47427005981879
C           45.64617064960041       42.97512824671632       52.47589135858659
C           45.02320810125828       44.35890407324265       52.23300784840493
C           43.77682347550343       44.21381877885104       51.39778027162320
C           43.84383712195841       43.78902369838855       50.07492894321220
C           42.69598557302675       43.64939908784380       49.31888573245695
C           41.46157396081365       43.92685205116057       49.87811917047527
C           41.37723536588511       44.33414596957693       51.19606653675147
C           42.53006639964207       44.47704975616472       51.94657567390110
C           46.02078452499983       45.31683056931728       51.56704495051859
C           47.21471213276447       45.69243856010517       52.47477449267877
C           46.92759708389921       46.97741829225900       53.21035768202927
C           47.26686561960928       48.22171590482914       52.69536308722282
C           46.96904183323544       49.38129511506798       53.38949169084656