3864
 energy: -5104.234776574129 gnorm: 0.000946127390 xtb: 6.6.1 (8d0f1dd)
C           53.13907858060368       58.10155577119702       29.24583983167067
C           52.11575936286986       58.41517559254526       28.36008826000754
C           51.71692591619855       57.44766121026782       27.44466492286577
C           52.30964204132395       56.19815803493468       27.42933733563476
C           53.31991048991854       55.89407816854112       28.32590798235454
C           53.73720955133113       56.85335665646755       29.23183830875037
C           51.47581521330714       59.78162656321960       28.39219122526833
C           51.88844891123468       60.58061535165660       27.15238334809755
C           49.94664303534797       59.70190700057825       28.49076159274635
C           49.47456415954807       58.86384775565718       29.68716964453158
C           49.90707172658356       59.49676820959152       30.98533209728213
C           49.34693689376351       60.68469964754868       31.44240284052356
C           49.75888354036973       61.24594815895232       32.63798719637961
C           50.74718558208950       60.63756795489184       33.39204648182035
C           51.32296205814917       59.46309570997875       32.93997865282538
C           50.89811450816504       58.89613477950351       31.75173694923459
C           47.95519887559767       58.66325906663305       29.63254301675686
C           47.44726807895983       57.80907518118701       30.80077702971750
C           48.10190827178975       56.44834034740542       30.78344033944837
C           47.88960726664481       55.55604046305037       29.73842116234421
C           48.51832553867365       54.32404483045646       29.71974509551833
C           49.37971934132638       53.96336874901766       30.74194637380391
C           49.59272726141289       54.84012854458342       31.79121489433620
C           48.95100324974705       56.06567518720890       31.81425613319726
C           45.92041117554260       57.65619784846471       30.77150980389862
C           45.11553895264545       58.93432601289115       31.05576985321530
C           43.65377038171299       58.62178526745193       30.82790095331683
C           42.97270242216480       59.18422569599345       29.75632778797983
C           41.63806203256762       58.89545882805715       29.53043095560411
C           40.96207787910657       58.03419898592178       30.37558659265190
C           41.62876094994780       57.46317365679796       31.44540249972564
C           42.96105785662309       57.75502236533058       31.66528353325965
C           45.36251316535157       59.46310009731119       32.47399033382907
C           44.42930697112333       60.63641113235872       32.81736360526951
C           44.99942507399052       61.94614412721558       32.34105146070682
C           44.36830378589233       62.65564929891404       31.32740676710061
C           44.87717248380643       63.86286997466971       30.88103897532909
C           46.02901847988169       64.38244030958276       31.44628777442983
C           46.66932876928144       63.68239107271862       32.45465985796746
C           46.16099956836860       62.47369232339613       32.89366031133952
C           44.11018430606126       60.66833457771998       34.31658151049960
C           43.01825413786784       61.69279357285216       34.65903495440661
C           41.81550566364468       61.53252062083868       33.76350210498165
C           41.14092480497403       60.32125410120769       33.65952444023294
C           40.04292495617888       60.18874360457275       32.82968134806850
C           39.59535090243936       61.26934054097119       32.09063537824762
C           40.25819866704665       62.48086489535430       32.18325620416282
C           41.35984966112552       62.60731701141409       33.01069795405197
C           42.62309090373487       61.54058904458820       36.13420688652398
C           41.53720147370456       62.53167089797235       36.57180276162399
C           42.02940457285734       63.95352986630640       36.47134489582968
C           43.15819076815622       64.37940357462531       37.16227389963647
C           43.60145956563543       65.68547147231735       37.06344666435204
C           42.91900915052890       66.59366745119284       36.27222815099704
C           41.78590542520570       66.18628096180862       35.58944001932584
C           41.34595511865055       64.87805213361148       35.69206326999272
C           41.06362095910517       62.24941989653212       38.00718381060808
C           40.20339454453558       60.97943533327616       38.13262293051869
C           38.86064274673734       61.20497475981738       37.48972208004933
C           38.59211434674031       60.67137380130098       36.23581621774542
C           37.37731530135380       60.88987739011700       35.61148506788353
C           36.40144399702046       61.64075573268562       36.24182196322819
C           36.65676846651828       62.17988581938545       37.49159818957782
C           37.87781191921722       61.97073910285408       38.10595471047812
C           40.11141698529728       60.57672697263000       39.60989056417952
C           39.12034232655760       59.44428622051564       39.91547737728818
C           39.03530703995173       59.29794680973046       41.41341206396785
C           37.85891880839105       59.60581866323439       42.08381026782192
C           37.78558839725760       59.53070924504081       43.46337125735253
C           38.89855541588798       59.16497358444835       44.19942448546550
C           40.07519618581908       58.85286529239910       43.54121059043501
C           40.14014072596035       58.90739949735745       42.16122103950791
C           39.51715062330739       58.12687650853086       39.23906637362978
C           38.50474517208439       57.01357544137445       39.53796020890466
C           37.10927425934351       57.45044651836289       39.16486855163967
C           36.09212748991960       57.43933130206643       40.11026771508172
C           34.81609388914284       57.86479686764056       39.78650730904486
C           34.53425341917943       58.30607514830578       38.50544782806183
C           35.53538938954414       58.30575257709008       37.54938095081304
C           36.80863976765572       57.87776520574763       37.87615750870020
C           38.83796544554149       55.71102760391717       38.79398363148938
C           40.14446271956426       55.04579620787177       39.24677626528198
C           40.18399937816339       54.86097777020264       40.74499890078074
C           39.20276294575922       54.13359148799175       41.40852503323008
C           39.27768016245916       53.92059734344933       42.77274765060818
C           40.33654970240451       54.43387294997101       43.50112314359923
C           41.31031226117361       55.17433067078057       42.85510476044964
C           41.23228316057777       55.38546319247398       41.49029313713667
C           40.34707454335727       53.66866374326458       38.58658973326117
C           40.37176555690998       53.66743250823721       37.04983992051409
C           40.33137182475431       52.24165573133297       36.55445656814344
C           39.18658871403827       51.75092308554748       35.93743588273559
C           39.12404583383260       50.44497509433510       35.48413294815953
C           40.21325348348154       49.60623013479769       35.63757532812457
C           41.35998109673195       50.08537576015375       36.24414025522136
C           41.41776311241475       51.38813425527928       36.70242513808662
C           41.58006012269608       54.41896392780549       36.47836149587412
C           41.54774355072408       54.41869081658682       34.94376057384335
C           40.28632183511304       55.09025039416898       34.45807108699471
C           39.98382026570644       56.40145952129726       34.81119748708014
C           38.79911940957371       56.99197468358627       34.41024160620620
C           37.89729109568378       56.28469589329198       33.63368399503970
C           38.19331704206143       54.98559865640899       33.26008092312068
C           39.37559774013057       54.39583533636215       33.67154320847720
C           42.78276476409834       55.09147264412377       34.32728981809993
C           44.10211789227859       54.35655934509891       34.64126356022774
C           44.91006827493510       55.09908611564749       35.67827709032505
C           45.28668419539301       56.42210283087476       35.47342594968011
C           46.01867981208505       57.11340772648996       36.42059164582460
C           46.39789815362875       56.48530512552344       37.59410365542620
C           46.04594351286402       55.16380557355009       37.80207234603726
C           45.31088508232946       54.47642414526875       36.85239476275274
C           44.97781379041539       54.13189590304778       33.39535510273545
C           44.40915578534925       53.08058145869582       32.42216832299297
C           43.51199746179291       53.69975342895438       31.38069134085120
C           42.15317477597099       53.41109996816076       31.35435671305257
C           41.32495011080520       53.97482870734928       30.40056034671806
C           41.84649600583732       54.83144448528333       29.44724778287996
C           43.20008473945438       55.11959678780010       29.45721866244950
C           44.02406754691820       54.55884868724326       30.41486058817744
C           45.55137664488971       52.29957217978050       31.75194666668918
C           45.04001961140454       51.28244843536076       30.72076478521102
C           44.00813384474937       50.36515182139080       31.32689082823191
C           44.28011694087997       49.61450878084045       32.46528750520701
C           43.30844203765354       48.81365183034666       33.03721095632087
C           42.04726318123096       48.73830499695718       32.47189457130401
C           41.77005837886531       49.46547023063264       31.32788785192617
C           42.74187698877200       50.27319357798783       30.76394976109076
C           46.20900103925316       50.48752155843849       30.12163601754967
C           45.80568649260588       49.72440580580837       28.85291853880670
C           45.36745651527362       50.68357607426214       27.77475344871174
C           44.08015503368901       50.62774316361305       27.25619702834077
C           43.66982156867447       51.50882514864811       26.27092193258478
C           44.54679222969211       52.46144938688639       25.78276531993633
C           45.83660049203831       52.52061428720801       26.28296642043524
C           46.24135485126379       51.63895168289823       27.26789160848441
C           46.96517546462646       48.85441660273393       28.33855622626248
C           47.17058005905773       47.57019610267790       29.16590518846762
C           48.63981648552139       47.30397223711726       29.37227862211777
C           49.18860906997387       47.36900942587806       30.64504174261969
C           50.53804322465439       47.14995261212213       30.84916690123848
C           51.35997126296122       46.84083420494878       29.78103807430582
C           50.82537115293643       46.77328654853520       28.50640941708226
C           49.47873760932976       47.01180488692637       28.30328434583286
C           46.48390479088569       46.37017535193232       28.50398737280298
C           46.60136179730124       45.10614248763104       29.36521175451342
H           51.84515224423587       60.30873564993025       29.27941453620051
H           49.54883859445604       60.71582483867706       28.57554855165255
H           49.54447944250850       59.26619074218677       27.57395687277795
H           49.94764505018318       57.87774160598635       29.61528440241926
H           47.46025457692777       59.63495901763278       29.65022273256482
H           47.69744617213370       58.17833593246855       28.68832129945404
H           47.73590483181675       58.30289496789121       31.73304428577744
H           45.61706215119229       57.27866730157073       29.79245132320282
H           45.63842859623425       56.90461639765897       31.51214013518397
H           45.40643264230053       59.71374526917535       30.34405387802619
H           46.40139492869182       59.78333191118796       32.56428632006743
H           43.48222069406198       60.47268012434926       32.29320579800167
H           43.77061655142982       59.67465816736257       34.61548907125777
H           45.00779796380922       60.89656340932485       34.89341000397012
H           43.42232062718183       62.70030668303714       34.50657396965529
H           42.26359547356254       60.52317106948729       36.29131145794328
H           43.51562253448314       61.67613919669321       36.74767555501970
H           40.67669937713058       62.42103846488357       35.90248375093073
H           41.93427193622128       62.15923635057486       38.65904451651652
H           40.48209079406949       63.10365388388566       38.36376254673629
H           40.70272674267806       60.16982411082621       37.59417925713086
H           38.13307103490073       59.73621633843862       39.54075429331212
H           39.56796243405586       58.28302202196153       38.16105254746838
H           40.50497033458593       57.82398515297448       39.58723463985295
H           38.52335076380687       56.81179449774718       40.61508734175820
H           38.01014205094154       55.01446893233279       38.95007373665626
H           38.89278782386580       55.92870625395928       37.72547010792614
H           40.98114611054928       55.68996602704067       38.96275940336948
H           41.28486689791468       53.24570780592921       38.95703977168037
H           39.54195387023757       53.00380203857718       38.91106416819550
H           39.46357700492050       54.15986284752827       36.68797109630029
H           41.57326608833853       55.44753586490426       36.84006155671177
H           42.50334545837927       53.95677454516240       36.82626136733068
H           41.52797529779189       53.37683227306134       34.60374542053979
H           42.63578128664470       55.12753509416726       33.24685085168583
H           42.83747953881443       56.11972642808853       34.68934489274206
H           43.86550581104890       53.36487184387353       35.04198894447353
H           45.13319147978014       55.07499924706957       32.86894506069225
H           45.95724203317594       53.79126532819343       33.74174841611894
H           43.81371172721154       52.36403622772409       32.99895722236703
H           46.23300337851501       52.99414580781283       31.25537723528879
H           46.11781704963185       51.77942893058737       32.52668038991543
H           44.56389941235268       51.84243828595931       29.90746039975349
H           47.01715440939100       51.18211616634157       29.88212834417778
H           46.58438897008949       49.77638846240401       30.85885331313987
H           44.96105001942195       49.07055817451305       29.09862908683904
H           46.77205864188828       48.58669006615685       27.29681804201574
H           47.88303889204834       49.44457076594277       28.35351881503483
H           53.46912842282002       58.84412636659357       29.95927670517300
H           54.53145485668446       56.63312632622729       29.93143281391917
H           53.77833958682595       54.91549174503466       28.31176316151702
H           51.98172199167230       55.45582109810148       26.71566216840630
H           50.93166189605923       57.66665120408091       26.73616013895480
H           48.57709924699766       61.18123023408634       30.86847198715312
H           49.30728649562757       62.16495699824559       32.98139190925261
H           51.06041447691328       61.07845772532896       34.32745928365429
H           52.10505760297309       58.98317830143796       33.50936180775754
H           51.34327810955575       57.97257060514062       31.40840104709477
H           47.23122034614079       55.82339765217063       28.92405869779025
H           48.34111360073955       53.64682389212665       28.89600996385510
H           49.88538077989008       53.00936598138157       30.71231304007355
H           50.26062862760220       54.57163063161150       32.59673712010920
H           49.12275784605088       56.74346170626208       32.63892474094250
H           43.49177525689230       59.86113439841896       29.09054904140116
H           41.12523128020988       59.34670467747117       28.69226523802054
H           39.92000240953945       57.80738574727744       30.20101409369770
H           41.10563265874419       56.78772360827116       32.10745037255811
H           43.46545635377534       57.29924199627735       32.50216859940262
H           45.20241191098744       58.65372547226405       33.18705003155865
H           43.46333148162009       62.25801437427781       30.88779088648156
H           44.37173270210837       64.40201593972743       30.09202036172911
H           46.42533907216541       65.32728437549784       31.10310551844337
H           47.56806214539817       64.08599098535963       32.89983404759518
H           46.67711616843849       61.93675645229391       33.67595453456971
H           41.48151288346317       59.46094747806545       34.21626243958422
H           39.53932055258208       59.23620495706380       32.75375671974335
H           38.73759900355305       61.16771569569244       31.44104611292598
H           39.91876648221501       63.32962241302682       31.60576146851268
H           41.87918542927071       63.55421928557369       33.07134009359591
H           43.70146551837166       63.68872048995701       37.78969588866939
H           44.48303321961798       65.99734909385849       37.60496168131653
H           43.26549717109295       67.61377974739037       36.19011206054363
H           41.24299789322528       66.88985857562741       34.97398059468685
H           40.45846429636944       64.56688034315476       35.15762816126482
H           39.34975038390044       60.08870186482385       35.73065378369400
H           37.19420571106293       60.47615604519997       34.62929516043095
H           35.44763854450768       61.80990333173690       35.76224138142729
H           35.89899108594624       62.77052951164050       37.98748791307226
H           38.06594687029350       62.40759836799853       39.07623477752338
H           41.10320331513811       60.26108443485791       39.93361740531351
H           39.83342442872302       61.44855012465832       40.20856981675154
H           36.98823376174029       59.90490844773853       41.51457711484029
H           36.85619195953147       59.76068086180953       43.96406042338841
H           38.84645589406324       59.12440120168110       45.27771973962673
H           40.95179287106556       58.57197497273616       44.10673139017439
H           41.06376889172929       58.64794502086756       41.66453709838798
H           36.30285583446478       57.09877109944359       41.11499493916715
H           34.03677552796740       57.84998615191942       40.53461072387187
H           33.53876090743633       58.64395766640107       38.25253228810171
H           35.32492616497691       58.64949710957078       36.54592206839972
H           37.57431997808249       57.88749871963167       37.11497801444549
H           38.36688222158087       53.72337337450999       40.86059103732288
H           38.50692785091385       53.34136249223729       43.26147676664661
H           40.40948347250264       54.25972063854238       44.56538333239784
H           42.14103647001399       55.57660930352842       43.41510023206364
H           42.00273639231111       55.96003370688698       40.99551317163816
H           38.33424993741814       52.40265359279197       35.79867264422813
H           38.22868793393922       50.08588857621032       34.99703813214101
H           40.16596814819864       48.58696598082802       35.28180620453654
H           42.21818537099057       49.44163401480818       36.36367164217696
H           42.32271763994546       51.73824773445811       37.17679153004375
H           40.67560838872455       56.96861372355672       35.41725106710005
H           38.57067930591962       58.00571076689947       34.70833717117301
H           36.96818000298288       56.74210635423481       33.32380772829454
H           37.49435325720410       54.42651778435879       32.65335418162488
H           39.58737103022616       53.37375186405556       33.38998072782292
H           45.00355294989928       56.92009000463766       34.55670404324876
H           46.29591238777879       58.14285551181624       36.24625434259476
H           46.95860631538430       57.03034320506028       38.34030034447515
H           46.33086370266131       54.65901904914939       38.71242082256755
H           45.05209549422668       53.44113826308952       37.02780671652218
H           41.74009789220913       52.73320783141511       32.08835608943058
H           40.26868182511902       53.74455985421779       30.40069901611529
H           41.20330488894027       55.27297033251300       28.69959709758201
H           43.61095726378093       55.78675528403070       28.71270032049086
H           45.08014313215723       54.78459332066232       30.40419051667075
H           45.25615865246938       49.66267406487152       32.92489182760701
H           43.53676006832213       48.24661539455953       33.92803751192523
H           41.28150108525544       48.12036639886493       32.91824611251752
H           40.78950985735695       49.41260478905949       30.87630683109511
H           42.51231468625789       50.85350728682951       29.88024306196164
H           43.38905812686278       49.88499122676982       27.63050964916694
H           42.66246677204073       51.45237535779706       25.88319335616466
H           44.22809996639691       53.15151142642365       25.01494669336203
H           46.52938001517357       53.25741856230468       25.90162801721913
H           47.25295243232095       51.69356057173357       27.64236518484273
H           49.07910165565610       46.97198883799543       27.29996572286006
H           51.46319759161664       46.53890002075335       27.66544074362130
H           52.41469698845791       46.65772801608788       29.93166901940432
H           50.94050244915508       47.22691812812490       31.84784391668184
H           48.55398917082795       47.59388583718420       31.48999100040181
H           52.97191565446698       60.66183539975675       27.09738218458631
H           51.53631223244872       60.09188842226988       26.24675955010358
H           51.46740230229170       61.58285018669472       27.19037119803247
H           46.71257246595071       47.70712317586586       30.15089134098649
H           45.43347606594548       46.61100157021433       28.33039400219430
H           46.94164889733936       46.17783803989142       27.53116247930387
C           46.09235364247895       43.87957326227099       28.59607844387108
C           45.87372784899095       45.26360690197477       30.67582283542229
C           46.54544647319072       45.07250696872982       31.87689063631525
C           45.88531235065081       45.19155727548383       33.08727662141458
C           44.54138727743627       45.52178259430505       33.11593534062507
C           43.86587121740664       45.73277338022988       31.92604532947058
C           44.52409762441895       45.59298650288704       30.71805237300223
H           47.59703473070517       44.82184659426097       31.85627468171674
H           46.41786129883191       45.02795430279389       34.01269757860317
H           44.02943109347066       45.61304312350243       34.06333612226872
H           42.82262054499606       46.01323185729636       31.93305250138539
H           43.97347649016575       45.74555589035168       29.80058689799645
C           46.29533185635901       42.57649670536028       29.37593946791031
H           45.02793521806942       43.99636357586072       28.37901525249817
H           46.61823344252293       43.82257108963020       27.64082770594549
C           47.71856300535484       42.33316165713648       29.79793556586650
C           48.76487558941121       42.37552337933071       28.88393369826715
C           50.06815368935678       42.14926494335769       29.28940736219153
C           50.34658444100680       41.86685049388640       30.61581484771182
C           49.31226364195503       41.80687358883927       31.53285826861012
C           48.01135224395226       42.04060694665932       31.12421816816896
H           48.56244712756585       42.58527011677753       27.84343586105941
H           50.86968979738187       42.19117073391153       28.56519338700753
H           51.36409174947578       41.68788229973478       30.93153324708337
H           49.52047169313277       41.58139023162816       32.56835001009634
H           47.20515078707493       41.99171572237243       31.84287209410781
H           47.66444010471626       44.94428655009005       29.57923964250841
H           45.66858030372116       42.59699241977789       30.26952844242959
H           45.96271132335043       41.74121701971885       28.75098005588475
C           51.01961988283169       55.06371366147938       72.90923742183814
C           51.03537011209181       55.14028819203005       71.52259172395262
C           52.26552107211784       55.17910514042789       70.87709343473718
C           53.44528505962382       55.13560674755440       71.59701604183027
C           53.41670925628695       55.05626279543107       72.97882515800158
C           52.19804421336272       55.02177467346564       73.63373118486491
C           49.74155420369711       55.19750574231734       70.75070583351021
C           49.56971100641915       56.57509283385716       70.10307770835416
C           49.65199210482020       54.09993657498798       69.68307211495721
C           49.94749129174358       52.69153636847163       70.22163768064877
C           49.15758664594107       52.38779110751691       71.46751995728800
C           47.76789157846298       52.43124193984239       71.47144059457146
C           47.05320074556538       52.14804808940335       72.62122134375977
C           47.71701729723190       51.81343971194730       73.78946029520962
C           49.10049677120858       51.76501136271252       73.79756754717145
C           49.81193183120794       52.05076608467868       72.64558845814146
C           49.65512449382202       51.65977579027208       69.12445638802917
C           50.06999841381993       50.23122973917216       69.50284220005109
C           51.55492458372925       50.15320779594507       69.74156989913513
C           52.04372175587950       49.72576253152079       70.96991884517008
C           53.40552047319721       49.65221359200935       71.20818896810486
C           54.30343707252288       50.00649164817165       70.21615651226824
C           53.82806857457597       50.43498334344872       68.98832626537596
C           52.46764769277463       50.50943838694868       68.75396642442803
C           49.60111376246789       49.25773145696469       68.40998507371501
C           49.83928314116421       47.77169599488680       68.74374475589275
C           48.70018570922874       46.94395068644295       68.20035608599173
C           47.88238245458103       46.21122290992941       69.05041647660870
C           46.81958882060679       45.47589002898950       68.55252277340456
C           46.55697064326147       45.46540504752158       67.19352875658102
C           47.36722878082312       46.19040886145712       66.33594106878402
C           48.42762729332909       46.92328758733414       66.83693089363535
C           51.18411650143943       47.28373631030033       68.18550624469876
C           51.42742274102503       45.79038755218129       68.43575021897439
C           51.22808066831978       45.41379987301999       69.88259569240982
C           50.41452219980359       44.33954856816194       70.21999126352706
C           50.23526069736642       43.96774994089660       71.54093725949967
C           50.86996086822727       44.66965875121559       72.55077956340848
C           51.68720326784035       45.73984528872347       72.22690245479582
C           51.86818191903919       46.10477498551109       70.90533619775158
C           52.84648257791704       45.35555232463771       68.02508248399893
C           53.25320947760171       45.68147078422194       66.57923795919739
C           54.69529706172618       45.28529081230177       66.36432034746426
C           55.64724523089398       46.23799215067376       66.02356894509987
C           56.96716774426786       45.88550054205416       65.80047195898780
C           57.36216470012364       44.56595495772808       65.93216193361020
C           56.42733019494167       43.60711373756718       66.28690689300581
C           55.10623235335748       43.96221153981217       66.49144146784504
C           52.36015474621809       44.98993558077191       65.54270376785196
C           52.59130105922145       45.54109990347818       64.12467794476363
C           51.89803453281505       46.87146697506859       63.99680895504669
C           50.51163899034680       46.93778571446052       63.91616434994540
C           49.86413314389558       48.15684681120666       63.84130628175449
C           50.59436336620033       49.33227123004075       63.86207978304257
C           51.97490650764681       49.28172701844645       63.93709485046449
C           52.61944997361746       48.05787491144070       63.99806088418050
C           52.09377177888729       44.54629569282671       63.06821776253909
C           53.07315509739146       43.37882636337046       62.86641306258639
C           54.20205487463957       43.81484431098362       61.96746398739585
C           54.03637061007395       43.89524548189423       60.58937321918931
C           55.07514030056107       44.30211344257109       59.77301239495863