3536
 energy: -3716.264452912599 gnorm: 0.000694751175 xtb: 6.6.1 (8d0f1dd)
C           50.84012487313782       62.70515285979648       40.41168023160224
C           52.09002647782735       63.57656784468310       40.49884396847319
C           52.14180797869902       64.52084730465636       39.29752399006691
C           53.38088565226057       62.74824536918661       40.53721190169912
C           53.48022942914422       61.68010719706110       41.63248491952386
C           53.28339702149880       62.27193536713000       43.02731283670207
C           54.84869369049176       60.98370680971678       41.58450079308258
C           55.13177624968462       60.10622894071673       40.36018034954167
C           54.22006359430172       58.88095519576883       40.32964867419551
C           56.60354912416546       59.65802165705878       40.36691008244179
C           57.59085961587989       60.68238932255103       39.79494546868369
C           57.47029578901154       60.75320211759444       38.27173702368471
C           59.03834978848575       60.31365899838396       40.16072229391443
C           59.52018154980201       60.73544041513409       41.55753841112428
C           59.62907109082900       62.25615314559651       41.64721175742596
C           60.88866303937289       60.08538975411818       41.81277510206726
C           61.45217333819011       60.19899235871137       43.24011713363527
C           62.97388641149787       60.05653919200518       43.17826365384114
C           60.83338429058768       59.12479038020061       44.14303078392294
C           61.18510215297015       59.22325571605843       45.63420623629597
C           60.91223161751051       57.88589763164386       46.32227652438129
C           60.40916353798007       60.33964944102996       46.34289530749885
C           61.09388968756296       60.81350612161325       47.63454717038071
C           60.06065711530578       61.31663031589881       48.63745082903666
C           62.12617449896243       61.90396401235535       47.32306981691514
C           63.14092163149139       62.15310691231446       48.45401362437662
C           63.23801401629917       63.64658202382449       48.76730428987111
C           64.53446941570371       61.61952839780444       48.10029323706927
C           64.63731395029816       60.09392253074079       47.95883346719437
C           64.59485198332250       59.42069851751570       49.32649232382767
C           65.92958552718498       59.75814019174233       47.20354576725916
C           66.21700527966811       58.27244017295224       46.93505167504542
C           67.50165079134017       58.18439878605324       46.10931509546687
C           65.03369454420871       57.59903273197130       46.22900939114779
C           65.27157550131402       56.17951982784665       45.69134671327704
C           63.98341155809815       55.68401480924575       45.03696227007595
C           65.71913165635816       55.22340764135191       46.80223737007818
C           66.01885492283614       53.77545891417464       46.37944681945496
C           66.36263687969655       52.97231375843253       47.63279773459756
C           67.14128748467331       53.73694217295709       45.33448550385496
C           67.52151435969516       52.34587031803164       44.79514369399379
C           68.73698352823367       51.77326000182745       45.52535259129247
C           67.83456705927198       52.43037428218945       43.29173804416033
C           66.57941443207058       52.51164495899692       42.39777469745429
C           66.34501590724561       51.15780633184038       41.72839562773304
C           66.71909260703845       53.63287635070180       41.35872397637099
C           65.45709877817190       53.96471902971243       40.54569076352215
C           65.85121617574322       54.84459648605279       39.35862438303731
C           64.41088605860730       54.67360026494066       41.41483188866191
C           63.01108532720911       54.78615510422298       40.78086198814317
C           62.49359461955467       56.22238649130484       40.87335687781552
C           61.99582893318616       53.84918013959805       41.44859188835687
C           62.28656898111149       52.35199437243124       41.29827904716375
C           62.03418274187514       51.89148720170706       39.86435055350766
C           61.41269594188875       51.53930872868106       42.26567039566078
C           61.96795810173288       51.45696724379285       43.69326698164659
C           63.07064041370969       50.40121060296745       43.77714698550889
C           60.86459808688859       51.10661294747144       44.70047541874069
C           59.87383310377524       52.23162951132728       45.01517673695843
C           60.58034096311695       53.39354930020600       45.71281141528320
C           58.73361662997483       51.72658798266577       45.91273789619071
C           57.81903603803988       50.65758512226986       45.30310011915945
C           57.11953318971873       51.17911476865950       44.04833701297052
C           56.74649510799625       50.20139339381726       46.30398255202271
C           57.25160357674510       49.60152209989037       47.62111105754941
C           58.27580194903325       48.49523488227762       47.37266640505855
C           56.09331002822901       49.00396222816665       48.43468923081230
C           54.92327313559208       49.93752736435088       48.75721875127591
C           55.39787404384320       51.19626077128861       49.48434282069751
C           53.88311100539249       49.23549719696726       49.64325588211066
C           53.20110579790622       47.97636868092030       49.08902552914574
C           52.34602332782053       48.30547037916566       47.87110520323009
C           52.35347815142561       47.36332153192735       50.21304059231244
C           51.55085116248112       46.09441805297411       49.88244953143327
C           50.85756507925949       45.63473050919876       51.16525084047587
C           52.45697244578408       45.00531218516596       49.29608723084002
C           51.84773863062057       43.60449574384968       49.13270384094876
C           52.93831381690522       42.66312427339381       48.61904145623122
C           50.64118385248165       43.62577631928809       48.18815617144501
C           49.97796762578869       42.26734716499188       47.91571048252752
C           48.81569739451201       42.46403285272149       46.94373536801572
C           49.55672732449410       41.50972440492531       49.18641300754554
C           48.52503901068757       42.19529436994245       50.10020348449338
C           48.80401087452831       41.79993069731938       51.55235341538769
C           47.07292106935880       41.85048103144076       49.71326561712713
C           46.14174981266609       43.06778917679582       49.63208482754980
C           45.92506797081751       43.68859125636662       51.00794838202354
C           44.80274196756472       42.67329562439664       48.99456063923910
C           43.98223562784091       43.87016700031084       48.51620370871620
C           42.67292659051083       43.43619529187278       47.86887898320699
H           50.69878432537445       62.12803672472370       41.32073313819389
H           49.95839142110660       63.32706284951527       40.26945480683190
H           50.91088697810411       62.01856227711080       39.56999207455531
H           42.06122489506743       42.88414394077864       48.57945498811205
H           42.10783731341353       44.30135520903320       47.52940794359314
H           42.86400796421103       42.79350478496078       47.01193849364763
H           44.99359726765495       42.02674444007712       48.13364896735079
H           44.21654768324183       42.09496912413785       49.71321384504901
H           47.06590655055631       41.35448703852776       48.74240499180291
H           46.66169025367410       41.13929155981706       50.43386634228628
H           48.65519764453369       43.27732894284696       50.01584516909796
H           49.78658900054634       42.15100246915841       51.86427779310700
H           48.06288086329138       42.22377786859273       52.22487567552074
H           48.77931664323218       40.71651143024928       51.65992729339974
H           49.17074043646893       40.53034276564964       48.88907580237492
H           50.46099264857189       41.32010921927169       49.76800081081912
H           49.88834010891739       44.30631715329189       48.58770175199218
H           50.96374073356266       44.03596001820490       47.22658459708803
H           46.61544841393976       43.81436591258329       48.98397022975442
H           46.86547968994122       44.02856009852360       51.43147293841011
H           45.25724875257252       44.54422348619637       50.94807857708177
H           45.48601954353914       42.95522915375574       51.68128836724808
H           50.71159017872691       41.62817823519572       47.40920858060012
H           49.17990219469898       42.89052925460498       46.01099663100586
H           48.33858578497949       41.51395833985541       46.71144288558730
H           48.06991957658558       43.13704446147264       47.35705673108680
H           51.52748301995122       43.24912245302809       50.11546040754451
H           52.60727051976522       41.62776958352615       48.62180140535825
H           53.22259259094079       42.92809855510333       47.60275634821426
H           53.82487430096975       42.72868359983976       49.24743302200167
H           52.81253208500591       45.33183401191209       48.31595127838106
H           53.33026111389907       44.91292309129377       49.94592496137111
H           50.77916142722895       46.34843216305773       49.14846796863985
H           50.30962595081661       46.46098125050156       51.61205743280644
H           50.15189559806731       44.83133862444264       50.97368896374906
H           51.59090856418405       45.28549485372781       51.88932120206495
H           53.01355016865883       47.13293590889862       51.05333709080151
H           51.64555323215707       48.12242675309978       50.55829725413265
H           53.96778032989089       47.25259771239813       48.80035275972372
H           51.92399340873234       47.40224814556692       47.43793171754617
H           51.52747926966216       48.96537032683508       48.15534881922688
H           52.94099285535032       48.79372428975886       47.10363556645929
H           54.36889177761991       48.97116367707234       50.58672961391189
H           53.10130564092544       49.96205210613080       49.87323762788400
H           54.44148791822311       50.24220837448883       47.82399760695967
H           56.06047687714226       51.78731185121174       48.85776020475826
H           54.54684748201921       51.81642328464203       49.75861383153293
H           55.93478459802175       50.93034407131366       50.39265987646331
H           55.71012123608295       48.14611883345366       47.87875993804889
H           56.50025887654716       48.62928783910939       49.37948848147801
H           57.72903434068269       50.38554445208331       48.21594971008582
H           59.19122066540825       48.88650596468467       46.93829145249090
H           58.53170336411799       47.99730903770087       48.30670807713494
H           57.86794737042467       47.75013414758582       46.69311890313640
H           56.10973854222477       51.05975701785273       46.52932245152083
H           56.12504949470466       49.44964577272392       45.80843399251603
H           58.41360361339007       49.78623106518393       45.01828279225326
H           57.83375481787017       51.40354532595351       43.26070280684225
H           56.42369042510463       50.43729305690603       43.66244406286545
H           56.56056161680507       52.08496624480949       44.27737401976221
H           59.18152234290690       51.33507513095716       46.82701910421270
H           58.11273283674268       52.58178529304310       46.19443517550693
H           59.44641851544638       52.60817581278064       44.08155619119716
H           59.85855829231032       54.13506712933141       46.04697230624750
H           61.13155960769617       53.03332937178833       46.57858972251754
H           61.27907930057074       53.88989663371608       45.04445102936614
H           60.32085865703299       50.24703552342594       44.30438350563889
H           61.33263129795532       50.79678541972428       45.63885294354593
H           62.40595299197527       52.42259444626082       43.96059771093207
H           63.53885691379819       50.41084905145302       44.75948694637264
H           62.66025024541575       49.40741304603334       43.60651694950066
H           63.84225416969536       50.58138093599082       43.03405548909404
H           60.41538357296118       51.98286825356433       42.27801780258630
H           61.30528983196053       50.52126276229006       41.88345396342802
H           63.33681928923390       52.16991847359528       41.53990341177752
H           62.30294783300489       50.84345772936188       39.74197199175033
H           60.98161856228599       52.00950654520970       39.61420195669333
H           62.62147430619066       52.46989488201599       39.15505767169869
H           61.94805267606682       54.10134651378363       42.51045218812158
H           61.00759220701331       54.04876678835063       41.02467303333629
H           63.07602263443201       54.52719028793636       39.71990660498183
H           61.51757273642504       56.31095299227772       40.39911931670941
H           62.39245786036322       56.52182515802762       41.91487267683145
H           63.17431508751512       56.91272573514807       40.37898497846333
H           64.32124180022507       54.14418500660824       42.36274238278057
H           64.78943876654621       55.67264226358306       41.64349823884950
H           65.02945277457388       53.03857217570754       40.15173761908247
H           66.53457295167155       54.31540582788751       38.69733020012478
H           64.97887585886102       55.13606676703587       38.77867759948422
H           66.34559054782342       55.74993559507518       39.70668256244454
H           67.03612635727168       54.54732882889220       41.86835788944843
H           67.51798796381345       53.35451118106943       40.66572357466677
H           65.71812628234818       52.73114086110927       43.03595617742135
H           67.16085530700353       50.92733324252018       41.04527513794411
H           66.29463521455375       50.37194190704704       42.47940137491219
H           65.41797934646797       51.14494977956107       41.16033752938056
H           68.47504724598035       53.29950289302094       43.12448255322347
H           68.41633515882786       51.55311683530696       43.00110729385549
H           66.67762510024598       51.66103059489395       44.93371136800313
H           68.93906999219419       50.75696233749408       45.19118308553374
H           69.61763348753452       52.37917772568097       45.31839803571175
H           68.58242853112415       51.75390308774916       46.59960613661537
H           66.82066427450940       54.34453353368430       44.48798147581696
H           68.03331176407090       54.20947125792153       45.75417215718736
H           65.11967637964226       53.33460331376398       45.93641113246509
H           66.48562151431743       51.91895453493805       47.39960415483442
H           67.28416411918970       53.33875806880448       48.08130873008767
H           65.56709050284739       53.06617415703462       48.36984784873308
H           66.62264446830912       55.61974491427136       47.26914655605979
H           64.93815351211001       55.20340606039601       47.56714971375581
H           66.04606314605522       56.23493178585069       44.92163618632077
H           63.62315577849606       56.40659994695791       44.30720232578901
H           64.14638547601344       54.74126746783450       44.52299431577513
H           63.21188915010423       55.53476539474591       45.78964119569034
H           64.19068934970223       57.55927050638664       46.92133297907173
H           64.73840602866616       58.22821214928860       45.38436698200653
H           66.39044557962225       57.77299639833910       47.89277988589705
H           67.84928316965647       57.15901795493700       46.01769064892051
H           67.33948646575915       58.58372389939136       45.10973023142213
H           68.29292449139889       58.76636185569764       46.57973319017186
H           65.90544915874413       60.27434503523658       46.23837441985484
H           66.77223400434401       60.17247031403389       47.76578949302738
H           63.78934400788116       59.74335278668662       47.36634577498803
H           63.69859512271307       59.71435822566040       49.86793397223656
H           64.58717985915732       58.33841775794015       49.22905643378084
H           65.46084893928398       59.70882169403102       49.91749909726169
H           64.84535844514672       62.08666100050077       47.16037999236300
H           65.24173820657323       61.93985115529509       48.86900375335936
H           62.79481572779506       61.64827672036736       49.36090940395224
H           62.26244533090012       64.04493064939274       49.03668548916649
H           63.91918054852938       63.82635922702705       49.59746086854843
H           63.60412360954157       64.19605529868873       47.90148531357816
H           62.66536635187451       61.63957345546528       46.41078737637035
H           61.58423738269605       62.82917569315260       47.11285235524537
H           61.61259542379651       59.96232447012498       48.08653226700500
H           60.54096126276760       61.69306407015041       49.53730728617378
H           59.47085424439623       62.12080416335724       48.20554071626487
H           59.39041721620838       60.51051937997593       48.92246869051848
H           60.29110937625734       61.19535201328286       45.67438225134647
H           59.40681336678391       59.97004877021293       46.57358136960736
H           62.25504833011850       59.43075493768449       45.72390814779230
H           59.86179472249425       57.61744570144629       46.23277305665491
H           61.50721297387873       57.09411294055294       45.87461034823801
H           61.15692013432830       57.93871473121941       47.38075427658990
H           59.74645081129881       59.15436777571370       44.03688852046090
H           61.17313057064511       58.15430235665261       43.77180583796906
H           61.22278638527471       61.18897588435649       43.64460409885807
H           63.42482981189917       60.15411705466384       44.16261536298858
H           63.24622901449050       59.08501570710646       42.76960853110131
H           63.40258426959092       60.82721765028587       42.54037116770780
H           60.83136339630479       59.02388558746735       41.55850589138903
H           61.59940774902542       60.54143450905330       41.11818323393256
H           58.80342063546205       60.38641215248144       42.30731787453390
H           60.33916153449240       62.62721849481056       40.90999861785065
H           58.66849708892675       62.72859160010644       41.46218849038492
H           59.96587082944468       62.56876967428179       42.63173871827439
H           59.14506419007600       59.23065063427285       40.05828316352750
H           59.71105032310347       60.77120750189135       39.43025306733566
H           57.35342704986170       61.67027093132535       40.19907242561576
H           57.77434844663111       59.80782374460043       37.82566669987374
H           56.44890239753482       60.96239592100572       37.96325771002115
H           58.10859852449096       61.53873839001484       37.87205788400296
H           56.88802661893342       59.42025477127315       41.39395597096735
H           56.69798132893320       58.74058639925484       39.78249018717737
H           54.94745954263684       60.68699274706174       39.45189169387577
H           54.38435529449256       58.26413395798924       41.20991730193614
H           53.17208520276586       59.16786371379377       40.30305555599847
H           54.42246078533550       58.27832162471751       39.44627589449129
H           55.62213302490997       61.75319904785314       41.64483635184050
H           54.94279717811742       60.35520912002549       42.47300285882008
H           52.69889447173480       60.93293004316907       41.46762969837222
H           53.38111330744984       61.49271665627091       43.78122757680128
H           54.03165495430326       63.03493978422185       43.22825005962455
H           52.30045655831204       62.72305661402328       43.13065743562084
H           53.48781592630244       62.25896891056891       39.56596579084972
H           54.22474376938756       63.43623663848098       40.64791414588001
H           52.02512841418626       64.18657284381878       41.40534108822648
H           53.03150203190987       65.14681901580062       39.33234435487711
H           52.16280965596587       63.95396471572352       38.36834243089724
H           51.26733343055968       65.16835008972167       39.27906328398472
H           43.75934020904803       44.53270992211680       49.35424612441965
H           44.57077872672961       44.43717411032801       47.79003713366347
C           50.24151469788198       47.98421100036998       71.25622159340884
C           51.24844998544151       47.92906541971303       72.40189362563719
C           51.13199442498919       46.58763258204923       73.12474084934493
C           51.03356230845514       49.08027375413874       73.39405042635487
C           51.54748913067915       50.45031081313293       72.92530504102649
C           53.07319083976199       50.49275076638869       72.97309300223847
C           50.93779176522030       51.54977520867811       73.80693374466404
C           51.14604181725314       52.99459427952535       73.32503277285149
C           50.75464490318983       53.94603596915641       74.45830781552293
C           50.32547750997986       53.28943899884473       72.05673113073848
C           51.05256416064508       54.03090033264014       70.92069857400917
C           52.23347332631600       53.22548992483712       70.38242498016473
C           51.46401885497769       55.44202187511963       71.35528630878336
C           52.25857867382311       56.25959078194770       70.32607464727232
C           52.64322835510637       57.60359827556124       70.94578988375275
C           51.48159631100668       56.45404896643958       69.02030188043865
C           52.25551539112961       57.14546664214271       67.88773254402160
C           51.28584137832817       57.48748147869054       66.75860311843930
C           53.40086705321217       56.26029708510281       67.38406323955209
C           54.40748006708060       56.92507021167629       66.43324878154660
C           55.35257729514313       55.84815498651216       65.90383732970857
C           55.18859263065977       58.03229771625249       67.14986797380058
C           56.12352126331213       58.88134160463383       66.27640614263497
C           56.99806689646367       59.73773630274469       67.19170171992472
C           55.32721196293146       59.77137398945082       65.31698481325932
C           56.13776947738425       60.40614655337311       64.17546931934046
C           55.35895226752595       61.60610890698845       63.64042403551167
C           56.41368047547152       59.37188103451317       63.07542273413961
C           57.26483100597061       59.84134608989859       61.88512212998138
C           57.28056742502353       58.74685762343683       60.81932192298484
C           58.69250190341673       60.19360774243198       62.30984841885059
C           59.58902626772426       60.78143061426660       61.21046859972768
C           60.96125390202474       61.09713858358153       61.80456353712494
C           58.97094959790010       61.97785863940666       60.46571538263456
C           58.44457469499645       63.14695090214985       61.31398102593720
C           57.24482957372283       63.78575121404169       60.61177678634036
C           59.51594468618429       64.21589441953699       61.57146655513264
C           59.27219679861346       65.03105152066425       62.85044335683985
C           60.01331905861277       66.36310970048090       62.76213639847833
C           59.72564096501915       64.23082214371587       64.07809650158113
C           59.18015262737666       64.72544415616569       65.42435749708442
C           60.02070298901899       64.14112648896192       66.55905018653819
C           57.70904482391126       64.32838161407822       65.58714412629585
C           56.97736408880088       65.01163993388023       66.74935266851860
C           55.70207586388647       64.23283301581340       67.06634317431249
C           56.63815221949577       66.46872770884542       66.41076488128185
C           56.24973380224643       67.33306512349299       67.62370470430139
C           54.98914171983792       68.14224341300260       67.31257387663300
C           57.36750664707249       68.29963107733489       68.03979047217527
C           58.67771372896397       67.65709623515092       68.51508844037440
C           58.47013554600564       66.88170108614179       69.81544957626392
C           59.76036818601257       68.73800418869121       68.71884548759333
C           60.88482495631204       68.78532781082411       67.67213609177684
C           60.34222613743316       69.07534035633709       66.27336759949587
C           61.74659247925531       67.51747549538776       67.63068184887432
C           62.46441477633732       67.13232180285769       68.93138052423538
C           63.32321907909710       68.28286189382403       69.45405723284394
C           63.33538232973509       65.89445727633110       68.67061337490324
C           63.76827742503403       65.13893295342955       69.93558924843387
C           65.00187837428662       64.29458653315746       69.61354753795075
C           62.63121667567769       64.25994384044368       70.48992875306094
C           62.42441279963197       64.34796438687549       72.00825416071827
C           63.69972680518602       64.00227576670157       72.77791286803489
C           61.31871863839221       63.38422393403197       72.46634510407485
C           59.89274538837126       63.71705430908057       72.01123411095108
C           59.32366819118479       64.87095450324877       72.83647721311330
C           58.97098588544161       62.49483613127884       72.14829807796588
C           59.25993200122683       61.35093716343216       71.16911814022608
C           58.90785618609639       61.75706555796585       69.73830289392490
C           58.48068426543128       60.07538562871022       71.52345941999781
C           58.71259849664671       59.48361494141417       72.92121025039235
C           60.19628736303889       59.42325615529317       73.28799389242350
C           58.14519252622952       58.05765000467140       73.00936255468567
C           56.65774432478000       57.87941401620068       72.68548739202646
C           55.78680280755984       58.72610665311438       73.61356404899344
C           56.24966987078711       56.40415871073216       72.82796414490601
C           56.88025242647829       55.42390036857292       71.82936384601977
C           56.44144230454763       55.73236418685533       70.40115759791627
C           56.49472387501445       53.98332330883734       72.20116479309769
C           57.46741333687294       52.91103878098646       71.68402097616102
C           56.77699446625812       51.54874853417643       71.69269233886212
C           58.73271385319865       52.89668115865337       72.55031750787722
C           59.85762511285570       51.93855827809386       72.12802300571190
C           60.97359100451199       52.02495060011713       73.17071215897788
C           60.36820380153600       52.26908745510757       70.71935780908368
C           61.60480197092620       51.49235282183646       70.24242493931094
C           62.06473729565783       52.05553159291394       68.89776357798938
C           61.31737079157270       49.99027699397773       70.14708028674717
C           62.55617213264048       49.13959124717208       69.87114705750528
C           62.25904167603552       47.65472017024073       70.04122677841580
H           50.30022335696163       48.93260131851925       70.72961304508455
H           50.43724638417826       47.18778655602341       70.54145761453026
H           49.22881323691353       47.86219418508544       71.63686453510142
H           61.92154085613376       47.44501573741732       71.05458530490023
H           61.48073135383834       47.34078212593698       69.34953549493684
H           63.14975621473509       47.06150131061947       69.84875317993168
H           60.88600368660578       49.65372861031688       71.09180992348675
H           60.57488816575088       49.81104916291974       69.36533048512629
H           59.56166398510288       52.08554402522626       70.00597797036210
H           60.60391800451649       53.33564098422457       70.68706755739858
H           59.46372858555939       50.91783708005432       72.13919109929085
H           61.72235291984773       51.25283878876498       73.01535717319737
H           61.46082984229062       52.99687961095165       73.12683214206130
H           60.56516496556792       51.89446276647095       74.17109986749921
H           59.15015282307312       53.90556245797679       72.58710761445296
H           58.43487503858852       52.63620400077350       73.57047854071206
H           56.42988896182975       53.88905747145844       73.28829353874285
H           55.49766165811613       53.78249801454987       71.80153784023668
H           62.41766092736946       51.64330415005230       70.96036147812309
H           61.29088805585158       51.93198089620359       68.14373116712298
H           62.28877171085603       53.11641289400738       68.98531880427883