3795
 energy: -5103.642042746527 gnorm: 0.000877009725 xtb: 6.6.1 (8d0f1dd)
C          109.13855628342233      114.46655164343191      105.21868276587182
C          109.49341563336084      115.38859012592560      104.07698137089214
C          107.88520081654126      113.64292568564028      104.87917022448730
C          107.80473413445617      112.36739846312931      105.71347335803348
H          106.98987361306153      114.24257586206079      105.04700781240727
H          107.91512799925731      113.36314783781691      103.82404724402366
C          106.52172593300915      111.59746102395653      105.40990946189146
H          108.66815196230449      111.73467104185598      105.49342957370202
H          107.83143865011674      112.60844501401999      106.77652699654240
C          106.41399380327310      110.31210388638696      106.20187881459076
H          105.66513830082204      112.22050817898359      105.68323882541195
H          106.45591768088754      111.36779473278106      104.34695318684847
N          105.68164720430028      109.36196545311323      105.61246277424131
O          109.00939071955405      116.60712571748370      104.18316496843586
O          110.16506214600793      115.02726330874641      103.13236893504623
H          109.31689687696327      117.18640508879099      103.39625037227691
H          108.98068327724343      115.04736289390979      106.12671835258955
H          109.97858536122787      113.78334024437839      105.35832365329637
C          105.37646677074999      108.07578298524979      106.19783265362184
H          105.17985667088186      109.57112615462233      104.75280636138376
C          103.92490872642099      108.01180890747835      106.67827031190254
H          105.55023704618594      107.31005179420852      105.43670711868236
H          106.06031628636883      107.91618432933841      107.03528540722617
C          103.72225078534818      108.82028306191398      107.95684367125828
H          103.28615395492315      108.39776062627026      105.88162707514435
H          103.65263715597871      106.97046665568293      106.85526779018164
C          102.25009989865849      108.92443828750679      108.34984974195314
H          104.28855324537413      108.34656838560016      108.76036224812765
H          104.12645578453041      109.82450702346966      107.81373191647185
C          102.06892717154797      109.49102390864493      109.76050055352728
H          101.73761361284822      109.56228910560253      107.62973712906688
H          101.78785598112147      107.93679714541140      108.29945804751844
C          102.24206337841568      108.39833864338816      110.80914006641908
H          102.80010710699025      110.28354996306939      109.93157677203263
H          101.07005802598125      109.91969943726619      109.86331898204121
N          102.23336915717529      108.93053555804066      112.15487442587371
H          101.43816500498761      107.65909029644985      110.70160451820442
H          103.19379198033111      107.87812983555850      110.67703264855588
C          102.92317212104109      108.37846927678036      113.16167272760391
H          101.60660766344074      109.69898491462457      112.34810393483971
O          106.96202577066553      110.15706370107662      107.29245385560300
C          102.66815137898907      108.99821501608220      114.51536991618919
C          101.89523005334537      108.03406580493163      115.42332853785899
H          103.62795929882944      109.21438133675964      114.98590635277391
H          102.11605656495556      109.92539380561021      114.38571015103923
C          100.63918928669638      107.43442095603497      114.79248311450193
H          102.54595354767115      107.20690831133894      115.70939170482998
H          101.61863097162480      108.55913945739468      116.33893375643740
C           99.54905439173388      108.46048854331873      114.46934563946911
H          100.90994034900919      106.89518321244293      113.88186892938324
H          100.23153645685942      106.70887926237199      115.50013439999404
C           99.08290888160037      109.15437032051956      115.73672125747862
H           99.90312724613869      109.19791392861922      113.75264826720435
H           98.69314329825488      107.93539862222842      114.04101043274417
N           99.33940493873727      110.46628805435860      115.77662517820092
C           98.98461308910200      111.31057392400365      116.89876673215716
H           99.84193671284281      110.90637490646382      115.01060642708647
O          103.69863752654409      107.44129980029192      112.99121476067577
C           98.87292177571481      112.76553171577656      116.46152762883349
H           98.04100228703081      110.94102215021601      117.30994601486621
H           99.75431826420966      111.22170802747567      117.67658937382609
C           97.68411718887957      113.04553913054697      115.54149121872729
H           98.79433405343056      113.38879247002468      117.35233397012038
H           99.79283479238974      113.03186888317229      115.93835028553124
C           97.89590495865468      114.34170931662088      114.75588078966136
H           97.55926735415940      112.21761790738033      114.84136147074554
H           96.77161029947142      113.11803473331453      116.13524897950022
C           96.60263968759681      114.84415952702038      114.11382774317698
H           98.28953268236759      115.10913006712693      115.42448731863125
H           98.64368508148652      114.16687771752916      113.97991967929394
C           96.84988560009511      115.86947691311285      113.00938465888943
N           97.68556320712750      116.96820094699510      113.45084906724178
H           97.37424782677532      115.40641320054269      112.16961001682739
H           95.89096023182547      116.25502523175891      112.64366193227811
C           98.64254861082034      117.50284484181886      112.67953834346434
H           97.49125063222834      117.36983616977959      114.35479521742511
O           98.52157760928866      108.55429818788056      116.64896434964977
C           99.42055856481831      118.64638779261588      113.29755181067999
C          100.86517968426986      118.66720092970171      112.79711534144747
H           98.92912676856757      119.57761558401226      113.00166401746530
H           99.39429925691222      118.60040127834782      114.38666848205665
C          101.65484164755708      119.81920522711866      113.40701259679777
H          101.35291895426478      117.72285212326884      113.05042822263502
H          100.86143363726448      118.75328720951040      111.71045472576566
C          103.07654348674924      119.89987145173599      112.84486903740576
H          101.14504822955720      120.76340619667640      113.20281835435047
H          101.69372496956855      119.69612199582646      114.49028582002262
C          103.09571266758900      120.62714179604794      111.51262201627146
H          103.70204787171207      120.46655266552170      113.53847447310190
H          103.50173422149342      118.90353258060730      112.73724090765795
N          103.66393623161261      119.95767451050065      110.50978698140696
C          103.80523083008296      120.46741615719313      109.16281969851468
H          104.07090271810368      119.04491058136179      110.69049778705435
H           96.06521102534369      114.00517488710523      113.66906535191031
H           95.96135532897473      115.27952208501394      114.88196961110523
O           98.86640322509200      117.09398300573068      111.54436432202372
O          102.62011024989694      121.75732331382922      111.38436812207557
C          103.41529684790247      119.43365570409412      108.10445740772155
H          103.18087772589404      121.35832511817910      109.08021837223205
H          104.84835553013055      120.76592921584189      109.00563718462301
C          101.92683040363013      119.43175839482323      107.75144866935162
H          103.98891505865328      119.65142634861704      107.20165741411255
H          103.71349436135617      118.44661064745881      108.46570106954539
C          101.03472508384438      119.03415767394389      108.92468735928243
H          101.64293173960071      120.42918524351248      107.40924513008028
H          101.76528647434377      118.74204114897402      106.92188121169295
C           99.55008312348905      118.98310258584809      108.55717637879781
H          101.34471734357214      118.06125312605197      109.31226326694664
H          101.16316868819946      119.76890623615731      109.72021788713467
C           99.14369098005814      117.72961681659623      107.78771398107850
H           98.95631279940230      119.01853593760873      109.47297027848573
H           99.29550029901716      119.85955905668951      107.95976446376069
N           99.15291795683031      116.56507784755361      108.64859222136346
H           98.13471189437065      117.86615584928977      107.37884799778597
H           99.81866624236727      117.53217062590376      106.95156576805634
C           99.44187155803876      115.33609611609236      108.22553458272968
H           98.93819827537942      116.72371774490236      109.62624483149047
C           99.39378809487437      114.26228818086921      109.29662780065529
C          100.48864321169783      114.48681108726376      110.34156065976647
H           98.41510370786217      114.28827052176938      109.77816658484839
H           99.52116890054420      113.29069869896188      108.81696790587128
C          100.51719512531596      113.39011214352345      111.40479256090933
H          101.45771820031530      114.53339975295872      109.84137558555854
H          100.31653464709076      115.44631804707963      110.83090741387041
C          101.43817970664062      113.79628500784469      112.55038839314417
H           99.51001511476163      113.22510983802945      111.79259094134918
H          100.85850768304817      112.44916131795091      110.96957230832635
C          101.53162273294031      112.77935849395547      113.67028480943630
H          102.44705701662572      113.97781011733375      112.17817547816172
H          101.08669936832840      114.73811625515526      112.97976132931862
N          102.27253927791757      113.20598369038942      114.69539773828916
C          102.56986313075278      112.43740051031160      115.88423398603784
H          102.80756715766269      114.06511271623843      114.56606537903038
O           99.73669900855309      115.08150200363661      107.05492695175964
C          104.04913324980566      112.05722571264789      115.97187172344853
H          102.29309830867875      113.02916360563194      116.76291001191616
H          101.95442701883191      111.53677972221668      115.86710359109020
C          104.93345906822137      113.26623916382657      116.27492392305906
H          104.15942365772233      111.30446747757705      116.75267518498787
H          104.35806424989809      111.60998516801995      115.02541467473198
C          106.39766532699373      112.89490393672425      116.54615466654246
H          104.88625330529642      113.94599008988341      115.42570885441982
H          104.53032781394560      113.79876956110007      117.13865287850962
C          106.77006625274734      112.91314915514104      118.02857544217417
H          106.60665821136780      111.90440030856061      116.13762255905986
H          107.04791483981128      113.60451623884670      116.03516731443111
C          106.04028780261893      111.82513356960190      118.80610904658135
H          107.84695925990320      112.77143263154714      118.12845031903647
H          106.52523237419631      113.89148474275906      118.44920181934280
N          106.37112642261455      111.84307741799860      120.21436482988874
H          104.95765592841738      111.95548880708586      118.70562281029082
H          106.31134630939265      110.83741654775532      118.42842351859539
O          100.95553419660986      111.68945485159941      113.64569829459207
C          106.63082648203333      110.73875366654825      120.92668133324655
H          106.22020679343184      112.71482780356051      120.69824040307896
C          106.63092001815480      110.93775012901561      122.42807365374095
C          105.19535003502742      110.86264975552194      122.97281845008285
H          107.21930393535517      110.13802818846460      122.87997723537474
H          107.07455799206450      111.89866916994085      122.68988318549106
C          104.31451322568866      112.02363891555656      122.51612007769188
H          104.74427167931945      109.91209159237889      122.68092414257333
H          105.25067917125644      110.87096125760863      124.06234985680925
C          102.94484143017240      112.02152216999060      123.20116545070056
H          104.81552459140350      112.96548810332767      122.75393559664168
H          104.14670771312072      111.97677814051676      121.43955314029708
C          102.23346882008352      113.32738442995540      122.88459261749114
H          102.35317263389619      111.17381391898630      122.85902365362354
H          103.06803096020538      111.94706902504420      124.28181197801773
N          101.47664016329142      113.29554738013637      121.79126131532843
O          106.82156936153373      109.64520045953934      120.40685799732944
C          100.76193229189565      114.42982762145961      121.25087323481229
H          101.47952967702147      112.46162770704085      121.20348468220702
C          101.11465933470123      114.64071976727315      119.77864292466271
H           99.68462164452843      114.25629797303141      121.35532261130244
H          101.01720876588881      115.30707935164320      121.84935636699170
C          100.28242047303331      115.76543390410212      119.16828319808617
H          102.17625633551491      114.87657435951121      119.70413156614882
H          100.93747563045793      113.70786601813269      119.23945783926514
C          100.52645317842234      115.97394089286806      117.67341021940798
H           99.22416546980628      115.54151835736218      119.31784712730989
H          100.49342094592285      116.69483654768021      119.69786695702977
C          101.96439933016845      116.35059913153718      117.32912037989036
H          100.25971759141460      115.07007056286135      117.12697263373128
H           99.87165951563888      116.77959409334713      117.33365742276430
C          102.07172227380637      116.77829000454386      115.86634774387659
H          102.28329511891368      117.18365712008860      117.95461563043908
H          102.63702723356451      115.51172632432177      117.50769201935725
N          103.40883116988769      117.20090353935265      115.51549364342578
H          101.79064387984523      115.95290354347439      115.20816698302627
H          101.38984674631401      117.61675089806154      115.69142500962880
C          104.19971965538635      116.57821704326973      114.64153871119689
H          103.72343265080043      118.07178172058515      115.93721950079851
O          102.39425566581193      114.32685243532553      123.58482461784295
C          105.48550820799231      117.30770154028589      114.30713330218302
C          106.75720427386388      116.58247075415774      114.76372647650331
H          105.50746277191544      117.39758446072295      113.21832134923244
H          105.45460578700258      118.30803378012472      114.73769777649271
C          106.99433518806222      116.69097410741087      116.26899304570560
H          106.70215522282628      115.53493832535743      114.46197765290515
H          107.60564120972188      117.03493616318647      114.24621119372303
C          108.40990143754011      116.26665532500482      116.67151430518125
H          106.86539884041891      117.73100232826137      116.57845795171660
H          106.26054259850508      116.08543419147107      116.80448095466988
C          108.71139411685563      116.66625846221578      118.10499822468900
H          108.56913596614864      115.19733562654393      116.53962185320336
H          109.11884848408762      116.80653494392367      116.03909532847759
N          109.29633583098894      115.72900659915720      118.86646910010995
C          109.60772927728603      116.03988219438405      120.25064977306425
H          109.56895997938786      114.83230583333238      118.48736918902932
O          103.90666884710939      115.50358102585375      114.11197536534446
C          110.38305404348813      114.95058012225533      120.97304768220020
H          110.17675846698620      116.97597480129876      120.26820310924761
H          108.66478048807652      116.23094604523629      120.77222861591034
C          111.81862889188353      114.80942374724738      120.47285492219540
H          110.39604781913960      115.20695583336703      122.03440257281412
H          109.86446730517309      113.99805832348834      120.85640166601780
C          112.64608795007082      113.89897612928040      121.38039236962022
H          111.80625641690558      114.40594963803304      119.45918577243121
H          112.29145255862124      115.79289549534923      120.43239444529326
C          113.98403104618419      113.55061293384227      120.73792691099901
H          112.81625648921458      114.39765663313737      122.33656496532639
H          112.09316352824568      112.98062190867469      121.57829895833862
C          114.83345851042390      112.61812694083503      121.59287059380304
H          113.81128512040472      113.07388706811830      119.77090890369423
H          114.55005119401976      114.46393978308230      120.54577556852453
N          116.05359706479494      112.31411906636740      120.87403599699928
H          115.07471565578977      113.09496127820550      122.55127652400576
H          114.31012770456265      111.68273562011385      121.81199330969636
C          116.85368991875478      111.28527027479058      121.12947759108624
H          116.33650879078954      113.01310256875351      120.18274934289283
O          108.44359179947102      117.77853666641116      118.54840240620432
C          118.06974493777352      111.20514717586336      120.22888401263926
C          117.73105942415872      110.54277257213249      118.88702353576706
H          118.43398567431619      112.21522137545752      120.03933391954041
H          118.84741233798835      110.63502852084821      120.73884572231188
C          117.56958516866760      109.03277459008973      119.01968224436590
H          116.81818755718676      110.98620530121391      118.48340189445035
H          118.54126789532221      110.75172192661881      118.18890026431824
C          117.25560740118627      108.35505040684497      117.68318385758381
H          118.49758899757627      108.61296247389964      119.41281576740201
H          116.76843651152414      108.81469989027516      119.72666169423725
C          115.79740219865045      108.50644783218057      117.30255549067454
H          117.89696744851685      108.75018420544335      116.89694632749230
H          117.46584599526088      107.28901910958591      117.78053867175778
N          115.56649274959200      109.05422858657487      116.10848604164296
O          116.62351889749452      110.45829176125828      122.02093876599530
C          114.24061742054126      109.24352993876823      115.56184919018777
H          116.32558741884074      109.13871277971366      115.44022463729971
C          114.18231728013977      110.50835092470058      114.71237607664801
H          113.96977771651578      108.37672601454577      114.94658387377696
H          113.53922102169079      109.29850977683081      116.39675853026024
C          114.31413620262967      111.79811042737521      115.52004750784126
H          114.98760207405124      110.46734786596626      113.97556013686881
H          113.23200215903087      110.51730908148576      114.17577891677242
C          114.36004659742963      113.00582483971458      114.58600589932573
H          113.46093595209258      111.89183201991887      116.19491439126359
H          115.22168576912341      111.76162548361143      116.12367104724636
C          114.35150636375839      114.35241774757390      115.30593653669148
H          115.25368560510206      112.94139427719644      113.96099363114197
H          113.49116590318452      112.97041527959804      113.92452765930983
C          115.61734223606862      114.62808259902285      116.11783291181520
H          114.25965239073692      115.13798688433616      114.55278085716336
H          113.47592598797632      114.41883973127223      115.95382951290233
N          115.85447477261094      116.05528185977263      116.19385864011535
H          115.54951179005371      114.21122469588354      117.12796863184795
H          116.49416334856156      114.18554871155527      115.63422217875069
C          117.07487639682513      116.59071534374826      116.21055019080511
H          115.04694608177664      116.66145961053847      116.10800917877521
O          114.88704974626155      108.15924971402724      118.05521257153852
C          117.09287027756878      118.10717920640849      116.09778207190310
C          116.96196185010578      118.80632663616075      117.45335267422223
H          118.03431008029334      118.40499675049368      115.63224556771250
H          116.26439027487210      118.41858313727647      115.46077858985710
C          116.86025207665674      120.31703964142503      117.24843209093909
H          116.06897303752240      118.44498317109627      117.96626053896948
H          117.82426616160512      118.57206541985487      118.07962255444622
C          116.88173511102944      121.11118931379319      118.56118406897679
H          117.68798991697864      120.65299648777940      116.62004581374953
H          115.92884090512662      120.52935668231824      116.71753300154280
C          116.41305138863432      122.52107869326613      118.26870201371460
H          116.20173281778874      120.65671201163180      119.28196716533242
H          117.88926867356319      121.12643898999316      118.97594095277893
N          117.30161013537354      123.29896728762385      117.65042132735955
C          116.93357468376115      124.55628460902901      117.03138719468630
H          118.24048828340696      122.96452392027064      117.44755668240748
O          118.10135554185983      115.92072043832120      116.29557708294426
C          117.82232171439739      124.83464749692547      115.82194569106471
H          115.88465766480536      124.47445726491365      116.73385419042056
H          117.01015752121707      125.37694529279462      117.75171801303850
C          117.14895272057645      125.72678659383617      114.78236393681374
H          118.75145542338004      125.29259588235504      116.15922568651658
H          118.08158920290603      123.88509975118751      115.35491824381788
C          116.06684068895548      124.97519700315662      114.00697223472621
H          116.71764014480175      126.60266026381525      115.27119297984473
H          117.90678620654427      126.08838580431596      114.08479967395881
C          115.48016527908791      125.82819657180717      112.88909007670114
H          116.49774784492152      124.06321004475258      113.58766101834811
H          115.26381419538565      124.67745483374981      114.68243394480639
C          114.29173035021799      125.15660517130632      112.20753048609622
H          115.15228974930569      126.78284095101075      113.30248654865302
H          116.25170126578742      126.04465777317252      112.14697994507291
N          113.82414675001245      125.95977855735396      111.10123435322730
H          114.56718595341992      124.17326936501703      111.81572829775706
H          113.47838718769472      125.02027692944843      112.93073938878709
C          113.49925465087340      125.46904006464632      109.90441250952230
H          113.79367953648196      126.96837595472485      111.24701970025338
O          115.27272769443304      122.90486016044892      118.54317803132184
C          113.10229505963808      126.52095976067099      108.89153238522792
C          112.53657301100216      125.88485608754235      107.62645737730800
H          112.37823721609769      127.19728247055181      109.34761909285675
H          113.99499872588432      127.10468670207598      108.65704079359249
C          111.98145423460772      126.89978347356315      106.62926369190856
H          113.32254060662045      125.29185678070313      107.15672437129291
H          111.73956407571629      125.19205253251958      107.90225481174332
C          112.97374476743781      128.01358355500400      106.26633327776536
H          111.66427572303289      126.35552752472891      105.73751004761621
H          111.09187660667548      127.37065207963890      107.05208413892717
C          114.39565158276368      127.52636648901294      106.04600205670017
H          112.63801823647577      128.51659498305261      105.35761059704492
H          113.01548766133313      128.75564393867424      107.06476298632943
N          114.52138949328891      126.55193859522392      105.13318806425249
O          113.52084322674615      124.26549088923275      109.64288430378689
C          115.77272724900293      125.89423254322207      104.82851031495741
H          113.69121303811175      126.17250456101722      104.70403160393160
C          115.89101789457048      125.59549090949919      103.33856452817210
H          116.57988109504313      126.54857545799558      105.16541267234453
H          115.84155848718321      124.95731111676528      105.39792955739185
C          117.16292969425005      124.81241253044840      103.02364964057057
H          115.02182105954086      125.00968047197713      103.02840888787772
H          115.88264009635982      126.52703204068644      102.77116197394830
C          117.16561260773538      124.30871192129864      101.58213855071639
H          118.03577292615957      125.44352750227624      103.20002148426234
H          117.23640356623156      123.96245860968862      103.70541430443863
C          118.37952108335203      123.43386381456273      101.28112916435937
H          116.24783215762440      123.74232961896887      101.40419115681783
H          117.16047360571621      125.16358129816157      100.90265769800888
C          118.39968529278609      122.91985053812679       99.83429292770489
H          119.28540373203164      124.01116207793476      101.45990642918170
H          118.40562724500805      122.57093928813948      101.95233069046469
N          117.39212674225951      121.92179942554405       99.51577601386703
H          118.26553058702046      123.75714305148935       99.14368162703248
H          119.37512926414418      122.46772502184250       99.63357082912297
H          116.46610498027837      122.30066775629349       99.68102971973732
H          117.50845493312303      121.12545991812208      100.13425674215894
O          115.34941971818623      128.00223930001809      106.65054750834460
C          120.72782712434034      119.00615155526387       98.19017949941491
C          120.70708648182669      119.79085316503767       99.48041427231627
C          121.62277684749593      117.76572520832276       98.35221208299581
C          120.98103254698478      116.70170021847319       99.23992470832863
H          121.82774851517297      117.34213455212021       97.36809293157685
H          122.57696533600291      118.07601954094817       98.78387223734252
C          121.94295814130390      115.55810937702962       99.57858328047023
H          120.65568234704762      117.16502710408747      100.17378554594863
H          120.09751699238306      116.29729221009285       98.74241142702812
C          122.23196771051144      114.66185435663709       98.38656810674425
H          122.88283460654928      115.97064937036100       99.94600658816734
H          121.49935256260832      114.93520668467983      100.35415668571898
N          121.30664930903427      113.71946451216951       98.20379160355552
O          119.72653127272540      119.44898507393435      100.28135792136909
O          121.53553348731937      120.63484628697776       99.76601085696879
H          119.77140016222663      119.92734350657774      101.16681825617896
H          121.13173516519512      119.64421629499252       97.40490586974023
H          119.71313080155920      118.70262884316513       97.93873274111235
C          121.36764841315492      112.65022491792818       97.22972002267861
H          120.61387413380561      113.58937923213388       98.93164694686944
C          120.81734137007439      111.36859147951789       97.85188920162120
H          120.76855400508337      112.92162990688209       96.35153476126679
H          122.40656219153533      112.53739546229929       96.90560081173675
C          120.72967862172194      110.21787710966532       96.85014984919101
H          121.43701428258493      111.09426373182757       98.70586945612827
H          119.81530644237679      111.58620432747944       98.22643186129676
C          119.95118783571277      109.00952567351786       97.39824508974621
H          120.21997467425896      110.59168841884855       95.96009941885161
H          121.73127850073105      109.91222907736231       96.54263963538126
C          120.81978350747355      107.82914484931347       97.83665105207793
H          119.33328647445461      109.33734165460292       98.23492066762527
H          119.27698764587355      108.64241581160186       96.62328871477942
C          121.70559605093788      108.13817643304509       99.04049155954485
H          120.17002482247793      106.98983699851100       98.09373653509482
H          121.45071152708002      107.52000008787338       97.00032256383160
N          122.45920761492927      106.96698293563949       99.44245619589748
H          122.40551741425676      108.94156989654299       98.79045599336530
H          121.10031473160426      108.44993922325355       99.89351220529959