3795
 energy: -5103.039302638849 gnorm: 0.000941655623 xtb: 6.6.1 (8d0f1dd)
C          109.17578188343283      114.57279563376531      105.27216573754362
C          109.55634297463328      115.43754084561114      104.09565730820869
C          107.92139388097371      113.74087858158370      104.95711054564548
C          107.83467049287265      112.49154562062128      105.83064532407774
H          107.02638418650352      114.34827350654675      105.10097032707515
H          107.95432192373428      113.42645027567778      103.91176864345235
C          106.55786582436903      111.71105409692991      105.52694649813253
H          108.70387990119451      111.85785324706329      105.64181615527765
H          107.84324771365368      112.76519014427575      106.88607173916199
C          106.45143857420796      110.42727668828324      106.32028806651853
H          105.70068893677538      112.33346582791506      105.80019385629106
H          106.49842021130829      111.48163667860638      104.46388123562595
N          105.74252028902698      109.46891706938671      105.71331006140693
O          109.08829274872981      116.66815309985442      104.13246071814061
O          110.23740516267732      115.02316523903411      103.18246381609119
H          109.43364020301212      117.20879970167636      103.32999812764783
H          109.01617434577111      115.19482463789679      106.15231271157931
H          110.00918451603674      113.88989439347291      105.44883544151713
C          105.43693586935403      108.18087397107313      106.28965902597440
H          105.24302655196000      109.67801813671888      104.84865417280901
C          103.97636591448656      108.10699153869446      106.74243481092712
H          105.62835717519565      107.41644458416796      105.53059381965994
H          106.10480303860354      108.01927087341423      107.13981909065035
C          103.75442465731636      108.89940749326273      108.02763203929983
H          103.35243543866063      108.50468038649295      105.94031251634625
H          103.69953091588323      107.06309999042128      106.90142337246590
C          102.27642798271430      109.02275573547630      108.39127031349219
H          104.29498631851311      108.40676415894295      108.83791088042663
H          104.17594014191482      109.89895761061312      107.90782823539109
C          102.07901057768223      109.58478964995032      109.80171397450187
H          101.78682825033583      109.67182809151082      107.66534584774533
H          101.79922986307594      108.04231770590972      108.32727872692412
C          102.19425476510824      108.47943827350625      110.84560514326658
H          102.83174555161632      110.35162196710834      109.99619519070203
H          101.09344354424866      110.04848106017266      109.88680546803742
N          102.23412263727758      108.99829887932006      112.19393874497503
H          101.34650634381119      107.78937891836134      110.73957754788927
H          103.11282326195618      107.90521403906999      110.70181833262644
C          102.96407437927478      108.42781142758638      113.16678880606769
H          101.62452899687560      109.77156957022309      112.42020533843892
O          106.97723710126462      110.27886592865683      107.42126739909988
C          102.75917688830047      109.02866152997514      114.53624670016923
C          102.04223105777805      108.04651796938394      115.47123297148910
H          103.73647611986101      109.25733345614013      114.96427300873079
H          102.19016868497762      109.94969783280222      114.43843294258477
C          100.77391803080612      107.42102185317431      114.89328480929065
H          102.72043272221248      107.23294759306869      115.72729401938601
H          101.79371629309250      108.56681057241818      116.39699543494547
C           99.65991818674730      108.42647593907000      114.58670824756227
H          101.02100568872051      106.86989226143430      113.98296913007563
H          100.39979257757032      106.70678261837422      115.62913128562191
C           99.22714225157723      109.14598734114206      115.85070115053327
H           99.97536592042680      109.14867456848253      113.83620936535459
H           98.79529323318985      107.88025032868484      114.20362594724446
N           99.43783370009524      110.47174843475624      115.83655999660402
C           99.10559537846477      111.31720485363958      116.96261022021771
H           99.91929507002038      110.90627587828183      115.05474616807382
O          103.72726172999127      107.49572321017675      112.95115495859923
C           98.98970156414651      112.77449350094972      116.53541108648594
H           98.16758405073470      110.95071346937588      117.39073071061992
H           99.88637411392887      111.22908940552652      117.73010641426345
C           97.78443578846577      113.06923161900811      115.64191693817949
H           98.93148761106762      113.39245318924074      117.43268319023457
H           99.90038576600089      113.04270604881432      115.99766813167933
C           97.98546831673237      114.37333668493910      114.86535397399366
H           97.64227452788828      112.24848091394267      114.93685227503677
H           96.88415326152605      113.13848470956007      116.25574677525181
C           96.67484460128220      114.92399551437127      114.30395057584148
H           98.43525804776105      115.12072773438364      115.52193622116611
H           98.68320172321260      114.19219795649181      114.04639172711454
C           96.89014361361068      115.96460172711798      113.20666161294621
N           97.78506082136927      117.02879066236143      113.60815217416805
H           97.34721340186820      115.50194620591641      112.32782272051323
H           95.92072196867350      116.38261121978063      112.90603621722231
C           98.68815995665653      117.56183519541513      112.76425884197404
H           97.65572024029622      117.43892304464634      114.51956411910895
O           98.72688393075043      108.56662342640615      116.80274603961801
C           99.51480438843541      118.69653100135822      113.32041293504878
C          100.96134286020016      118.62710512588360      112.82512487890315
H           99.06615739196160      119.62895697417461      112.96520395924412
H           99.48830668163723      118.71666299299764      114.41025062946588
C          101.78795829879603      119.77051039275966      113.40220284091221
H          101.40350288980855      117.67393710888356      113.12430691828810
H          100.96760133123533      118.66645898117720      111.73608974608142
C          103.22529308178224      119.77286254104258      112.87623770429356
H          101.32379005340776      120.72303411445640      113.14044645261005
H          101.79149043261911      119.68744999026947      114.48820072995726
C          103.32253739906596      120.50773294258953      111.55376980674561
H          103.86531196861074      120.29611189503846      113.58988590447224
H          103.59624700029180      118.75576626700851      112.76906472982044
N          103.98531988440133      119.85673819626645      110.59227859253086
C          104.18073713758288      120.37732009745559      109.25878592076623
H          104.39554279028232      118.94946268900664      110.79074817001795
H           96.08862970007213      114.10879180846561      113.87550812310194
H           96.08878347998696      115.36142187219284      115.11518269494034
O           98.82044053190928      117.14420555458116      111.62116413023668
O          102.82886514398318      121.62023771334580      111.38786658349967
C          103.71530332541737      119.40359464743152      108.17329202997927
H          103.62825949100883      121.31474703995731      109.18940329217344
H          105.24565013001727      120.59286451770913      109.11216878860048
C          102.22214494732791      119.49393388922822      107.84990019324960
H          104.28387585640068      119.62160146676543      107.26666879465964
H          103.96491691703427      118.38962846285230      108.49504548151680
C          101.32930212054832      119.10040446680479      109.02463540807763
H          101.98700014547548      120.51775234620587      107.54933825142616
H          102.00876157589065      118.84710739351047      106.99660486569539
C           99.83874136902219      119.11537773495522      108.67787204973865
H          101.60742090561631      118.10582155665416      109.38027991401223
H          101.49618329904146      119.81058198932028      109.83313360491279
C           99.36748703456264      117.88595967157659      107.90540820959190
H           99.25819443845269      119.16823410277551      109.60134136887223
H           99.61320815718953      120.00785728296383      108.09145631729605
N           99.33046762788209      116.71773463981015      108.75775578340864
H           98.36261323403293      118.07334305646039      107.50484019550390
H          100.02658974139445      117.66078953581386      107.06354618387267
C           99.62065932604582      115.48831715668565      108.33025736445528
H           99.05322755652078      116.86610149748799      109.72148340833867
C           99.50784710883926      114.40307185460190      109.38725971683593
C          100.52790426170603      114.62953569945807      110.50400272854132
H           98.49789481410524      114.41351103233710      109.80091177113435
H           99.67738988665864      113.43746683381102      108.90766326056226
C          100.55663989956213      113.49451125576350      111.52580034232274
H          101.51999069274963      114.73911065488400      110.06353728929307
H          100.28426428110586      115.55859052216222      111.01969624858188
C          101.42150489687043      113.89684152323052      112.71563966931870
H           99.54333132195863      113.27530851888675      111.86913683048408
H          100.95017914040159      112.58260504754278      111.07156473240450
C          101.56948570525282      112.82794060810023      113.77995184727200
H          102.42080955174580      114.17712997010888      112.38014733665388
H          100.98947380519745      114.78215447642438      113.19012305027745
N          102.31315508524679      113.23524902039645      114.81237963118043
C          102.65824158690711      112.42249674220818      115.95693717291356
H          102.83470665653242      114.10916308508938      114.69850081720499
O           99.96921499098229      115.24433224802202      107.17772923822663
C          104.14876640331549      112.07846821162416      115.99488720157507
H          102.38766102395981      112.96558231687358      116.86945945800821
H          102.06493033571351      111.50793119676608      115.91592304562957
C          105.00799742669534      113.30596457457000      116.29584264968692
H          104.30110698110661      111.31277737853615      116.75639977655587
H          104.44120706944550      111.65847811710277      115.03064175454656
C          106.48584187617894      112.97546420440305      116.54323345411598
H          104.92871955856160      113.99077802704832      115.45348498130484
H          104.60356011580703      113.81986688495917      117.17109973829004
C          106.87476055132696      112.98934373438469      118.02116956859346
H          106.72082452307382      111.99673358278106      116.11976637932159
H          107.10695329220624      113.71075316383522      116.03297014975239
C          106.18747690004834      111.86913409549952      118.78884328240977
H          107.95585976559161      112.88133432573514      118.10903406236632
H          106.60332579376421      113.95450563446720      118.45697211766409
N          106.55631186831894      111.85029362411460      120.18737113616594
H          105.09915170615982      111.97950057846397      118.71978415821278
H          106.46815546348394      110.89731457224943      118.37794054331808
O          101.02737484529959      111.72425857296535      113.71401125117949
C          106.80558699844393      110.71150430714695      120.85302154326878
H          106.40216799639944      112.70079026014062      120.70587377017952
C          106.80666038980939      110.84057832536786      122.36099109899762
C          105.36824045091278      110.76771752834010      122.89867122946666
H          107.37785317697319      110.00872802130525      122.77519400719788
H          107.26999834027868      111.77919944219158      122.66935249284475
C          104.50977390814174      111.96121105946402      122.48597241384660
H          104.90260432740401      109.83849449670031      122.56622709895036
H          105.42074090209354      110.72539874251062      123.98771043922051
C          103.15116115773182      111.98199883739903      123.19089193881483
H          105.03793757056114      112.88514178034787      122.73703606245650
H          104.32609071087391      111.94569009728897      121.41045537806353
C          102.46911956799295      113.30769624488963      122.89002185667530
H          102.53647868908391      111.14868564415501      122.85459407011395
H          103.29201019234452      111.90065140587616      124.26844255100970
N          101.64944396767258      113.28288489823815      121.84057939042258
O          106.98432686228703      109.64614677950200      120.28277301508842
C          100.94006829172308      114.43195125821455      121.32758520287756
H          101.60874248623554      112.44856363498603      121.25736427256633
C          101.23352070368290      114.62961787287739      119.83967910333176
H           99.86461423293761      114.28654359294774      121.47980831224503
H          101.24316049469549      115.30297399692597      121.91174150691199
C          100.40350621249033      115.77119329035345      119.25850198458865
H          102.29696547944130      114.83891518901770      119.71696946597355
H          101.01440698116711      113.69873344158320      119.31137149657771
C          100.60769406328237      115.99689415492301      117.75944973635433
H           99.34568310130375      115.56249743403379      119.43616745885051
H          100.64275257060174      116.69130667503106      119.79177890809369
C          102.04693234820272      116.31961397328756      117.36809922888821
H          100.28308808575225      115.11549933859180      117.20647270058033
H           99.97558723456362      116.83521346495601      117.45721669520154
C          102.11137100298977      116.83164413739283      115.92819921893403
H          102.43790358660929      117.09316786593891      118.02733987600129
H          102.68023176981046      115.43713461902657      117.46676915437250
N          103.44479556133284      117.23019755102733      115.53981771683068
H          101.76942711599570      116.05354699607948      115.24053831575152
H          101.45435496065306      117.70159838729005      115.83527086767181
C          104.21707318102101      116.56742710037973      114.67873181169213
H          103.78466197592984      118.10501693507906      115.94086046032668
O          102.70524375406286      114.30857398144376      123.55932679614773
C          105.49425528257085      117.27907301433378      114.28389259666460
C          106.78072711497195      116.58126517982755      114.74141112411560
H          105.49877227367664      117.31638890307504      113.19153375105466
H          105.47351437490623      118.29622713501702      114.67214262901871
C          107.03718068063955      116.73114356886684      116.24003455089093
H          106.73794657201950      115.52546221544308      114.46503872921365
H          107.61478030230870      117.03110450242035      114.19899636985554
C          108.47362422309351      116.36150431994281      116.62207867405060
H          106.87958635224494      117.77084441920621      116.53250816492262
H          106.33391522502190      116.11111709979934      116.80035793332321
C          108.75577796855568      116.71220969026119      118.06946173129683
H          108.68426463952632      115.30689537583899      116.44549542212597
H          109.15015364424914      116.96295016640725      116.01091256221957
N          109.35946249683538      115.75868052557229      118.80044123173002
C          109.63842892211217      116.04590417084992      120.19385002355530
H          109.63976664081929      114.87047549678392      118.40577383469824
O          103.90618140324496      115.47426136144735      114.19761687380682
C          110.39809658386683      114.94849549085852      120.91787811625508
H          110.20850509052477      116.98082895419743      120.23970470325889
H          108.68428048986853      116.23062811312620      120.69726635115326
C          111.83790437364583      114.81190414905114      120.43131567597712
H          110.39739051167875      115.19288742532007      121.98287893192888
H          109.87821023335459      113.99788489998360      120.78612188758736
C          112.66336665847579      113.91305278896594      121.35080777027758
H          111.83304684892218      114.40319062593018      119.42005116412251
H          112.30573041135520      115.79764055409230      120.38843478781949
C          113.99312815119167      113.54554831188663      120.70452566330296
H          112.84203025310210      114.42870140200452      122.29704372768209
H          112.10463682546737      113.00275590868442      121.57163984631573
C          114.84965007814540      112.63289870183715      121.57337358173653
H          113.80942463535840      113.04628334380448      119.75087902739197
H          114.55869759195869      114.45304590968851      120.48592842420821
N          116.07683198405152      112.34867527541316      120.86186655142136
H          115.07688463720791      113.12257200735813      122.52914563932390
H          114.34276729905655      111.68957067254549      121.79648363206171
C          116.84222790919191      111.28303210086470      121.06420910660952
H          116.36799870725820      113.07055693151672      120.19472616049966
O          108.46188247672134      117.79381809309008      118.55891583996724
C          118.07042621714767      111.22317016890038      120.18172236608167
C          117.73929420578413      110.58862087010823      118.82490240344133
H          118.44147194664586      112.23531605956535      120.01824198513056
H          118.83839799054925      110.63731198560752      120.68770163893804
C          117.59662600484936      109.07505862678464      118.93063015603607
H          116.81888818381773      111.02764102096435      118.43362404520893
H          118.54355889364388      110.82327215552564      118.12834289189198
C          117.23328772316515      108.42783847943802      117.59345173902248
H          118.54217337664276      108.65245986234076      119.27597857072230
H          116.82401737051903      108.83740157828434      119.66127409409339
C          115.76194000810966      108.58774000153818      117.27204217803246
H          117.84467389350471      108.84073101866046      116.79226812594928
H          117.44893521649229      107.36111277251480      117.65997595422925
N          115.49443440681206      109.10085092571804      116.07119620898233
O          116.56890068355217      110.40980777035016      121.89505323006631
C          114.15734307977968      109.30198685614143      115.56048196625096
H          116.23601685783946      109.18223484445791      115.38084062762795
C          114.08858888474106      110.58186390294915      114.73404713836082
H          113.87339806824122      108.44837503708115      114.93443613598055
H          113.47456990932125      109.34602468801592      116.41076331862064
C          114.23819555734231      111.85379328326502      115.56560153673115
H          114.88205317541147      110.55261826925363      113.98330895249717
H          113.12990183660499      110.60548673921798      114.21291688082235
C          114.29224389192541      113.08119762556262      114.65852370131978
H          113.38996040901036      111.94182469067326      116.24737250552404
H          115.14893141096579      111.79514816143795      116.16304012109455
C          114.28701707959209      114.40832087115204      115.41324108293378
H          115.18829219908199      113.02560920238136      114.03507339634756
H          113.42656158881803      113.06284986967479      113.99139670303940
C          115.55413103975719      114.66079091280872      116.23328605282686
H          114.19564758147624      115.21362084681570      114.68193200504756
H          113.41075416110912      114.45715252770319      116.06196597074793
N          115.82086334165928      116.08272396869205      116.29243408375594
H          115.46861289868319      114.25974941578679      117.24817384605682
H          116.42503037039218      114.19119346917370      115.76474180824451
C          117.05096690230542      116.59371982856466      116.28804971781740
H          115.02352417803398      116.70094184302987      116.17738027614244
O          114.87960599473122      108.27550931454662      118.06987458635655
C          117.09030825180906      118.10806992761125      116.16251406877332
C          116.95717154588007      118.81089870363390      117.51648277169190
H          118.03798014045118      118.39229544547145      115.70198918256463
H          116.26922965437423      118.42692814439711      115.51946663330334
C          116.84959800884322      120.31982466425006      117.30697113418390
H          116.06729488844702      118.44694168472863      118.03318141876947
H          117.81974002857696      118.58211040041591      118.14461477289591
C          116.90135192244989      121.12240049006904      118.61420073591331
H          117.66216078284725      120.65329368149474      116.65817228632682
H          115.90561183995162      120.52885408216196      116.79755097243481
C          116.39321754172974      122.51623429655547      118.31414833725108
H          116.25493876389839      120.66183382844193      119.36131667992748
H          117.92190122857313      121.16159648654629      118.99523063831188
N          117.25774054247771      123.31173023779554      117.68481232430013
C          116.84300026718090      124.53853401904892      117.03493486877927
H          118.20810218238253      123.00271595440256      117.48106186345213
O          118.06649711832729      115.90899586568291      116.37509701394063
C          117.73635178794692      124.82160827378267      115.83107103137080
H          115.80192162660143      124.40588019410147      116.72749313728279
H          116.87750493372148      125.37760323411027      117.73667112378040
C          117.06528540740872      125.69987867200258      114.77948327196911
H          118.65784055276534      125.28898711031721      116.17471056218461
H          118.00428187328170      123.87076622239799      115.37273301590528
C          115.99639640208680      124.93126439845631      114.00252364392071
H          116.62051452588219      126.57582760463558      115.25525629843609
H          117.82412322686123      126.06277644083094      114.08434602779829
C          115.44835488295985      125.75028943802893      112.84165091227307
H          116.42668802612391      124.00015517089076      113.62479995122261
H          115.17286793797800      124.66218869827061      114.66601721063543
C          114.26153351299678      125.07765319413866      112.15960862941864
H          115.13006202056711      126.72572041859937      113.21082052880318
H          116.23873033513594      125.92520109128441      112.10863283128900
N          113.82098603545572      125.86954133000513      111.03559770115342
H          114.53063886008664      124.08434808159487      111.78817474604683
H          113.43803547830763      124.96109760277346      112.87516277417986
C          113.50712114638524      125.36414167338411      109.84151829925854
H          113.79749148850176      126.88091502687099      111.16968469843907
O          115.24292854347991      122.86674867041222      118.58485890740216
C          113.14684881751928      126.40505562170831      108.80582692950173
C          112.59095044011984      125.75479667428721      107.54358120911947
H          112.42566905056746      127.10123445557923      109.23773833817437
H          114.05194961503891      126.97082730173335      108.57559464231467
C          112.04102113907128      126.76038640577245      106.53487382300968
H          113.38023000282998      125.16009861360114      107.08261531192566
H          111.79338627107784      125.06299337071341      107.81875316613279
C          113.03888838913304      127.87024701674882      106.17663466478203
H          111.73254010182342      126.20781428319006      105.64566706282314
H          111.14501900244149      127.23229357401772      106.94633570528057
C          114.46303954337569      127.37187380900944      105.98367883244390
H          112.71735695138844      128.36787186880565      105.25897892292375
H          113.07067412266247      128.61808167797528      106.97055297076447
N          114.59731407870456      126.41990799427367      105.04463977895421
O          113.51317473771206      124.15777040957887      109.60030094128734
C          115.85478932226039      125.77589277123188      104.73861211092863
H          113.77312960236793      126.05180211645995      104.59568930309531
C          115.97283405605440      125.50115683804923      103.24392161572382
H          116.65325680896552      126.43386790370928      105.08762487931720
H          115.93067021132377      124.83072944730925      105.29411907986650
C          117.25833885954195      124.75134177216185      102.90322429255392
H          115.11332415020414      124.89994793039877      102.93277531620141
H          115.93811311987122      126.43909288363373      102.68726789610257
C          117.22352893580980      124.22444573402765      101.47067130145221
H          118.11496580001726      125.41359450420934      103.03559383628665
H          117.38256288670708      123.91610953126211      103.59590887910475
C          118.45844873536345      123.39685164223962      101.12489112904848
H          116.32353923421564      123.61739538847577      101.33980261540614
H          117.15068046201529      125.06969777216364      100.78248856914726
C          118.41967445285783      122.85243294016497       99.68894374855736
H          119.34374507462182      124.01975196365919      101.24017797106546
H          118.55784885526413      122.55329584471914      101.81295487912939
N          117.45104579068763      121.79670670263754       99.45315765568287
H          118.19996346171335      123.66681348869940       98.99232474023114
H          119.40279455707881      122.44724088394959       99.43491335418604
H          116.51470478220844      122.12569886611290       99.66365663130179
H          117.64982812407632      121.01847251660543      100.07313968222907
O          115.40159183619249      127.81197725903873      106.62379589618361
C          120.87329993726014      119.07326779690713       98.28171432996527
C          120.77377827284964      119.86103038357884       99.56671178214134
C          121.72677932635382      117.81541973815403       98.51616723408080
C          121.01421744576726      116.78559475452964       99.39006262312553
H          121.97371672728842      117.36576927793627       97.55352467733348
H          122.66218649199145      118.11425819454972       98.99350253516268
C          121.92506305773760      115.61710848360079       99.78077883589148
H          120.66270919156865      117.27218689267231      100.30217570031573
H          120.13944192840458      116.40325394842738       98.85940983107484
C          122.21886501355881      114.70074792355476       98.60390820631112
H          122.86560342786186      116.00480219542467      100.17192291435508
H          121.43741998793875      115.02116072158553      100.55055340894394
N          121.27514272742771      113.77473068621704       98.41738105462638
O          119.72624670817991      119.54092669195003      100.28906180931205
O          121.59812116670712      120.68090762846573       99.91598263798384
H          119.73324844648600      119.99536030085540      101.19159039841416
H          121.34796440440989      119.69883175625307       97.52546812809480
H          119.87320413729748      118.79242514677574       97.95392460332663
C          121.32534802190206      112.70998002275346       97.43947772917299
H          120.57886745664446      113.65142141692152       99.14407277933987
C          120.81064591086738      111.41833648626431       98.07250916291157
H          120.69428036061322      112.97470071852725       96.58122699955139
H          122.35545545057042      112.61633655614786       97.08378438987808
C          120.65277675258686      110.28359128533360       97.06105841071630
H          121.47889248324682      111.12686616867781       98.88273978735658
H          119.83349349419929      111.63237091971129       98.50765604613140
C          119.84290990250220      109.09908292055449       97.61623257387141
H          120.13041914098505      110.68502961748663       96.19032490010774
H          121.63139923431883      109.94187054277113       96.71720778244892
C          120.67577540746269      107.88330332645728       98.02670327776235
H          119.25414196536778      109.44265290094073       98.46714120091519
H          119.13907835586247      108.76226652860989       96.85286497143372
C          121.60123169921280      108.14646663008330       99.21127024210332
H          120.00188746699908      107.06494208177756       98.29122474459106
H          121.27625382523992      107.55653394666979       97.17352516505791
N          122.33840143574730      106.95263711279873       99.56963911960361
H          122.31088435849904      108.94021803853012       98.95597576398994
H          121.02702429548795      108.45376910388519      100.08694413567723