3258
 energy: -3427.507565415673 gnorm: 0.000802750365 xtb: 6.6.1 (8d0f1dd)
C          127.42996256782820      100.68662304288198      114.71935547026500
C          127.31374625310001      101.62583694066782      115.91392103818760
C          126.07679653702978      102.51363729945710      115.81294032587172
C          125.94795461474523      103.47520118044065      116.99116932430042
C          124.78092091862612      104.44372226901650      116.81616111851487
C          124.64868202569390      105.40764560963450      117.99251291760191
C          123.62426924916876      106.50565443981327      117.72010014513640
C          123.50214867039212      107.48700782647578      118.88210946672361
C          122.64591137050603      108.69957533466361      118.52491197285650
C          122.58284758374960      109.70452382984135      119.67167877176902
C          121.94220463457879      111.03693592059820      119.28736542458284
C          120.42978577884202      110.96302646701338      119.09901129055821
C          119.85641064381208      112.33672172149379      118.75852818026820
C          118.32967172671577      112.38410797101929      118.72388363031232
C          117.72371432669841      111.59833872137125      117.56506292747071
C          116.19600856536219      111.61252449804522      117.55301689829361
C          115.58925643991034      113.00495830993641      117.42154218943647
C          114.07333152331965      112.95165107365801      117.25558321721130
C          113.48122600719799      114.34397945410309      117.07226720800179
C          111.96197343517605      114.33884345758979      116.94536884169547
C          111.41663360524579      115.75140134142633      116.75641269314048
C          109.89375264944233      115.79262089726008      116.74330171059680
C          109.35304600151890      117.21176867051206      116.59109434770960
C          107.83151808484752      117.23165148813764      116.68014061021931
C          107.23171027406326      118.62370331134795      116.50962026601511
C          105.71086947867417      118.57490971550929      116.62211200730533
C          105.04455227617497      119.93703884308697      116.45740543389091
C          103.52357932976301      119.81070591792947      116.40599112841726
C          102.82200739506658      121.16439787964890      116.47043256111216
C          101.33352652910492      121.09275587531697      116.12134336595804
C          101.08663119977152      120.97986853080684      114.61962770736137
C           99.60395123799485      120.89009133522424      114.26356319627899
C           99.35438722371057      121.02858602503953      112.75995081581590
C           99.89275186406648      119.85908527479855      111.93659978641170
C           99.95287744280444      120.18640740943739      110.44571956923485
C          100.71307929219239      119.12641761823043      109.64806904594424
C          101.13345150233390      119.62945581435167      108.26874884086506
C          102.06445715523007      118.67638476442491      107.51750076995627
C          103.45730174415853      118.58617840188114      108.13842004170267
C          104.44420272041876      117.81673620357917      107.26302096094653
C          105.79390360969418      117.64952224673571      107.95633354912552
C          106.78239498996307      116.80198284785438      107.15976636000131
C          108.03693745876180      116.49153362404138      107.97374079177584
C          108.95328512041107      115.47559910998137      107.29728457587689
C          110.06694850178432      115.00026372602939      108.22831542011775
C          110.82550482197962      113.80209468046540      107.66531403718528
C          111.80485735338618      113.20117680292665      108.67119334014467
C          112.36333727698455      111.86420305883719      108.18874541626471
C          113.21902880391309      111.17356559755544      109.24561406827669
C          113.64068447927779      109.75807100263945      108.85006983741607
C          112.50333512826265      108.74047729803907      108.93040312620933
C          113.00498528122166      107.31837567286688      108.68916025620666
C          111.89109437874372      106.27651076837370      108.59067430956424
C          111.09175906303125      106.09383374397797      109.87920100794949
C          110.11100007255048      104.92875326360090      109.76699648223621
C          109.12512346760698      104.85053023826033      110.93085372767578
C          108.22711736004503      103.62134226084652      110.79934662316847
C          107.05269687369015      103.58413791817254      111.77726738065410
C          106.01960705271721      104.67596985040610      111.49947707469097
C          104.65106812198920      104.37086370627664      112.10345829628264
C          103.66308123046588      105.50001620599187      111.82451327444669
C          102.24113072790871      105.18655688903438      112.27922383884138
C          101.30044694662421      106.35516941059065      111.99999874450117
C           99.85420331303764      106.06008544970445      112.38035709659765
C           98.92053824466424      107.21053488415382      112.01199735054834
C           97.46035880387561      106.86674978905893      112.29171617242503
C           96.47798469620636      107.85269883526250      111.66296554902254
C           95.03867925104996      107.41310825016323      111.91909787454641
C           93.99360572465808      108.10291964724149      111.04562441778869
C           93.80851917659697      109.59115264230422      111.33368657368807
C           92.52935826988305      110.11311689379670      110.68187095169262
C           92.33296581262488      111.61831762966553      110.84381905581208
C           90.97800458774404      112.06287270236378      110.29186315282395
C           90.90684359986534      113.55426398850740      109.96087512895279
C           91.23935817728096      114.48765487829841      111.12455752522159
C           90.31892289948564      114.31521868838146      112.33252810565435
C           90.39873071688142      115.48991790512025      113.30995077924837
C           91.79873343487560      115.70358830418418      113.87973421068769
C           91.85892924228588      116.87257573173011      114.86050935842569
C           93.29732992037707      117.17987776480783      115.26836314783615
C           93.41421540626897      118.40448162091299      116.17269198058818
C           94.87580258955296      118.75644389433569      116.43415963495654
C           95.05225526446161      119.99677969153936      117.30485501517491
C           96.52985948292357      120.32140301037614      117.50940259568223
C           96.75051545576217      121.63260884402735      118.25863458099954
C           98.23722885203298      121.92581156491993      118.44627196664729
C           98.49782895867295      123.32556865114162      118.99696723385017
C           99.98808711029065      123.58750325755389      119.20635033142167
C          100.26255597624061      125.00975402465863      119.69041853444416
C          101.69897168596130      125.21848554476378      120.17219667650180
C          102.75031779907565      125.15237014083293      119.06565246627045
C          104.15150575295664      125.37412497587422      119.63221580389714
C          105.24328246589481      125.36173673751532      118.56476129017160
C          106.62723085495665      125.55300366592452      119.18193175233451
C          107.73895860991466      125.70846681091194      118.14528601608122
C          109.09244698035555      125.92175296341077      118.82309934856897
C          110.20167292414459      126.38363807701336      117.87681211658328
C          110.71849771058815      125.29755959963930      116.93676723420744
C          111.87652643450177      125.80995399906404      116.08154072441896
C          112.49437058726647      124.71771364463801      115.21313854393755
C          113.59710909331862      125.25561888627486      114.30388778530639
C          114.22856375564304      124.14972583936820      113.45879631877409
C          115.00621529927618      124.66663686977222      112.24897545819823
C          116.19373840705724      125.55226805477443      112.61642057587775
C          117.09972675920119      125.86068261882724      111.42035212912617
C          118.03018755964791      124.70253011382525      111.06665327809661
C          118.96772738217129      125.03311579426192      109.90897229364732
C          119.96237171689734      123.90431077817735      109.65166969354695
C          120.93528997272357      124.23196648381200      108.52313136959003
C          121.93829672398591      123.10747953323907      108.28209457822953
C          122.89577503917795      123.42352051873398      107.13569106504242
C          123.86583625744129      122.27580760282017      106.87041311175638
C          124.79626156273034      122.55582047964675      105.69133551577278
C          125.56377796384176      121.30462231807985      105.26967057682717
C          126.52853464126308      121.56185395841240      104.11113511608339
C          126.89336567827358      120.28808099503799      103.34616574365505
C          127.62889962595504      119.24929306622542      104.18988957210580
C          127.88000054809302      117.96237330540599      103.40683262154474
C          128.57554580989213      116.89795804505567      104.25169127226781
C          128.77075447281473      115.59708190036822      103.48234173259631
H          129.54655420806333      117.27529540832009      104.58188315820028
H          127.97466691946413      116.70358131396972      105.14258597524498
H          126.92316376608609      117.56747482250044      103.05617734069102
H          128.48833769156110      118.18218718591400      102.52576726447379
H          128.58112819363791      119.66344958526956      104.53041247619902
H          127.03780678710731      119.00929028239568      105.07440946659413
H          125.97695409738286      119.84061054374392      102.95419653588949
H          127.51832609301668      120.55595525993240      102.49001115602705
H          126.05929986421806      122.25599856137235      103.40861657520712
H          127.43641143638600      122.04018935627705      104.48577381664401
H          126.11124041722194      120.91438503691545      106.12918634653319
H          124.84114970407256      120.54540489635984      104.96283367199950
H          124.20521414201227      122.91221110987229      104.84301479587360
H          125.49859816725908      123.34985261011221      105.95690949000090
H          124.46045698890300      122.08593109009877      107.76546972115317
H          123.28957597825476      121.37137067480016      106.66450698785076
H          122.31759453190658      123.62023222908296      106.22813015548739
H          123.45807605577947      124.33263330013017      107.36562298465280
H          122.51285334268995      122.93277108171655      109.19429926129790
H          121.39684098268262      122.18675375920911      108.05381133632069
H          120.37230368265173      124.41467136180113      107.60447692745393
H          121.47495527750867      125.15195821404268      108.76584430876028
H          120.52565219689609      123.71002995399792      110.56752470203337
H          119.41488252753049      122.99245486114773      109.40160366555996
H          118.38262645658710      125.21615793277194      109.00469095870066
H          119.51544920702915      125.95196368765336      110.13618804999582
H          118.63000975546669      124.45069278159039      111.94423255559438
H          117.44455069874405      123.82094051993641      110.80343850131889
H          116.48411571320412      126.11670674416953      110.55401811189459
H          117.71173779539950      126.73637140875861      111.65422127216526
H          115.82085641812097      126.49157931067292      113.03086156069658
H          116.78444292899620      125.06100811308156      113.39139216083605
H          115.36401617503678      123.80440446344234      111.68452401671675
H          114.33133187264791      125.22968894972293      111.60064699326375
H          114.89073229510717      123.54864481516336      114.08559441296130
H          113.43568548462643      123.48971839983467      113.09687282077292
H          113.17180551820951      126.01667530144336      113.64600876129711
H          114.36460400629586      125.73829773044245      114.91258800670364
H          112.90341901301267      123.93588587457927      115.85658171078475
H          111.71438594528323      124.26498897250312      114.59772062101845
H          111.51869814938053      126.62283011903169      115.44366359987526
H          112.64738928887839      126.22805264550078      116.73538866280956
H          111.05735281868813      124.44279761826697      117.52803043284921
H          109.91246450621450      124.95238303449483      116.28716599528292
H          109.83986292498153      127.22900383746732      117.28620165401469
H          111.04090367598964      126.74361237279733      118.47916776474635
H          108.96977989658535      126.68369581588274      119.59820566750513
H          109.39917945599238      124.99791811739129      119.31958849614240
H          107.77420161456746      124.82286116363939      117.50948390251469
H          107.51590480620993      126.56662974580809      117.50628060012869
H          106.61005157394281      126.44537868830409      119.81418807338618
H          106.85258893649569      124.70004882712108      119.82624099327096
H          105.21193845392546      124.41194571165506      118.02695536066192
H          105.05328517717483      126.15872883235764      117.84163698320720
H          104.17667952531716      126.33352499316810      120.15620003426443
H          104.36301772649277      124.59397928831808      120.36723337229517
H          102.71204753132363      124.17882774558065      118.57424543693391
H          102.53444062601240      125.91504501087161      118.31310222407853
H          101.76572143618787      126.19726128492152      120.65526848884194
H          101.93039051348342      124.46461496530452      120.92860853505574
H          100.03903237032776      125.71891122740438      118.88946489318332
H           99.58683203556328      125.23174370248218      120.52102271663161
H          100.37397243756175      122.87847595739936      119.94135196747580
H          100.51653578035418      123.41219029307356      118.26776544803187
H           98.09330729718951      124.06659460798660      118.30237056644035
H           97.97148854489126      123.44643452643830      119.94745741388599
H           98.66920273238547      121.18380166733621      119.12208600731007
H           98.73982027534825      121.82422281024503      117.48221829550455
H           96.29056709983800      122.44813088160436      117.69440482737217
H           96.25774913310107      121.58762104124941      119.23281330950074
H           97.00344227028172      119.50531944125736      118.06035220657948
H           97.01715125938703      120.38653843285083      116.53321622061648
H           94.55749225388159      120.84708464112099      116.82849719583308
H           94.57455334207403      119.83732965457270      118.27432506629502
H           95.36520684070017      117.90908799277592      116.91774656747991
H           95.37504580169589      118.92480020018802      115.47691673142245
H           92.91658606131467      119.25408032934504      115.69785093569081
H           92.90516685447983      118.21254536130553      117.12008597650090
H           93.72095174937132      116.31224506931468      115.77875686981768
H           93.88838886300675      117.35233475723584      114.36521725807302
H           91.42337289766067      117.75772504899743      114.38920523277062
H           91.26245182509173      116.64594176879598      115.74734145553383
H           92.13405863407526      114.79153419798541      114.37908014007628
H           92.48993738092688      115.91042612988923      113.06185977131607
H           90.08016437969644      116.40205458978355      112.79800934244406
H           89.69954811969846      115.31483080001755      114.13197404415628
H           89.28694203065103      114.22522825332487      111.98316821688088
H           90.57201382157848      113.39366197467990      112.85989415762057
H           92.27386103255381      114.32156683017733      111.42539888238974
H           91.16045028185572      115.51738698803422      110.76530611429980
H           91.60499670599580      113.76365665375218      109.14559692820731
H           89.90094387725655      113.78145574205737      109.59723453823889
H           90.77586505069253      111.50832225775240      109.37110325230493
H           90.19176449346283      111.80340061626401      111.00337898674395
H           92.40790254284830      111.88296340691058      111.90067241911004
H           93.12827940158768      112.14260145308037      110.31162893674170
H           92.54937067993912      109.87221022312643      109.61552608419689
H           91.66835775983729      109.59523157422149      111.11502569630102
H           93.75642963070179      109.74856405549605      112.41327487177982
H           94.66415552118717      110.15165796226351      110.95558389428594
H           94.25730817909819      107.96900664482695      109.99328395980118
H           93.03749827452422      107.59861316609280      111.20684919072707
H           94.97403748443087      106.33907180397681      111.72561154729866
H           94.79188585585348      107.57549608785973      112.97117874761702
H           96.64512434500409      108.85383854508262      112.06435610502734
H           96.65627384647203      107.89160049773120      110.58594094981066
H           97.25186031960882      105.87168616767646      111.88722808759093
H           97.29380387395572      106.82165584735954      113.37091365232422
H           99.20157384112308      108.10864255746291      112.56754488462097
H           99.03768646304722      107.43246775474698      110.94816947150126
H           99.52596350298235      105.15669551502182      111.85972424191017
H           99.78483742271978      105.86488857022863      113.45203837031015
H          101.64407839298993      107.23619596182957      112.54677035693526
H          101.34208946336246      106.59271270483866      110.93489764445337
H          101.88175925151744      104.30097024086068      111.74983593153097
H          102.23906726892365      104.95917038423983      113.34740085803142
H          104.00812574414432      106.40968131052267      112.32387280517833
H          103.65120284296582      105.70116974642707      110.74991469964912
H          104.26793670026939      103.44245543801578      111.67178677903097
H          104.74698713129068      104.22181350621499      113.18130676273761
H          106.37591366580547      105.63246565744571      111.88946565078948
H          105.90008668058465      104.78521711571409      110.41813574072459
H          106.56410490030029      102.60984247052208      111.68349309196466
H          107.41873770803764      103.67197202771302      112.80314962184197
H          107.82704020587828      103.58453498516330      109.78270039263504
H          108.83639478830044      102.72370623561206      110.93899093261395
H          109.66948629781616      104.80729268392902      111.87827685965480
H          108.51650351408931      105.75660548920148      110.93776242004289
H          109.54442184120772      105.02757157921062      108.83674210283624
H          110.67077077858028      103.99163812953360      109.70640453269328
H          111.78037264880226      105.91282989244861      110.70750336339792
H          110.53638204765691      107.00678769008135      110.10307239230667
H          111.20782761846478      106.55711612774581      107.78418384176624
H          112.33945863563811      105.31738844948086      108.31785362898142
H          113.57388053796970      107.30428747080863      107.75519796703500
H          113.68808819504108      107.03653912124616      109.49464550478797
H          112.03983182343363      108.80449687259812      109.91751835711051
H          111.73685417808883      108.97887288139572      108.18989995301479
H          114.05064937489234      109.77003411920487      107.83699546533752
H          114.44170375252261      109.43241110269378      109.51996736601016
H          114.11445669250114      111.77419689853889      109.41618076581589
H          112.66639498166484      111.13037663418407      110.18776837532576
H          111.52662003846854      111.21601350433512      107.92258107324314
H          112.96314924939286      112.02111025944532      107.28865878249910
H          112.62160162993592      113.90258879199793      108.85956762865473
H          111.28586098476489      113.04389450532537      109.62109324776505
H          110.10155410616909      113.03245831735552      107.38677826504345
H          111.36120520923235      114.09341044077155      106.75940162000192
H          110.76172316777459      115.81902493516907      108.42563983108595
H          109.62239320348183      114.71286122685669      109.18507775568906
H          108.35473913895984      114.61163130020114      106.99780227092802
H          109.38383812734047      115.90629918591772      106.39042971166540
H          108.58857661224975      117.41517019321942      108.16699084543710
H          107.72978667652592      116.08995147804724      108.94274328854995
H          106.29795405178137      115.86267155103995      106.88098971485555
H          107.05474782064337      117.31672600224236      106.23586370386430
H          106.22943094324664      118.63459780062296      108.14516322718389
H          105.62995489092559      117.17513253443758      108.92669800897099
H          104.03163419134850      116.83021350633506      107.03530691199694
H          104.57891233787859      118.34112627237076      106.31453539257278
H          103.84009697970515      119.59684785704712      108.30301321100660
H          103.39593434237278      118.09593088203661      109.11181176510898
H          101.61507437898116      117.68085781898959      107.47501841253447
H          102.16403479464441      119.03354770284899      106.48997572029278
H          100.23902901095772      119.80564583674311      107.66538452858175
H          101.64624240721449      120.58805687201537      108.38481740552490
H          101.60619715361604      118.84277949149789      110.20799049389935
H          100.09220769587330      118.23489402965077      109.54186510142402
H           98.94304519056212      120.30456055773737      110.04622829178858
H          100.46157103345055      121.14699740331984      110.32858073206960
H          100.90163977409910      119.62000667861633      112.27590407504003
H           99.27166175792628      118.97513844035994      112.09870079114988
H           98.27988430467059      121.12801071016956      112.58118518971665
H           99.82986614867589      121.95090535257344      112.41466645125041
H           99.19890088435577      119.94108073896305      114.61902696401991
H           99.06613415650089      121.69260133241275      114.77803759330406
H          101.51140610703102      121.85954581901044      114.12869252183683
H          101.60298903500004      120.09958530435706      114.23736156084050
H          100.87762827694209      120.24192153868032      116.63389732112427
H          100.84292321480849      121.99932223440413      116.48537487169430
H          102.93540903106741      121.56729276637471      117.47970049954139
H          103.31366136744286      121.86105727053207      115.78914666849172
H          103.24157216927973      119.29095470033830      115.48814784543661
H          103.18670514596468      119.19802983940650      117.24465790736018
H          105.33158238742411      120.58790371949006      117.28632974426883
H          105.39785900080335      120.40211106088476      115.53456197202942
H          105.32323809337710      117.89606623908136      115.85668211443327
H          105.44134728657176      118.15815933973694      117.59646322589165
H          107.63627917660853      119.29496668800242      117.27185919930611
H          107.51487247088080      119.02693309050628      115.53384062598208
H          107.42334935556899      116.57219147008826      115.90927262314993
H          107.52932961412634      116.83041445381684      117.65042551271422
H          109.77210760376482      117.84753597033091      117.37628971677438
H          109.67324614323019      117.62700170313137      115.63127852388237
H          109.52017468329142      115.17356570486014      115.92401950120671
H          109.51759125148524      115.36705527624775      117.67651495212094
H          111.78112933819212      116.38911525649496      117.56673324423429
H          111.80104379690351      116.16458942173560      115.81935296657139
H          111.66628930731393      113.71702151064059      116.09801330447853
H          111.52583380910399      113.89998728758881      117.84570115760189
H          113.75836756312880      114.96273143728119      117.93053939359366
H          113.91730691786067      114.80490886443062      116.18139402775851
H          113.82522725419135      112.33563283783423      116.39006521525847
H          113.62877266964041      112.47898082388313      118.13469397607572
H          115.82609909619318      113.60032114903419      118.30633131556581
H          116.03125559211992      113.51105249415151      116.55986781051256
H          115.85288957379612      111.00680241861568      116.71125647197248
H          115.82147700996401      111.14126408605232      118.46434351492377
H          118.09573787646393      112.00969779774685      116.62502890873017
H          118.05157698673665      110.55907452886699      117.62754038231607
H          117.93888112842171      111.99549727083401      119.66777260353115
H          118.02744666677647      113.42996304714023      118.64431160561820
H          120.20644439672891      113.05122211277185      119.50901362483948
H          120.25047931299834      112.66174974595926      117.79183376853591
H          120.19679403074404      110.25424217695465      118.30420263580355
H          119.96883268032805      110.59534933286929      120.01979317480260
H          122.15916668149237      111.76776185991282      120.07092210571153
H          122.40267188736060      111.40409330325596      118.36707517658947
H          122.03614592030685      109.26867912605952      120.51058530743855
H          123.60323611376474      109.89938883111260      120.01092309028978
H          123.07404112254008      109.18631500974617      117.64521153715231
H          121.64077334347601      108.36617671676296      118.26406083271455
H          123.07397376021675      106.97456712787056      119.74725462533476
H          124.50206211713510      107.82812237724266      119.16575372682695
H          123.92097943631569      107.05256962260381      116.82153366504508
H          122.64995537844182      106.05157411193699      117.52474431583791
H          124.36415708139874      104.85228708365784      118.88927147384702
H          125.62082917279278      105.86858800170893      118.18883203533782
H          124.92788944056315      105.01746867309457      115.89744678860980
H          123.85239289580838      103.87894018253752      116.70447577196752
H          125.81343206972285      102.90498316575254      117.91373606886579
H          126.87474911874332      104.04695681515257      117.09182641695999
H          126.12687798048952      103.08600279308652      114.88365419881714
H          125.18680489546492      101.88367828614695      115.76209479182670
H          127.26739300090092      101.03998509646827      116.83520972017962
H          128.20601211128778      102.25462520501037      115.96788014345366
H          127.49086920235480      101.25644382991801      113.79440775082040
H          128.32051514969089      100.06748529894212      114.80051614833489
H          126.56138262169875      100.03403988886150      114.66332268660537
H          129.37716413956952      115.76444889542100      102.59461625123762
H          129.26795782604634      114.85450302439023      104.10230327600894
H          127.81108248434741      115.19305564731998      103.16765977366599
C          119.48292394222911      107.51807442755462      126.40560908897531
C          118.30045210842798      107.92433146017862      125.53500473893908
C          118.14822468002674      109.43805417215592      125.38343152685793
C          119.28576640536026      110.08516334854170      124.59660074127628
C          119.01706441437544      111.56038818616318      124.30399834045376
C          120.05811677960345      112.14257710651097      123.35092345757982
C          119.83861947167328      113.61979394558784      123.02251144238272
C          118.48510433017609      113.89261757462015      122.36531151666254
C          118.46020677858458      115.21790929150032      121.60730244369375
C          117.08361518360218      115.50436106490623      121.01081261829779
C          117.10538805635890      116.67705861735141      120.03317389375648
C          115.73119230225331      116.93400877181165      119.42090102536307
C          115.75600832349438      118.01427465627204      118.34253918814385
C          114.38141079353090      118.21397145146189      117.70810197110499
C          114.40204699057116      119.24835356984504      116.58729030854040
C          113.02322000266409      119.47367396276704      115.96773365423017
C          113.06667020790339      120.56990089905548      114.90723478555770
C          111.74279532573014      120.79761138706408      114.17942000446557
C          110.60779800782463      121.29657678481664      115.07642920943699
C          109.53316392427134      122.01697633749021      114.26247261913237
C          108.30709315244974      122.39273368139115      115.09291883754403