3536
 energy: -3716.267805852505 gnorm: 0.000726278337 xtb: 6.6.1 (8d0f1dd)
C           58.99838674317277       56.00786636223087       41.93973990677651
C           58.13377333951944       56.75809371243182       40.92794996006703
C           57.08757528218751       55.80871890478152       40.34901933806468
C           59.02507551517397       57.36194275893932       39.83670626830330
C           58.32793396716634       58.33251511970137       38.87260930929206
C           59.19834005445978       58.52104757001467       37.62960475775372
C           58.05218837000609       59.68495089826728       39.54153404588072
C           56.95339245690482       60.51207781119793       38.85694690418890
C           57.08130048772504       61.97240731879101       39.29170554465306
C           55.55433119516869       59.95263277803451       39.17837060299660
C           54.61856452535971       59.85204858189298       37.96774103697974
C           54.29425676534904       61.23104386081236       37.39171602189094
C           53.29724023737912       59.15490742871504       38.32679759532126
C           53.39037658401674       57.70183754340960       38.80589757230394
C           54.12851914923269       56.82119251390478       37.79696857641514
C           51.99190307079055       57.10465410941797       39.02569880977133
C           51.06563687231425       57.82565532772043       40.01645370659666
C           51.68599966026809       57.89140777807658       41.40780688718816
C           49.72103101839134       57.08125793942813       40.01713935590885
C           48.64220305279263       57.57325539851038       40.99296241886078
C           47.40097902801490       56.69767434173686       40.82132434521240
C           48.31942677677000       59.05404390034182       40.77599525543761
C           47.24072336735776       59.65617857692442       41.69243462192344
C           47.13331445578313       61.14781418024395       41.37875345922554
C           47.57864584934063       59.41094115490702       43.16803969907565
C           46.72483393941990       60.14218841818175       44.21637640436957
C           47.22631754346044       59.73709815520111       45.60340258903785
C           45.23291691082275       59.82392036931862       44.06929973460439
C           44.29418745534368       60.65240699973949       44.96150036777970
C           42.91928975397532       59.98490876804256       44.98747501264114
C           44.18413579838981       62.09479011181151       44.45094999411035
C           43.54936562180038       63.09286553536748       45.43216560639257
C           43.01866010880048       64.29530113101397       44.65195693494547
C           44.55556103945592       63.53784640464320       46.50082110586366
C           43.92975871765734       64.35872906981936       47.64621250084529
C           44.43455907118333       65.80266935848277       47.62217260049589
C           44.22832133499980       63.75113145250400       49.02347814043138
C           43.55452031463866       62.40468463531091       49.30980396890388
C           42.03702431133962       62.55932697879289       49.42291825181793
C           44.07557513189887       61.78974318462024       50.61823084221650
C           45.56787343484481       61.44348075671962       50.67198810613132
C           45.95641245667965       60.48131733960957       49.54991438833194
C           45.92858278313617       60.79498312371772       52.01617148639810
C           45.69002305551665       61.63371207763486       53.27866669059227
C           46.29356295927465       63.03388726526903       53.16099627728443
C           46.30568166493614       60.94592391548152       54.50764963023732
C           45.82483694737162       59.52343668415649       54.81138265909573
C           44.33432156084066       59.50744424140951       55.14410635654574
C           46.60622160034293       58.92092414514924       55.98858129007441
C           48.09413250588135       58.64883808950527       55.73803377099604
C           48.29863845319114       57.65517702019190       54.59521777012650
C           48.76700941565202       58.08571842756881       56.99777630503814
C           48.78241354841946       58.99327855504511       58.23316013944839
C           49.33925070704799       60.37942930577909       57.91035120201355
C           49.64008822896218       58.37374700743518       59.34577582685208
C           49.20576115262653       56.99788473053037       59.86814268253552
C           47.79851005698787       57.05536234661679       60.45408950629407
C           50.21917419284835       56.50773699532063       60.92109816144175
C           50.79388766107431       55.09845563174608       60.71507984176075
C           51.42600408933070       54.94815067642012       59.33062872054197
C           49.79549218232737       53.95980973682367       60.95242405549568
C           49.22141072705782       53.83799236580419       62.37156088297115
C           50.29470149329049       53.98150885900438       63.45150441409845
C           48.55095670884906       52.46910974095913       62.56538366211813
C           47.42312696203904       52.09364480665126       61.59867606747705
C           46.32412199827410       53.15332420934347       61.57058030717334
C           46.78460091380796       50.75957669347080       62.01427569536468
C           47.70491474915479       49.53544293759703       62.02441918259460
C           48.22189945718949       49.23380765891703       60.61851088841642
C           46.97329409716188       48.29764002339303       62.56430097228288
C           46.43657279294858       48.39493490009665       63.99801597970110
C           47.54951456036628       48.73936196211129       64.98790774773219
C           45.77693344293157       47.07372024153315       64.42120868167109
C           44.45386720821673       46.72832608072358       63.72232427166528
C           43.33052361748275       47.65340712955179       64.18344009072352
C           44.12699231574042       45.25541125188720       64.01056019918157
C           42.80437880419660       44.71646803535207       63.44588783873636
C           42.60940021562320       43.28075375436880       63.93566324025073
C           42.79200538442196       44.78110311019963       61.91579171335842
C           41.44648015655464       44.48416528220755       61.23786126493184
C           41.68789940016594       44.27611220621604       59.74503782017142
C           40.46493208802060       45.63497164777274       61.48789469298435
C           39.06060040807542       45.50328931029411       60.87858251400571
C           38.26863141110725       46.76208568471191       61.23622765107943
C           38.36608327889301       44.22895892890328       61.37768364938204
C           36.86658703090612       44.09433370524403       61.07043752731092
C           36.33998684711329       42.82696897334466       61.74514577728687
C           36.60419122168576       44.05835950039222       59.56096418194160
C           35.13602099245914       44.18355189447311       59.14898994796529
C           34.54603612956116       45.56064771637881       59.43263535994789
H           58.37753160668829       55.55672885476237       42.71047102027440
H           59.55591593050219       55.21490536179380       41.44515238008461
H           59.70692947325521       56.67891279522985       42.41870331293752
H           33.52764199389239       45.62052598940623       59.05476564740513
H           34.52071209083149       45.76577426910484       60.49997741047051
H           35.13597744470179       46.33521491921993       58.94645118200241
H           37.15199230185753       44.87163328767276       59.08251090104069
H           36.99557487883107       43.11740463233695       59.16585937673528
H           38.87721474385355       43.36214420506457       60.95189841227022
H           38.48908114942094       44.18148325541221       62.46363752219290
H           39.15729443179166       45.46009687470603       59.78961782249747
H           38.05519607247369       46.78727015259105       62.30325469154839
H           38.84354148359757       47.65046847012022       60.98315893652752
H           37.32776268571107       46.80758125249194       60.69484834227053
H           40.34389249059724       45.76591377936925       62.56595888737823
H           40.91611125189011       46.55142864748878       61.09609761622651
H           43.10395729901833       45.77709200734277       61.59825331459806
H           43.53419297068386       44.07095333744471       61.54450239253538
H           36.34356248455987       44.94855354530812       61.50695305421721
H           35.26632030677855       42.72666113716749       61.61011926096082
H           36.82139987741395       41.94456108465805       61.32712576137777
H           36.54204356047835       42.85186224890567       62.81412969312193
H           41.03525011596924       43.56001328637327       61.65183441973752
H           40.77913125152143       43.96015559838841       59.24176914985322
H           42.04018003057692       45.19757327052628       59.28654710816886
H           42.44193036468169       43.50716781620444       59.59139093285202
H           41.98620084795146       45.32041345424985       63.84684541817121
H           42.65165057723478       43.23868350796228       65.02241591011391
H           41.64546181227566       42.88755140420079       63.62349701502604
H           43.38799942321010       42.63208606210844       63.53834644707178
H           44.94162469034716       44.63863112183432       63.61958336832990
H           44.11250278471119       45.11939358512132       65.09612947251956
H           44.58699334768632       46.85493722207134       62.64507166151425
H           43.61382672849216       48.69534887764147       64.06088842646595
H           42.42802718887272       47.48815544580852       63.60139570035992
H           43.10278934847954       47.48190543240454       65.23404871414661
H           46.48951195157008       46.26413505932629       64.24460712062996
H           45.58912171585372       47.10564308601803       65.49828526315152
H           45.68145383504762       49.18457110777943       64.04873988953462
H           47.93511111201555       49.73995427821874       64.81301728370261
H           47.17445192041527       48.70188919515397       66.00936569683870
H           48.36962914915718       48.03067502970791       64.90133437022864
H           46.14388473261267       48.07563248559708       61.89033963756071
H           47.66273020787957       47.44981951458630       62.52029725602380
H           48.56430782115120       49.72957747094308       62.67046975478458
H           48.85962478025691       50.03580224767170       60.25653953097185
H           48.80123514177539       48.31279772767947       60.60845990619437
H           47.39122927030868       49.12274656113825       59.92609494058764
H           46.36629487546879       50.89770215804106       63.01390296435152
H           45.95197989167226       50.54979161618633       61.33737582420141
H           47.83084141186126       51.99473103776840       60.58922408352743
H           46.69472063208250       54.09787298114284       61.18427338851377
H           45.50403368647171       52.82951727051892       60.93254776398607
H           45.93332782498747       53.31947285736227       62.57244230478778
H           49.33537847899571       51.71281808853408       62.49276086087653
H           48.15116985241261       52.42578823829658       63.58324371822249
H           48.47978203772961       54.62546819406146       62.53536491448730
H           49.86335281174918       53.78074914890006       64.43142087568242
H           51.10274944337633       53.27192026726645       63.28486585373525
H           50.71005426222035       54.98519384020176       63.47039678144777
H           48.97171908208821       54.06381741417268       60.24503149904268
H           50.30798763200919       53.02176387545011       60.71939188561438
H           51.60056397030696       54.99142903980457       61.44405384332700
H           52.05406749900005       55.80709982101533       59.10635483922590
H           52.04697975838984       54.05574608872215       59.28898923427397
H           50.67167088334574       54.85977544455318       58.55277069248977
H           51.06919959033217       57.19574156715403       60.93505392521185
H           49.76222180006004       56.55616314488869       61.90980034943048
H           49.19350738582637       56.29468054882210       59.03411181157000
H           47.54384898668256       56.10528065119308       60.91666204645610
H           47.73038011945949       57.83362484767860       61.21206817485953
H           47.06027562140764       57.26368231113826       59.68281428246598
H           50.66566568672366       58.29616526044520       58.97387924901219
H           49.65172693737055       59.06716729851515       60.19242609727470
H           47.76162212311155       59.11779925324925       58.60645386957367
H           48.67867110149664       60.92641042320844       57.24403844181800
H           49.44900893490583       60.96263820653209       58.82212766578123
H           50.31788984685983       60.29812868286381       57.44191501303626
H           48.26381657714154       57.15097043385663       57.25359999918965
H           49.80397515551083       57.84297247296128       56.74758353924253
H           48.59584219852200       59.58067949195091       55.46524525058443
H           47.97165749695471       58.06900232028010       53.64589646751611
H           49.35228322523182       57.40198465235333       54.50252437145663
H           47.74450346647495       56.73763808030488       54.78256419935315
H           46.50527440068051       59.59693096767010       56.84050686727723
H           46.13221212493924       57.97535229439501       56.26632738636438
H           45.98338808195785       58.89396454839132       53.93376185953085
H           43.74094612345148       59.87191605073758       54.30887750460594
H           44.00557759394229       58.49815222255042       55.37672766490428
H           44.13421791862815       60.13446467268392       56.01088183598954
H           47.38814891513935       60.92575721604224       54.36684067646106
H           46.10239374942156       61.56822690907511       55.38433367000878
H           44.61384726902704       61.74383140279191       53.43960332879723
H           45.78239117909089       63.62765583894572       52.40805198606675
H           46.21288816308743       63.55917699240493       54.11139107300998
H           47.34766162186946       62.97619993331909       52.89527361053425
H           45.35496068393697       59.86964238373272       52.10036943795890
H           46.98715048639479       60.52488096722061       51.98388895932946
H           46.16093282464948       62.35463342913486       50.55753219485469
H           45.85941218026218       60.95619349898972       48.57720332522191
H           46.99081652415608       60.16302078733654       49.66296582594557
H           45.31996368335378       59.59901935524441       49.56831413293816
H           43.84496162971304       62.48667409057639       51.42649700891040
H           43.51028164956582       60.87317766425631       50.80952759622930
H           43.75659467679780       61.71606667762487       48.48490245622642
H           41.78177157494986       63.25303095941322       50.22221293534208
H           41.60545893284896       62.93095600109923       48.49699674417675
H           41.57386313408817       61.60011256430099       49.64504918698093
H           45.31097378330293       63.64064893939646       49.10780869057246
H           43.91004274123924       64.46109264796451       49.79254684922472
H           42.84452708569670       64.38553258606497       47.50987357669207
H           45.50120873647803       65.83566168912226       47.83439180759272
H           44.26324773808651       66.25822046931381       46.64965173094988
H           43.92114235577605       66.40104141150212       48.37279140422449
H           45.03774442843965       62.65116076994465       46.91347138634570
H           45.33670574007801       64.12720555895179       46.01590670266180
H           42.70323590706427       62.61200540297735       45.93426704018508
H           42.57247322652907       65.03082292155678       45.31646102484299
H           43.82770218035078       64.77390242216150       44.10300602520023
H           42.25958033061875       63.98338833672868       43.93689687072681
H           45.17560377210138       62.46975552119694       44.18926169584352
H           43.59269501371569       62.07947574098986       43.53121871021369
H           44.68379438223388       60.65918979816459       45.98280765282102
H           42.99571751758171       58.97505629064997       45.38399287343928
H           42.22227938723452       60.53706720379638       45.61280240247034
H           42.50592803437985       59.93072240172589       43.98147244682135
H           44.92428119654625       59.97534293242435       43.03345351845630
H           45.08987817066245       58.76465118732028       44.29857689460808
H           46.87995098029121       61.21880047080508       44.09897625530507
H           46.82372737570259       60.38500124489284       46.37726951428912
H           46.93433720637795       58.71340605191932       45.82878528733833
H           48.31119461296228       59.79642895999029       45.64570081951498
H           47.50556313839045       58.34056008875645       43.36697779854264
H           48.62053151976916       59.70404469674514       43.32607057733386
H           46.28057380898105       59.18704425790783       41.45732493712031
H           48.04017158721536       61.66273586333753       41.69112560618490
H           47.00820483260650       61.29803454666945       40.30765981620141
H           46.28240344374314       61.59924231886483       41.88180479903781
H           49.23386497043635       59.63342156039867       40.91900260304741
H           48.00446869125734       59.19118786967189       39.73722474604443
H           49.01396660034400       57.44010637953147       42.01074768617939
H           46.64781218328574       56.93501505080381       41.56712989146588
H           46.96531511349401       56.84172727770240       39.83415692426436
H           47.66154194968534       55.64606029071015       40.92676469823051
H           49.31116151338077       57.12043702320577       39.00333419462277
H           49.91483776964319       56.02849855765467       40.24231639077654
H           50.89403987811556       58.84425104321033       39.65712741327638
H           51.02799884671374       58.41004698767472       42.09931612107309
H           51.86821152490378       56.88968087227614       41.78672485143380
H           52.62963945143741       58.42924872189759       41.38005223011157
H           51.48679753794136       57.05895513549501       38.05619820835729
H           52.12067816230725       56.07507872736225       39.37136429457555
H           53.93522356084870       57.66556258415830       39.75348051647104
H           53.64876432591006       56.87633760871791       36.82150291052484
H           55.16511448155664       57.12735941987980       37.68394220814645
H           54.11906903945691       55.78317038226051       38.12360353799357
H           52.80878706837613       59.74876402706482       39.10183244118787
H           52.65214202881754       59.17684614267660       37.44356304477990
H           55.12444497118526       59.27595310348024       37.18564441717252
H           55.19161224866338       61.72949597649633       37.03522764291235
H           53.60677957062010       61.14004843400437       36.55257515865789
H           53.82426973522681       61.85827116526762       38.14743734230240
H           55.66630265197350       58.95585495142089       39.60500564889823
H           55.08152290436745       60.57672404731235       39.94065500187255
H           57.10908569758040       60.46422785456370       37.77387847064523
H           58.03102130483136       62.38939679348470       38.96168470831687
H           56.28185119639336       62.58129848306817       38.87864227447461
H           57.04014646806034       62.04603544313012       40.37596149351118
H           57.76187709938910       59.52970072238237       40.58124657579394
H           58.98161542319386       60.26030205860646       39.54740615155221
H           57.37866793268362       57.89291263229732       38.55403637521203
H           58.75124716208395       59.23604781865143       36.94283110225197
H           60.18406741642256       58.88940778124460       37.90885387960890
H           59.32354481544724       57.57848868778771       37.10018576961429
H           59.85494381752694       57.89089879272316       40.31355174218796
H           59.45447052163439       56.54038371157729       39.25672753265501
H           57.61697270687108       57.56851518017131       41.45244851949965
H           56.37956515639367       56.33242468407869       39.71376042515714
H           57.56598486060692       55.03162009020592       39.75623345062469
H           56.52637662169066       55.32992489679623       41.14866911846175
H           35.07006733489953       43.99159658998742       58.07478598868487
H           34.53695738025193       43.42193465130028       59.65045242987350
C           39.20144743246813       51.76134604652314       57.25815601050491
C           38.47855807907184       50.41849543256081       57.31961987854525
C           39.12381107834438       49.53307469881894       58.38535559413891
C           38.50754564743411       49.68950351223117       55.97094814343859
C           37.87133212036813       50.43678490324171       54.79382801360362
C           36.40961106234358       50.78721645659614       55.07448141441534
C           37.93487043433688       49.59586271303591       53.51045557129144
C           39.33251064433854       49.19256193552069       53.02014558644844
C           40.22380007889259       50.41268411822745       52.80972557403696
C           39.18220559343001       48.38713027496782       51.72130928273245
C           40.41668923589302       47.57580593276850       51.30795520494921
C           40.19732096923121       47.01003040971868       49.90477117624750
C           40.72896534781527       46.44352951191777       52.30383503449641
C           42.02230227810428       46.64731629509155       53.10389676583184
C           43.24336268046503       46.39932474821781       52.22133281502308
C           42.03944793742019       45.71617661929699       54.32489790380561
C           41.24824802005145       46.27629783023453       55.51571318319227
C           42.15581241637726       47.14301514677022       56.38735832530589
C           40.62206540382273       45.16812947648868       56.37063713203536
C           39.40125774295379       44.47454284693131       55.75647496443489
C           38.22027672423733       45.44026714351957       55.63759512311977
C           38.95425496480197       43.28683141791041       56.62139017969866
C           39.89004748357261       42.07309344668550       56.71325102538106
C           40.15024936346046       41.46750686955496       55.33751989851618
C           39.23437920939300       41.04480469702958       57.64814436397168
C           40.13178122157381       39.89963044440132       58.14212316522873
C           39.24424985505359       38.78269255917200       58.69220531489796
C           41.10647630283044       40.40782434491660       59.20924350445927
C           42.18349145108552       39.41411293746400       59.66571704910304
C           42.97140980656746       40.04093947551984       60.81770819146242
C           43.13347683858310       39.00952932234416       58.52241893347474
C           42.91710256866265       37.59215963041951       57.97855903400146
C           43.38955735643202       36.55167300966313       58.99479195450226
C           43.67697749581097       37.38170705906485       56.65988327191724
C           43.09510784448149       38.08734458698839       55.42499295315984
C           41.79534910324826       37.42398005242938       54.97571047778980
C           44.15337907407192       38.06213698259909       54.31220479732457
C           43.76954234483758       38.68626908563379       52.96202220484675
C           44.92709249669695       38.47425174544595       51.98536923240042
C           43.44406177831738       40.17630601373172       53.10922149145441
C           42.82809505501233       40.85936052677561       51.87886738315961
C           42.84029802752492       42.37061431830033       52.10499305997198
C           41.40129981139592       40.35339091403826       51.63722311320831
C           40.75966060942429       40.73481472035284       50.29492319453819
C           39.26959571034777       40.39631742536626       50.36189596117874
C           41.43310527028054       39.99314483781942       49.13278265994033
C           41.01788979198069       40.46289242820084       47.72625662955388
C           40.78139080114503       39.25392836004849       46.81831240855315
C           42.06522769998828       41.37449148256164       47.07223200961203
C           42.30136856823754       42.72604278404916       47.75523861582154
C           41.06642652516794       43.61927599939325       47.64700738039228
C           43.50560472088564       43.43863234815000       47.11943725616758
C           44.87119762522743       42.93183566833886       47.60011473475727
C           45.18852491250963       43.49672490189305       48.98465303479353
C           45.99144089566838       43.33400758453894       46.63031766041593
C           45.99106821659665       42.63129473180327       45.26857079259189
C           46.17976023633341       41.12098589787308       45.42110303263755
C           47.11206214228443       43.17571148637666       44.37063274482461
C           47.04892264369689       44.66472223167398       43.99816191843848
C           45.70698207712653       45.03072973492254       43.36867417129881
C           48.20821180601423       44.96337541130921       43.03539400711544
C           48.51205209215368       46.44535308953854       42.76720231722290
C           49.50007922566954       46.54213830014604       41.60513078047006
C           49.06872834441069       47.11294923025422       44.02939410301205
C           49.49266689240094       48.58473644736066       43.91418194272201
C           50.09668205836238       49.00604084657495       45.25345438850682
C           48.30747109836278       49.47914884273691       43.53380589295479
C           48.63881662775190       50.95425501490187       43.25817763963159
C           47.34081381015726       51.76204542240758       43.26821297256841
C           49.36227708282868       51.11671419987857       41.91512026694441
C           50.03512737490419       52.48230036738125       41.70588625727897
C           50.21659551654837       52.74620099587045       40.21126683681459
C           51.38269711054149       52.54987605126367       42.43434830605484
C           51.96615455408996       53.97314951273655       42.53206526025956
C           53.29679148708100       54.06156495268593       41.78424913387845
C           52.15966798217775       54.42467590214699       43.98655314426811
C           50.85830024880214       54.62525923657613       44.77109847581629
C           50.08926964372822       55.83860175808794       44.24869946517963
C           51.11680105167491       54.83802211293737       46.26973904866398
C           51.81568281199659       53.70386394063507       47.02945495741344
C           51.23021863504053       52.34114043101533       46.66352725043281
C           51.67011439538488       53.88602234999783       48.54871259296253
C           52.04223332127051       55.25399950722404       49.12760234377173
C           53.53609627497049       55.53358538431959       48.98506913627981
C           51.65335197730533       55.32113607689930       50.61080041226729
C           50.15307065474594       55.48288097956168       50.87868524090891
C           49.70591291146734       56.92087819436698       50.62483720917508
C           49.79284967757564       55.08723556629829       52.31500336559395
C           49.92847560076030       53.59514056756420       52.61355224425070
C           49.19487565406492       53.21439072704435       53.89307017539950
H           40.23234647590774       51.62015971881044       56.93923938092351
H           38.71454183722058       52.44201190111315       56.56516262279679
H           39.20581851632740       52.23037576952821       58.23955234451675
H           49.29400537841252       52.14953124913068       54.09386198674094
H           49.59287614088240       53.76251159639362       54.74480331589533
H           48.13588285243930       53.44505992646788       53.80376228637322
H           50.41274297822685       55.65786921073420       53.01050013589629
H           48.75578363170360       55.37895865273427       52.49732458572596
H           52.01147463447978       54.40866119839769       51.09079526708997
H           52.17471575961213       56.16377957424083       51.07128242135474
H           51.48982554813697       56.02849765844690       48.59278558778817
H           53.85153516661013       55.45679812023417       47.94812394892429
H           53.76871258686287       56.53607976492240       49.33739578656949
H           54.11349003257827       54.82501660613053       49.57519250334876
H           50.62857601179041       53.67771384360275       48.79959504007488
H           52.28035939487893       53.12634212808744       49.04578536322328
H           51.70973549627580       55.74814389843083       46.37690196850068
H           50.15003065051738       55.01675200430007       46.74867296109765
H           49.59286286602813       54.83130159069947       50.20068684886116
H           49.94076501125099       57.22820120178999       49.61027257073077
H           48.63224481621923       57.01749158983090       50.76748306632218