3795
 energy: -5102.988801134597 gnorm: 0.000928624226 xtb: 6.6.1 (8d0f1dd)
C          105.41711803971707      120.27527587035993      117.99467116226596
C          104.31853485113749      120.92037736256367      118.79745530912425
C          105.91928754034278      121.20194955028060      116.89064146185024
C          104.78416065444900      121.49969958403314      115.91213009384856
H          106.28458408119842      122.13010316552030      117.33542903758142
H          106.74505347100283      120.71389037014629      116.37035965575677
C          105.28757098707825      122.26883170166855      114.69920330810616
H          104.33009551176677      120.55931274879434      115.59283691460462
H          104.03317024323735      122.07988102047554      116.44664811721260
C          104.24403203119263      122.77577457090227      113.72307886853763
H          105.84971951766224      123.14186465972305      115.04004558032726
H          105.97613523447106      121.64839382012786      114.11977578207235
N          103.00282479391478      122.94993149766140      114.18829449927034
O          103.37640466568010      120.07999703617566      119.15903824489013
O          104.29887194783734      122.09771206163205      119.09987645199010
H          102.66771435060491      120.52743465358488      119.69379135045226
H          105.03791821843618      119.34447746822117      117.56998224613282
H          106.23532590220769      120.04489772667124      118.67979460118858
C          101.94582210477408      123.52184738331775      113.38772650887705
H          102.82375902786193      122.90273999696736      115.18128844336881
C          100.65855818093235      122.70200683690426      113.42486276316963
H          101.73490649734261      124.53677835845797      113.74667341654651
H          102.32257618071405      123.57252548842494      112.36514384241825
C          100.81846699624565      121.31999336293651      112.79508609535729
H          100.31344759683107      122.60040003113383      114.45446996153504
H           99.89855260329499      123.25952303551017      112.87444617785218
C           99.46554533715896      120.64595418363666      112.57877468596057
H          101.33156809847748      121.42033245564544      111.83595216488939
H          101.44332801757163      120.69536827762535      113.43577206969377
C           99.60304589922772      119.25346332187154      111.97078844279253
H           98.93668547369698      120.57960495735504      113.53080101621254
H           98.85485645632026      121.26258059342034      111.91529419984293
C           98.24953394859695      118.61913219572095      111.64913879657286
H          100.17518230042508      119.31289150080303      111.04300934170530
H          100.14339668831973      118.59359153510400      112.65144731263231
N           97.42962509759003      118.43309409392631      112.82319024473107
H           97.68026047316933      119.26884577465803      110.97944700771970
H           98.40965170939990      117.64670356825231      111.17694660813633
C           96.39049920155823      119.24369778729952      113.11665615778493
H           97.69307046586624      117.69432331999806      113.45438918913841
O          104.55997320730059      123.01999538764574      112.56086423049823
C           95.65649388123978      118.89760070807408      114.39951011629914
C           96.12651987704848      119.79949628598081      115.54707217454612
H           94.59474208080132      119.07697081828857      114.22295445496482
H           95.79407439785757      117.84604604160255      114.65699225130687
C           95.22354457478995      119.65296024615783      116.77047386471475
H           97.15439543398581      119.54832932771824      115.81446590959673
H           96.11318569395384      120.83678043275481      115.20755745271762
C           95.44873758197342      120.75465192369857      117.81240118452128
H           94.18112691754799      119.70340653034410      116.44745635030326
H           95.37936361461374      118.67663324809966      117.23487494895058
C           96.76908667810557      120.59870833012168      118.54426766915174
H           95.40850171286618      121.72776725086445      117.32296149651032
H           94.65529345819743      120.69590284783055      118.56018360329817
N           97.76479843381530      121.35215748894923      118.07457506249690
C           99.08173436470216      121.37054180948849      118.66841617425706
H           97.61397180210483      121.94117050069293      117.25555929610738
O           96.07108032273226      120.17818171291773      112.40707879905666
C          100.19222480510467      121.46022131638561      117.62692323155377
H           99.16726223826667      122.23078557821125      119.34607249953844
H           99.18932505289835      120.46805387607799      119.27230752552450
C          100.13175092401747      120.38347571736475      116.54554888596931
H          100.14500346749642      122.43612174913486      117.14291168751188
H          101.13949824880468      121.39776454477321      118.16039390362633
C          100.04134891726241      118.96981389042961      117.11228124524862
H           99.26677810476930      120.57072826574768      115.90526877254476
H          101.02771362850686      120.47380513720690      115.92815150287903
C          100.16558154714669      117.89537446591191      116.02990745497767
H          100.82729264998673      118.82520951917557      117.85554929753138
H           99.07952268521251      118.85691072512878      117.61374321205781
C          101.61065450620160      117.56111470432796      115.67126810641444
N          102.26821393603383      116.84320482583921      116.74294018519237
H          101.62769276873533      116.95524864135585      114.75501238495555
H          102.18862770679230      118.46989051210659      115.48371356853015
C          103.56723684254123      116.97947321693970      117.01527145548175
H          101.71387137799866      116.18686525470902      117.28846671979900
O           96.88946698124602      119.84290473294041      119.50561235273301
C          104.07519758497200      116.13195344941602      118.16767288099798
C          103.97038769452573      116.83528563107232      119.52907933067934
H          103.50594141027774      115.20334859788247      118.19797219094373
H          105.12620784783952      115.90510086574353      117.97518990976569
C          102.52812693529852      117.06683372790897      119.97054068009270
H          104.48402125938870      116.22287800633774      120.27356305383616
H          104.48530888155639      117.79569080452220      119.47970371688997
C          102.43752523394535      117.69240375389761      121.36642485229767
H          102.05515665293841      117.75642393723017      119.27158848683199
H          101.96750270835415      116.13249748216650      119.94822673841682
C          102.91959013232770      116.77472370472792      122.46918033486394
H          103.04150081412554      118.60035022282752      121.38797954742986
H          101.39694354032086      117.94674693450895      121.56158224022015
N          102.02261296983367      115.87985942252176      122.89155795983847
C          102.31633786260473      114.95768688800999      123.97079945230728
H          101.06273143785911      115.91814439742856      122.55799163477249
H           99.68619054395720      116.97710311291273      116.37196035870790
H           99.64978233106160      118.22765489788807      115.12660587415188
O          104.30550956851030      117.72279406296302      116.36987939281889
O          104.04761870633294      116.85183353953266      122.95322616786299
C          101.12440776369939      114.04521639871044      124.22235594620919
H          103.20949883909012      114.38290022447806      123.70477138664644
H          102.55307906611077      115.52369789400468      124.88178197561126
C          101.33868458801092      113.07755307458359      125.38755465323197
H          100.25632749603217      114.67319032290561      124.43045726286432
H          100.90438688510379      113.48032807892230      123.31453113204554
C          102.26470611475891      111.90785972903181      125.04827420556127
H          101.73002262904932      113.62556063393974      126.24649242661685
H          100.36583242195690      112.67022341100342      125.67201369065002
C          102.26346358608930      110.83642511199892      126.14146764136208
H          101.92036085071719      111.45506415678520      124.11627040979704
H          103.28535772059011      112.26122176527423      124.89716227823043
C          103.19003207163806      111.16024020582398      127.31750957500408
H          101.24562195303332      110.71003506848689      126.51364199942851
H          102.57432623150916      109.87970718722774      125.71511447554599
N          104.52840710379968      110.65445279078976      127.10797136996206
H          103.28121635762155      112.23780962580420      127.46277601301006
H          102.78881522480388      110.71854969521911      128.23774632403160
C          105.65128124688962      111.39147387674304      127.22634116000620
H          104.61631381670161      109.66269890745697      126.94928844769562
C          106.92701630588360      110.57636574321964      127.10820136650347
C          107.17847038390369      110.01572688268030      125.70282949652756
H          107.76508013240951      111.20913398639894      127.40249397319573
H          106.85921634279435      109.74633782829358      127.81712114798525
C          108.20733657052396      108.88536445678828      125.75562374406165
H          106.24896017673420      109.63835967115544      125.26972495535347
H          107.54804087020661      110.80933090837027      125.05308666702661
C          108.74049530969309      108.51071162329833      124.36967863429557
H          109.05418788867237      109.20289040219640      126.36606972181745
H          107.75669041317558      108.00663991894820      126.22282504531685
C          107.62501029887545      108.15540050283691      123.40666188441014
H          109.30721477494860      109.34757469765482      123.96669372161247
H          109.39717284577729      107.64451120067190      124.46594175194886
N          107.35761616011008      109.10650910899919      122.51003281705727
C          106.38264051430116      108.96986842864649      121.45257808852368
H          107.91592565938832      109.95570139583143      122.51685321633988
O          105.63568060542968      112.58944848304326      127.44067484491568
C          105.76825169439587      110.30940228115375      121.07000296131901
H          106.86515382691057      108.55067737162450      120.56296637508757
H          105.61635197161651      108.26577225727594      121.79013062731305
C          104.81049310511800      110.85729062011464      122.12344507385104
H          106.56890126665843      111.02872613426923      120.89162885779838
H          105.24154073347222      110.16793857717509      120.12817648822721
C          104.04397396124475      112.08427390837343      121.62876717873063
H          104.09385677546892      110.07902599153775      122.39719799234794
H          105.37361665637529      111.11795866386954      123.02200510717564
C          103.14941396120383      111.75925731398027      120.43362232185942
H          103.42076741635782      112.46130319044221      122.44027422885995
H          104.74824771757133      112.87297082375231      121.35724116868715
C          102.13946629901676      112.86125714644466      120.14443614394850
H          103.75886042416421      111.61103823670103      119.54276774790638
H          102.60899158264080      110.82975880306144      120.62855844682963
N          101.42083240771849      112.57119052647411      118.92108105314178
H          101.42648303617921      112.95422240931902      120.97331812876638
H          102.64012240827556      113.82731468243104      120.03098058652016
O          107.02625268878906      107.08229911511128      123.44654720251822
C          100.96226896732568      113.51643420534513      118.09504479695123
H          101.42770108994974      111.61654362991727      118.58311345326132
C          100.26081516886175      112.97544955832129      116.86570102037668
C           99.82089849447082      114.11567690607978      115.95815119269854
H          100.92584198682243      112.28043474700056      116.35039182933028
H           99.39245787460018      112.40179192972637      117.19890552732562
C           99.01045926807899      113.63900493085060      114.76307707844983
H           99.21957032363001      114.80589650665429      116.55266667219360
H          100.70066608370024      114.65870591987849      115.60851902793254
C           98.47283623916029      114.83058487280759      113.96074436043500
H           99.63005386061307      113.00868925907486      114.12117986698422
H           98.17089885080797      113.03570833876864      115.10845109362705
C           97.79067458624593      114.29457992954723      112.71933139805390
H           97.74746962403623      115.37121898773400      114.57161472878452
H           99.28580614969914      115.50258742398034      113.68552108807519
N           98.54175133545188      114.36548499498085      111.61414381207676
O          101.07919020728265      114.71604892940861      118.32089580793067
C           98.11696977238786      113.81226361473162      110.35069691277097
H           99.40147343426548      114.90461063390346      111.64684917619830
C           97.71799125203347      114.89063411515123      109.34180912994579
H           98.92661621807331      113.19906568713576      109.94231934808859
H           97.25750513745871      113.17287258603099      110.56636113221272
C           98.92145947046731      115.65858011052626      108.79960248620654
H           97.19133049009052      114.41473363032809      108.51271494004871
H           97.02346226268391      115.58079333545921      109.82544889270821
C           98.48611697754298      116.78145814382925      107.86122389930695
H           99.49244775310396      116.08106715141798      109.62793565253409
H           99.57638876011467      114.96885909339781      108.26216589732822
C           99.67287002158174      117.45383592461513      107.17365294715309
H           97.82001327035269      116.37336454448395      107.09753836706338
H           97.91697916039227      117.51642642777794      108.43538370142826
C           99.24546590278439      118.64280070990073      106.31385946284362
H          100.38936253890539      117.80106673430527      107.92113993097703
H          100.18049527362210      116.72513615042882      106.54018842986162
N           98.93121711823912      119.79675030508444      107.12719369027128
H          100.05591382873780      118.95135418712982      105.65004556452959
H           98.37809288729628      118.37068516144015      105.70270913104841
C           99.51339779617588      120.99449594252847      106.94724246657530
H           98.26730108231249      119.66792411410802      107.87350072696762
O           96.68196777019253      113.77712073230136      112.75338660331359
C           99.12776331249528      122.05855172844156      107.95309416041904
C          100.25008516389200      122.26805831865406      108.98384070044504
H           98.94359012261796      122.98298164829974      107.40439072158654
H           98.20983812353127      121.77992558563589      108.47301733116454
C          101.59844010608732      122.64574950666498      108.36646750722521
H           99.93733122252898      123.04674993869196      109.68399821776241
H          100.37435772358270      121.34400645681444      109.55313418193423
C          101.55653523261989      123.98596917531565      107.62571617321419
H          102.34815649801990      122.69529336840176      109.15874312580323
H          101.90531666577749      121.85630114896396      107.68125979195742
C          102.60712254069631      124.09231385500679      106.53639520041743
H          100.59792039569010      124.10896432616167      107.12212515362967
H          101.68686552596181      124.81200389289856      108.32346171278586
N          102.44360034236129      123.21008218742575      105.55372622489800
C          103.26199438059390      123.16080001902174      104.36324708518096
H          101.64666181458216      122.58273061506178      105.59122218287069
O          100.31530255962072      121.19666889921282      106.04938522708976
C          103.31802197293734      121.76101460011247      103.76533770811940
H          102.86023054413454      123.85363476271542      103.61299319890281
H          104.26639841664750      123.49266506599525      104.63267759549240
C          101.96768723004084      121.32422307408739      103.20068336985467
H          104.05967607790301      121.77879231429361      102.96484242918386
H          103.66062164769700      121.05636242010810      104.52324192831476
C          102.04760318774525      120.04331039115925      102.37314230463753
H          101.25863298208387      121.17254446539755      104.01346757805287
H          101.57721432994107      122.12107439442062      102.56283698041001
C          102.55535598696009      118.83561219855518      103.16310264774260
H          101.04701882824611      119.81991565897128      101.99535064180408
H          102.69475409058086      120.20353862231444      101.50730319715015
C          102.19859261054677      117.54725437540287      102.43404292092779
H          103.63742307675855      118.89433556772924      103.28359742359631
H          102.10516004721339      118.83030537527533      104.15794659757267
N          102.92145970844514      116.40277442901369      102.94950282045572
H          101.12015273733941      117.35726644918653      102.51159736825859
H          102.43024686742696      117.63594158904151      101.36639205252112
C          103.01175680451482      115.26923958665007      102.23893477125060
H          103.44957973144558      116.49730590530595      103.80657936184248
O          103.49546406982520      124.94418791540197      106.55943798307884
C          103.77970805947086      114.16797247943227      102.93602722772833
C          104.36186592710875      113.15092039815032      101.95820847629625
H          104.55568654674595      114.63417693302173      103.54108250943248
H          103.07783234076678      113.66270235806365      103.60539548975126
C          104.94634697758515      111.93157601986576      102.66805997654190
H          103.57066464506865      112.82874184835160      101.27828314122685
H          105.14287761583350      113.62674373988116      101.36033497092447
C          106.03560894215165      112.34419872958149      103.66319220240827
H          104.15047367996918      111.39651865534339      103.19154959295096
H          105.36911700160209      111.25682172672988      101.92252873166987
C          106.66211401735841      111.15266697821660      104.35297477474744
H          106.81346576304144      112.88637612940190      103.12382964846411
H          105.60421936786574      112.98677296095074      104.42710543155775
N          107.39376778088622      110.39700084122319      103.52804301431638
O          102.49474299113685      115.14021660027767      101.13640333516290
C          108.01175781113054      109.15506463341724      103.90958993677192
H          107.51553899506065      110.71897197983468      102.57198564459281
C          109.52575156546106      109.25870552019443      104.10460650619999
H          107.54999054691849      108.84767632109690      104.85306694803326
H          107.80388898853417      108.40938845596062      103.13853599612257
C          110.06421304748147      107.92419915327459      104.61601627253469
H          110.00149837567518      109.52402313974342      103.15922145078129
H          109.73841760980106      110.05689201260920      104.81669750053965
C          111.46464478538836      108.01829504079842      105.21456197925473
H          109.38906756865067      107.55264709046619      105.39167898183469
H          110.05924910973070      107.19148687992909      103.80654201277274
C          111.88937491354831      106.68227164524303      105.82549667381821
H          112.17714720346460      108.32925547486832      104.44948081543333
H          111.46195877864916      108.78456221066757      105.99476908503793
C          112.91645095522036      106.85257157514130      106.93913214623824
H          111.01703110337027      106.18841567635039      106.25776230050396
H          112.28859419608472      106.02261650340242      105.05392742748030
N          113.19281812804377      105.57621988987424      107.55707994359121
H          113.86100802613562      107.25199506428720      106.55794306193091
H          112.52141443894753      107.54930408313041      107.68975476533132
C          114.40757284634542      105.20085390893337      107.95218811711365
H          112.39239630960063      104.95159670207369      107.67383621510012
O          106.49011433821541      110.91064595274392      105.54455383959829
C          114.49739332214757      103.78844123005281      108.49933379479543
C          115.08098385604688      103.79079298780015      109.91368492329784
H          113.50961625398907      103.32809095469375      108.49375205148488
H          115.14964820385234      103.21671454426178      107.83405761921426
C          114.13548557879621      104.47418146749681      110.89614677952005
H          115.28065016919156      102.76912028382274      110.23940392895364
H          116.03067705508093      104.32804574304541      109.90277016061673
C          114.72453029298821      104.54050014576714      112.30796516753912
H          113.92652157092081      105.48722269444082      110.54879817878908
H          113.18754588794198      103.93103151830296      110.92800702287562
C          116.10862588374731      105.15669005614549      112.29507270566826
H          114.07540982474781      105.15810895517728      112.93075247544537
H          114.79913143422267      103.53782904473705      112.72584476441293
N          116.12197342682421      106.45035869833160      111.95465533335580
C          117.33349183513850      107.19511223992204      111.70862437669452
H          115.22978256274058      106.90843663670607      111.78704200784031
O          115.38611229056932      105.94486067347782      107.87878930168682
C          117.49641044683904      107.52687650897334      110.22105763169779
H          117.32688611385636      108.10654505247909      112.31404332086660
H          118.16317093530373      106.56542230643815      112.02978121563670
C          118.93686937101596      107.85460034932576      109.83732340290649
H          117.15910810106337      106.66853570920161      109.63855798385795
H          116.85543103823663      108.36630648869102      109.95690747209309
C          119.44972726278672      109.15103339513293      110.46256349827134
H          119.59301831010255      107.03660633993765      110.14274601685121
H          118.99416095601899      107.93270930771303      108.75070305123546
C          120.82684776865000      109.52644894270681      109.90985429188754
H          118.74463853200136      109.96259122819471      110.26801206797393
H          119.52172472096592      109.02056047245351      111.54266098913622
C          120.76178976941316      110.27938077785576      108.58641481464480
H          121.35734153522802      110.15426868404352      110.63001073019736
H          121.41157435288918      108.61581187307085      109.77993959527585
N          120.34956093426878      111.65204084313410      108.80490828117239
H          121.74596202643896      110.27738655380492      108.10280179504687
H          120.05080665059920      109.81627915289403      107.89779005534902
C          119.96783544419500      112.49007007651846      107.82929738000784
H          120.50507077104726      112.02753600094634      109.72742137166408
O          117.11695400088475      104.51883380319848      112.58223246308825
C          119.79961803201348      113.92367338829365      108.29823111057038
C          121.16649138030856      114.58205823077500      108.52490520852612
H          119.25674511009800      114.48296135779594      107.53794158689300
H          119.22297068256478      113.93718572655479      109.22450567739872
C          121.86046812393268      114.89101263331646      107.20141358660030
H          121.03251174298309      115.50337848598183      109.09547942882067
H          121.80132732981049      113.91754671583219      109.11167099023960
C          123.28795789024832      115.41363577699808      107.39845779074618
H          121.90186728717772      113.97925814614840      106.60194725412174
H          121.27428006912088      115.63422968871510      106.65604931897033
C          123.85965630830447      115.76865415241754      106.04421254075943
H          123.28829843850629      116.29776844201898      108.03584839595096
H          123.90103428174098      114.64201329081978      107.86384796171897
N          124.32130372225448      114.72655688007744      105.35096284263386
O          119.78358893702146      112.12573537105301      106.67683969288055
C          124.78755933957572      114.87202195482769      103.98472609673713
H          124.26465730924269      113.79219414442368      105.75129530695914
C          125.43051280310229      113.60080095907574      103.45178758524574
H          123.94487363940148      115.14755675684326      103.33859625285221
H          125.50399561121942      115.69916998008689      103.95680037839541
C          124.41981074410116      112.46407946019637      103.28787780019483
H          125.86791225231134      113.84078152220783      102.48095145706435
H          126.23914286075339      113.29529275906485      104.11792395547934
C          124.96076794259730      111.30477070862480      102.45060385534997
H          124.11391522408198      112.09037821587314      104.26610835854267
H          123.52690488590935      112.86032869497814      102.79799419253135
C          126.07510228829673      110.53043383225031      103.14719125126065
H          124.14202290858600      110.61542910835925      102.23670699772258
H          125.32799169609915      111.68543639894153      101.49499379927460
C          126.48522028250552      109.27667058304120      102.36130851254360
H          126.95200170660254      111.17099944954502      103.26668021689854
H          125.73687069014751      110.23056999362267      104.14332643278671
N          127.49636878152918      108.45906808075911      103.00264787763456
H          125.60754875143192      108.64521009569829      102.19928630817398
H          126.87207621328426      109.57175610064824      101.38204896189964
H          128.34271921337751      108.99523272019788      103.16025129735011
H          127.16768793108292      108.12411248128434      103.90190797745747
O          123.86108027652570      116.91635201174327      105.59737778719874
C          129.29741094209419      106.80653093256358      108.36003705881430
C          127.92118777569074      106.17871962178246      108.45691725589944
C          129.93418792823900      106.90866039200903      109.74640891981323
C          129.22545737171004      107.97028809824917      110.58365604832157
H          129.84965594838872      105.93351490143655      110.23109786939490
H          130.99122407810046      107.15855800381429      109.65034326067133
C          129.59553830900228      107.90229525577755      112.06399585647914
H          129.47127285734601      108.95699379393280      110.18760678096471
H          128.14579595762808      107.82820859403569      110.49260060935478
C          128.56695586964284      108.59396679252623      112.94188969367683
H          129.63246134307070      106.85560093075311      112.38271162457175
H          130.57954011639617      108.32897855455174      112.25432153132303
N          129.00809059121349      108.91716700774013      114.16135372461046
O          127.02828605581811      106.76789997627782      107.67079450289687
O          127.65885817323162      105.24098979525751      109.16751554039986
H          126.13591296150885      106.33747472229545      107.78877122622583
H          129.21980527304117      107.78771438070540      107.89239932974854
H          129.90219960690030      106.16171333706694      107.71824387960004
C          128.19764979989944      109.59752718965281      115.14775409217087
H          129.99611307627191      108.82184338041290      114.36819550716262
C          128.91806804347615      110.81972317474984      115.71039570601529
H          127.26179600406202      109.88110990214071      114.65821582648586
H          127.96261362972582      108.90277416318678      115.96415553374689
C          129.19524199846703      111.86284798007836      114.63412211088026
H          128.30618345264895      111.25357134579008      116.50162628882288
H          129.86674453176329      110.50460914632531      116.14583531408270
C          130.11185173821326      112.98734638245297      115.11031471175137
H          129.67091539349457      111.36664720960006      113.78603671262704
H          128.24721132069922      112.28220076904422      114.28946689017478
C          129.43587581284237      113.96830955687574      116.06878061454098
H          130.98911708776677      112.55428062481680      115.59423294772792
H          130.45249857031217      113.54133148957771      114.23331124672599
C          130.33861862624957      115.17203873194570      116.30686290193826
H          128.49541481631564      114.31878311280292      115.63961959122518
H          129.20588065906500      113.48252462418725      117.01780433628718
N          129.60639165811489      116.30115500240242      116.84597294153862
H          131.15333502376851      114.92300523535297      116.99333711725485
H          130.79032807401853      115.47448371309794      115.35416561843819