3864
 energy: -5104.201703854178 gnorm: 0.000821689234 xtb: 6.6.1 (8d0f1dd)
C           57.04905557621473       66.82507238920275       41.61076437702476
C           56.91510887858036       67.67260910721701       42.70374886311584
C           57.98060857540428       68.50753397352322       43.02266928344929
C           59.13814024186458       68.51082854690689       42.26543515780580
C           59.25642748814401       67.66636795755646       41.17557328617094
C           58.21058386610523       66.81794412041317       40.85831445369452
C           55.63887585207480       67.77566421951964       43.50369440771016
C           54.75020787178745       68.84587111291411       42.85751166159819
C           54.85908850964955       66.46432580129927       43.61860246428849
C           55.67816366535357       65.32588693875574       44.24239418333532
C           56.02242812991111       65.66005350821058       45.67050653683077
C           55.03214569041273       65.83652531978656       46.62977542925211
C           55.35412233379155       66.21947786046398       47.91840199991076
C           56.67523574330645       66.42823407417414       48.27305191244712
C           57.67258042656688       66.23680211351058       47.33327318908637
C           57.34532917438950       65.85602856650416       46.04428816891855
C           54.90644938185707       64.00793019290221       44.11219391537825
C           55.73198220842779       62.77808527526359       44.51088333417747
C           57.03498243998271       62.73063514443083       43.75182216612714
C           57.05308000497015       62.64883549380832       42.36373474894744
C           58.24874461928645       62.57195834109739       41.67211256961041
C           59.45041107486720       62.57877152476480       42.35885774654784
C           59.44633151299669       62.67410644594874       43.73896780082533
C           58.24883448445602       62.74594814187722       44.42865976195056
C           54.93405873577443       61.49026488595307       44.24099117060017
C           53.82763228320970       61.21009217065715       45.27359475098618
C           52.71575235143546       60.42468401648765       44.62294993400746
C           52.91799427616077       59.13477006764980       44.14532229967097
C           51.88751562262640       58.43873682092488       43.53876541889262
C           50.63805818277478       59.01830750387150       43.39768008761416
C           50.42741133534651       60.30628552202320       43.85835234785645
C           51.46078780869205       60.99920326375815       44.46451482232647
C           54.38959137108369       60.48031833051906       46.49917029525424
C           53.31059047575132       60.18327857441196       47.54713678258479
C           52.71048909184155       61.44760604986953       48.10934746489381
C           53.48434065715048       62.36824822827374       48.80700154886729
C           52.90758814336815       63.49333582436507       49.36826899642279
C           51.54802840144651       63.72156908358278       49.23960854312856
C           50.77257977085041       62.82311460920990       48.52768774612287
C           51.35015651427265       61.69566618555741       47.97136053750555
C           53.87286640042650       59.33828536658919       48.70216797732008
C           54.09739454517710       57.85317883143104       48.36954305288054
C           54.90285580887535       57.22165154643393       49.47753244465285
C           56.18347898378986       56.74565273136434       49.22814174882270
C           56.93327744844899       56.16034787632921       50.23287614385035
C           56.40946404994252       56.04795348449340       51.50819217275890
C           55.13695569904851       56.52309592575342       51.77258839439332
C           54.39085163788803       57.10631721953231       50.76498006484852
C           52.77119484353146       57.11076615670964       48.16827546036255
C           52.94574019840847       55.59834835931729       47.94716623591295
C           53.86837686640485       55.33597402052831       46.78430683183355
C           53.55263432679013       55.77238138273518       45.50190750853154
C           54.40574476117969       55.53347592353811       44.43877680143602
C           55.59873678072591       54.85913634353955       44.63795672513081
C           55.92931746303567       54.42793391135708       45.91158012738783
C           55.07177540978592       54.66422212959060       46.97192028185370
C           51.55616393466183       54.96392607723313       47.75989566210978
C           51.43059883692343       53.47041677845771       48.13956471356816
C           51.77019899039421       53.35957155243979       49.60759584263080
C           50.79328599855687       53.65768045606187       50.55151995246295
C           51.07020503204502       53.63897179927294       51.90630241035121
C           52.35042530114605       53.34511588768755       52.34269293115802
C           53.33611200669083       53.06507592133233       51.41467651205925
C           53.04892097851167       53.06025059984745       50.06087468332404
C           52.23819849429425       52.49151044744389       47.27278069291027
C           51.53042398358320       51.97138961104928       46.00476804027078
C           52.47229803534576       51.03724787937220       45.28528971548573
C           52.19218628814156       49.68053101550215       45.19210861752841
C           53.04042477573017       48.82211120723191       44.51285895751051
C           54.18501720148612       49.31579149245382       43.91285377207212
C           54.48173871751288       50.66526636541914       44.00574891793528
C           53.63456864982213       51.51753328026916       44.68943663537198
C           51.06937844559652       53.10999114841908       45.08705246407529
C           50.71683085920746       52.67922049929767       43.65840198368455
C           49.59271280766801       51.68058219549782       43.57242281637469
C           48.34279602164681       51.94886576619236       44.11812909106293
C           47.29966153188831       51.05124634177592       43.98017255091587
C           47.47926237663995       49.87682438921643       43.26891068235187
C           48.71520477872181       49.60671783112896       42.70696808706464
C           49.76452573058604       50.49437127473512       42.86947653740928
C           50.36488166178505       53.92457894010438       42.82632356648792
C           50.70686065023895       53.72431904366953       41.34295133812122
C           49.87777773446420       54.64267268024455       40.48573139342163
C           49.80893403393811       56.00547981567240       40.75185032534174
C           48.97115794168247       56.82662360396137       40.02118044567857
C           48.20087282335272       56.30232580821844       38.99685052431834
C           48.29364222022738       54.95453769023521       38.69545178478776
C           49.12302956137012       54.13375676013401       39.43781181967663
C           52.21115885988048       53.94302877499258       41.12409543165104
C           52.73397698046586       53.30493361736269       39.83240768330872
C           52.38941401010175       51.83587853307878       39.77437974466137
C           51.61236673631375       51.33240303381828       38.73820331564110
C           51.29622891878424       49.98710021343021       38.67303215731538
C           51.75114472784196       49.11650247730887       39.64770529051511
C           52.53211900599092       49.60330270362319       40.68248406366556
C           52.85071667714251       50.94841845114529       40.74062687952915
C           54.25917768076968       53.45499479699077       39.71592583259405
C           54.75973492055510       54.89531630042715       39.52501863243447
C           56.22109545785672       54.95620548119385       39.89838547339158
C           57.16693710117812       54.18604052897953       39.23063717393200
C           58.49830881329656       54.21216550312568       39.60652254754876
C           58.90903533400348       55.01194891177480       40.66053697776364
C           57.97800449588367       55.78386282287688       41.33365257989846
C           56.64640493247220       55.75165521350905       40.95535289079088
C           54.50986776910212       55.38233843250436       38.09227252904876
C           54.93264726529605       56.84219619478279       37.89537045602933
C           54.19550308365642       57.76444504614036       38.83460779535378
C           54.89976878639546       58.52185712656286       39.76379634095042
C           54.24480216494144       59.37565301741155       40.63334532433129
C           52.86676574919213       59.48873233721517       40.58204872162425
C           52.15510924999538       58.74058404459456       39.66071983966253
C           52.81192644966229       57.88533127935966       38.79426103513526
C           54.72417640752799       57.29816638352951       36.44008383882483
C           55.74791867106286       56.71755350486772       35.44901377949325
C           55.37003497795567       57.07045063537873       34.03434283293543
C           55.11116207179783       56.06865943578935       33.10802405714306
C           54.79935422310108       56.37466754695321       31.79494302679270
C           54.73647553487569       57.69541987668293       31.38701169731298
C           54.98401643556964       58.70379900759687       32.30326091687549
C           55.29818227892324       58.39386221095764       33.61374742052481
C           57.15750966079663       57.23286378256233       35.76459319870503
C           58.24934527965779       56.74966203673798       34.79912544695647
C           58.16726885859761       55.25282814933913       34.62863885183036
C           58.15389909685582       54.40062568084247       35.72798443600144
C           57.96571451891283       53.03988923851449       35.56684117142061
C           57.81353771135446       52.50360271639695       34.29943408713410
C           57.88179397949911       53.33311956584886       33.19488713339989
C           58.05347047600142       54.69692497975777       33.36119094681698
C           59.64295567597792       57.17039692369347       35.30715763636211
C           60.19222965673779       58.49659846085238       34.73660986616233
C           60.54827922762902       58.26282461678644       33.28531446832802
C           59.70968154936065       58.59065779704183       32.22741798096573
C           60.06550881439100       58.29450371046052       30.92179517380338
C           61.26517324533824       57.66305833448816       30.64773965680700
C           62.11125329972309       57.33066619194514       31.69258409985507
C           61.75288823980654       57.62846761845483       32.99345534698302
C           59.28601907157289       59.71916536058419       34.92656592350085
C           59.01417746625522       60.11191457972230       36.39114861297638
C           57.76529030923753       60.96216300625888       36.45001235054664
C           57.68493029949641       62.16999952829143       35.76530712604799
C           56.52710221951484       62.92719374452926       35.80022026577133
C           55.42428672889251       62.48858632429887       36.51481151339394
C           55.49514274783034       61.29315318584507       37.20734068387357
C           56.65948034898420       60.54505035652521       37.18088207427786
C           60.19233465435324       60.83321593560539       37.07812818761717
C           60.97310635719019       59.94250586179874       38.06004624776745
H           55.89937293653460       68.11181810103149       44.51466078028366
H           53.97383118292156       66.65019333238298       44.23054274376905
H           54.51323217457728       66.15817389991416       42.62977622096878
H           56.61163897773605       65.22960383329468       43.67682506165750
H           54.01079547610517       64.05475487971114       44.73274510392093
H           54.58580493152005       63.90134560246917       43.07308031968968
H           55.96117394316158       62.84518028873942       45.57990206415649
H           54.48184084489911       61.57028696724389       43.24955657202388
H           55.62178419019838       60.64133526076948       44.22036298402276
H           53.41166333149264       62.16408324906580       45.61291143390505
H           55.17779743702320       61.08999523914819       46.94670281861008
H           52.50951076642513       59.62332953135559       47.05551621042908
H           54.82623473280975       59.77175122915180       49.01376676767394
H           53.19059358846456       59.40855210088950       49.55370193059166
H           54.67932460728503       57.77769352912981       47.44492194833697
H           52.14643891936979       57.25530312628793       49.05058306995245
H           52.24347485669109       57.53653940471736       47.31348937207447
H           53.40319749504275       55.18324984939310       48.85050943575992
H           50.85538871922418       55.50588110779216       48.40224560434770
H           51.23107808893611       55.11464397473181       46.73319049839202
H           50.37034562566563       53.21463371203697       48.02944950092043
H           50.64957488523017       51.38983350866248       46.30085555147239
H           50.20134699229045       53.59658660748826       45.53250039696560
H           51.87767905660721       53.83959236271101       45.01322863713007
H           51.60444775778544       52.21142316439760       43.22314211996450
H           49.30048501094982       54.14382600218214       42.93263019593230
H           50.91938899418173       54.78395516256810       43.20760792390853
H           50.45470491589558       52.69235733097191       41.07472200877333
H           52.40434861480072       55.01709564752085       41.09907554429750
H           52.76108322756077       53.52415175422975       41.96889563819803
H           52.25460982822489       53.80260896445491       38.98254050278074
H           54.71741426924666       53.04350028721271       40.61861134297060
H           54.60556719537094       52.85220987588033       38.87237446210393
H           54.21530051344673       55.55761631516829       40.20358674905859
H           55.06465112780576       54.75192683066963       37.39485099038246
H           53.44956332315257       55.28382865042288       37.85580425919968
H           55.99574394013584       56.91434400644910       38.14289836063018
H           53.72172643899363       57.01151220795057       36.11178570315180
H           54.77985350590323       58.38890670426130       36.40302915125127
H           55.74187427899835       55.62685076918662       35.53238329827394
H           57.12596478431879       58.31882539415126       35.75325816683325
H           57.42937423155153       56.91096457488045       36.77022960474592
H           58.08217475323945       57.19805657130114       33.81492890822543
H           59.63256363225145       57.22823363576963       36.39546167082497
H           60.36350275518798       56.39249703070214       35.03977586578459
H           61.13173820738095       58.69278818277785       35.26764681569695
H           59.74806452626135       60.56171841988304       34.40543804780143
H           58.32450736885674       59.53451385192555       34.44513603011971
H           56.24426033136444       66.16212170840743       41.33394264844376
H           58.29516119121782       66.14954019060166       40.01299051276760
H           60.15996299656311       67.67041209659945       40.58343418187862
H           59.95238341517054       69.17271319888397       42.52407854140433
H           57.89830548091868       69.16920191856012       43.87462812176658
H           53.99433285486221       65.69481351399537       46.36874616500744
H           54.56957668919195       66.37574433508394       48.64411732721580
H           56.92488368374684       66.74664037735602       49.27543273265260
H           58.70724177319755       66.39925675941491       47.59870359318448
H           58.12537900677638       65.72161991978838       45.30718850429312
H           56.12557181975752       62.65001514730764       41.81135602291495
H           58.23693570560457       62.50670527749161       40.59217490634605
H           60.39290252283239       62.51278911692714       41.83453433280199
H           60.38837185752994       62.68877676144697       44.26732021724012
H           58.25199008993976       62.81367339447242       45.50811301570943
H           53.88651111854392       58.66729188092044       44.24404400173913
H           52.06447045249811       57.44056816348785       43.16362250744369
H           49.83224097050100       58.47470210029650       42.92598505032642
H           49.45677192760665       60.76876298810615       43.74849210250137
H           51.29147001314504       62.00314918821722       44.82616093073633
H           54.83652219008437       59.53776747263822       46.17824626120280
H           54.54716427410963       62.20745995644761       48.92229786835661
H           53.52484107007859       64.19657012329114       49.91021025819322
H           51.09630296491247       64.59448130889118       49.68783103287856
H           49.71218451303064       63.00023321712847       48.41052720736896
H           50.73726364783798       60.99546732454986       47.42073096241629
H           56.59111694557024       56.82063480330942       48.22935825093938
H           57.92348223979335       55.78423199916492       50.01806703037079
H           56.99003082736004       55.58723622896203       52.29430527364218
H           54.72458997740786       56.43380985182323       52.76822802979687
H           53.40019920636590       57.47414879821807       50.98684774281837
H           52.63359567241251       56.31460408477059       45.33234485641183
H           54.14113410267316       55.87265770252204       43.44675995864500
H           56.26465904579793       54.67370782992043       43.80685893954501
H           56.85811195766665       53.90114493459104       46.08219490272208
H           55.34309448899972       54.32252640108793       47.96168459182469
H           49.79934516626445       53.91707733823865       50.21435797513331
H           50.29235138844389       53.86020901073096       52.62438853568783
H           52.58648660472360       53.32879977666152       53.39704613496747
H           54.34081658974794       52.85517179579458       51.74710177883075
H           53.83524511715121       52.81845198665072       49.36125889873419
H           53.18158659649529       52.95107389190606       46.98061835094471
H           52.47381414090567       51.61140237552038       47.88016144275247
H           51.29565768617177       49.28846436288737       45.65275660091660
H           52.80323604890120       47.76871502735285       44.44479943627803
H           54.84852141600997       48.65561000502430       43.37234444734928
H           55.38050302686541       51.05133819124559       43.54415654614014
H           53.88053455285246       52.56812737255299       44.75264764980454
H           48.17001204834782       52.87585042064808       44.64400185063148
H           46.33767905111659       51.28173415933311       44.41610097753956
H           46.65892701599941       49.18460437444777       43.13987524681626
H           48.85945940175423       48.70959674218886       42.12089632446353
H           50.72588333836983       50.26710348372661       42.43044624017490
H           50.40389349855367       56.42916581150695       41.54654726172917
H           48.91061047182460       57.88060363028406       40.25389799170878
H           47.52461747174052       56.93957783407938       38.44361824926533
H           47.71701182962678       54.53374862240356       37.88503115225056
H           49.16872373385380       53.07772541314329       39.21061147910260
H           51.24419635166900       52.00141613632337       37.97132868958482
H           50.68977345383851       49.61955539334517       37.85972711520441
H           51.49229347651571       48.06681707023965       39.59855541391278
H           52.89506993246622       48.94041988934547       41.45626114279115
H           53.46086066533369       51.30031206465172       41.55950310256204
H           56.85615460949737       53.55606626222101       38.41030062981007
H           59.22163883079087       53.60557054576707       39.07842118111933
H           59.94993934115410       55.04059285906366       40.95172004975749
H           58.28886081950328       56.40821010338001       42.16027572474116
H           55.92651290896493       56.35531669373527       41.48968916842063
H           55.97671357149090       58.43621266981232       39.81667103372996
H           54.81195462104840       59.94671173670748       41.35452705884764
H           52.35008637719388       60.14613214366927       41.26496674796457
H           51.07955953609176       58.81643596306397       39.61594784488562
H           52.24046972555174       57.30959302099257       38.08123765005520
H           55.16130957349824       55.03312186310471       33.41553706621193
H           54.60560999395972       55.58047794520483       31.08647239411350
H           54.49463982598201       57.93879188253673       30.36193943357448
H           54.93377081920364       59.73705037990867       31.98789371483878
H           55.49087995013452       59.19493514250267       34.31406027350162
H           58.27246850493335       54.80603838775887       36.72158901473894
H           57.92981800475309       52.39001780176918       36.42945538200028
H           57.63624221925895       51.44464501740167       34.17447523565628
H           57.78502129532585       52.92123736755627       32.19967422288470
H           58.08260779306514       55.34286067502342       32.49327720138359
H           58.76673378507882       59.08575744667466       32.40372333209820
H           59.39724863600963       58.55817732857191       30.11388367846649
H           61.54016779628640       57.43311142100355       29.62839010823514
H           63.05214187204482       56.83768963854249       31.49294010044249
H           62.42096344902512       57.36131507134557       33.80109763431012
H           56.70248927877667       59.62167341264267       37.73885389895350
H           54.64074736697127       60.93815297214282       37.76537233990288
H           54.51682460970112       63.07437852820048       36.52937595452017
H           56.48192453059328       63.86376739681502       35.26158149092809
H           58.53573140686841       62.52265424937690       35.20006352410138
H           55.27502366611225       69.79715082246653       42.79969783692886
H           54.47716077255461       68.54499000215891       41.84810967283907
H           53.84163765737497       68.98564450929990       43.43930311831006
H           58.80864473578121       59.19552495877879       36.94373102220460
H           60.88893924968478       61.20723142823463       36.32375139882359
H           59.81338891065785       61.70127539048627       37.62303823839261
C           60.11575740607714       59.50285623612537       39.25628450672476
C           62.21434307773116       60.66000623919153       38.52925216662680
C           63.47030839672708       60.23242513863462       38.11815375212048
C           64.61822246046222       60.86091445261444       38.56899465241651
C           64.52771468980096       61.92668023854952       39.44747956377253
C           63.28129476439611       62.37085100662804       39.85614845041677
C           62.13784583978222       61.74849115196553       39.39051568380729
H           63.55401288041178       59.38977949829732       37.44539942484763
H           65.58695009945907       60.51134944704058       38.23964637993475
H           65.42256733090532       62.41036592908796       39.81336856943457
H           63.20400925719586       63.19929588803178       40.54612327176121
H           61.17255394369062       62.11298394098708       39.70843520525145
C           60.90707476815332       58.64883253504480       40.25634827045951
H           59.71667023257478       60.37608987932780       39.77409450981117
H           59.26502282950810       58.92468476469289       38.89584837574012
C           61.68630315156705       57.56115237284786       39.57512145567350
C           61.04689158449866       56.64350445057514       38.74954897662381
C           61.76981507327095       55.69974201599320       38.04540649770333
C           63.14681627286304       55.64011314221046       38.17737872229480
C           63.79122012831612       56.52316346819462       39.02529826380945
C           63.06506202822059       57.48168818349899       39.71167153941759
H           59.97105356214661       56.67281331249837       38.65717839473948
H           61.26098328870044       55.01915706449127       37.37893823119850
H           63.71768687978709       54.91257790087312       37.61936724370129
H           64.86556276172786       56.47481026936305       39.13774498037552
H           63.57846579863628       58.18668641402810       40.35175616560466
H           61.29159775870618       59.04332934135500       37.52266537655114
H           61.59925493709003       59.28742768134063       40.80913931308364
H           60.20423481117923       58.20696506765307       40.96859007089334
C           63.42890909962064       66.80447476338705       43.48546644242099
C           62.19221176298329       66.39478796779554       43.96869646076193
C           61.32447249334319       65.74725958541333       43.09752632161695
C           61.68745814563957       65.50827088225819       41.78492344957149
C           62.92196670431836       65.92213319515841       41.31463391734143
C           63.79359860216815       66.57244083575294       42.17097789941043
C           61.80336166522032       66.68434213550462       45.39719674790384
C           60.69626387576684       67.74158477918047       45.42332071827123
C           61.37273416370994       65.41471778931744       46.14117917070784
C           62.50079851030436       64.37646269976483       46.21698920515826
C           63.69654037326938       64.93989574962453       46.94437650869293
C           63.63445897154330       65.26018682289332       48.29579163330750
C           64.73641926069283       65.76873208338623       48.95763325163297
C           65.92477254510241       65.96918415461644       48.27722150094009
C           65.99976020266625       65.65824656654063       46.93032467316437
C           64.89454321035882       65.14798644536540       46.27230477847555
C           62.00832157927283       63.09307439730064       46.89785121563330
C           63.11999641352731       62.04076285687611       47.00211278343340
C           63.54002395561260       61.56628519594609       45.63441684936686
C           64.83086490185354       61.80300599168709       45.17730247550492
C           65.22139670000969       61.40756893838520       43.90974883280352
C           64.32292577815777       60.76633390155242       43.07396397102571
C           63.03970658248878       60.51111427023925       43.52531995618038
C           62.65343630253125       60.90267395429962       44.79400456711069
C           62.67568278194128       60.87464689951145       47.89250187351336
C           63.82246033979852       59.89785983824111       48.17655159834412
C           65.07176810502321       60.60774541192114       48.63886250646862
C           65.04642040732580       61.49356903777461       49.71091230629367
C           66.19964181013110       62.12766734050921       50.13438654300072
C           67.40452221326768       61.87931227050944       49.49929229001560
C           67.44538273954581       60.99413188624145       48.43649102175843
C           66.28716017908600       60.36627312709536       48.01207488894788
C           63.45180458460796       58.86036177978385       49.25009394385784
C           62.15976153837339       58.07167188681561       48.99403593282996
C           61.83939233007833       57.20159018237502       50.18798079094970
C           62.78072195636074       56.33796648978888       50.73880176250034
C           62.47180270883036       55.55102643211187       51.83301430134149
C           61.20683709807191       55.60425053605021       52.39574994867805
C           60.25602689375849       56.44794444398229       51.85074888826845
C           60.57215076201511       57.23662163098825       50.75734510689368
C           62.25351551514570       57.21499111194772       47.72451384392768
C           60.89313121904806       56.62688972503611       47.31867203482905
C           60.12881424305137       57.57936258215814       46.43387089236271
C           60.56443098359981       57.86794719261104       45.14448914851613
C           59.82974937660615       58.70468241069221       44.32360123751567
C           58.64833966743308       59.26993097627543       44.77336612346863
C           58.21265436500022       59.00060465998558       46.05845039256845
C           58.95131110085287       58.16542295790401       46.87964022486029
C           61.06208601837616       55.27363997053121       46.61287030709292
C           61.36431555803258       54.13050265506254       47.59362472533258
C           61.92518721683951       52.95151518568370       46.84285467232733
C           63.19087816911973       52.46543654386848       47.14087138163057
C           63.70838429624564       51.36956775172870       46.47358162311696
C           62.96615999110730       50.74131831935628       45.48941611280740
C           61.70653017344840       51.22281715723750       45.17422039800078
C           61.19360400977943       52.31665207398172       45.84546162162745
C           60.11722816269103       53.72819884111220       48.39672255053186
C           60.30639598635243       52.42910391553401       49.19612644817813
C           58.98444822309900       52.00388030835857       49.78066464046747
C           58.31075930075168       50.91103361284327       49.24890627953053
C           57.09355135451129       50.50320630377120       49.76459977851601