3536
 energy: -3716.262318004971 gnorm: 0.000862357247 xtb: 6.6.1 (8d0f1dd)
C           53.05970542442257       40.62593791614988       46.04420293308823
C           51.61513763512714       40.94601947779155       46.42032102446652
C           50.86123611945402       39.65206760954128       46.72720885814340
C           50.87742808603051       41.69955654799954       45.30769933418721
C           51.50669241660090       43.01909931920831       44.84523036035129
C           51.68074892998233       43.99007367929457       46.01129959168538
C           50.63102172230869       43.68332757546470       43.77137082880178
C           50.60104812840886       42.97129636519789       42.41451749508400
C           51.90177589146150       43.21211703794025       41.64943883090610
C           49.42178912275308       43.45147157214900       41.55658477303746
C           48.01413725415037       43.10170634484042       42.06385873390374
C           47.85732065352612       41.59962097661398       42.28675461892443
C           46.99412987465010       43.61894309709287       41.03989924173322
C           45.51613393967262       43.56497283052047       41.45016603346419
C           44.66467551498329       43.99668961923578       40.25395832618448
C           45.20297772468111       44.45382596233020       42.66561045803432
C           45.10077379722532       43.71459692890289       44.00699593937306
C           43.80411683752484       42.90944308099899       44.08338281123475
C           45.14923432556998       44.71689870170218       45.16805060904471
C           46.54760608217031       45.26821871163776       45.47379349228950
C           47.35314075910274       44.25344004115411       46.28111959319154
C           46.44605774713628       46.59973850759746       46.23030067322350
C           47.73601217502499       47.43865352818632       46.22048806213417
C           47.98321621005332       48.04419717909955       47.60267688517541
C           47.67582921447011       48.56968112045527       45.18403450300411
C           47.53069162166999       48.14272736954072       43.71503103442064
C           48.78001152643861       47.39706898486612       43.24998852229222
C           47.27385134176998       49.38726607821259       42.84417012053611
C           46.33088427900092       49.22039870696646       41.63987187380376
C           44.91537661574853       48.86060284520593       42.09491719628692
C           46.79174561390137       48.20249851275039       40.59041072835868
C           48.11948284021015       48.52304711797819       39.88863867939130
C           47.95757170637498       49.69915726735897       38.92840195382829
C           48.61199046658083       47.27182714702072       39.14805742831238
C           50.05236324872936       47.31510461293424       38.61497557284321
C           50.27064620209484       46.10211732904064       37.70939256225723
C           51.05895177952512       47.32962534180582       39.77194570822257
C           52.53931835111173       47.44169787634058       39.37918591568791
C           53.39917892740270       47.14298604941769       40.60577175821930
C           52.85785617490722       48.83242382828124       38.82186912133372
C           54.23318004899935       48.99275680787404       38.16021225066692
C           54.41157050505505       50.45594509049975       37.75428404020035
C           54.40162048444972       48.07634314895461       36.93601422938310
C           55.19543471830733       46.78722327650296       37.20246038003212
C           56.68802529221097       47.09433973560841       37.30399173568518
C           54.91745088868910       45.76857982629885       36.08893951112069
C           55.32060366560150       44.31867883824331       36.39743154961987
C           55.34434131568940       43.52760689080809       35.08909676089785
C           54.34172848627920       43.68590877565187       37.39563154153538
C           54.77033038539629       42.31775789415046       37.95881399145249
C           53.58155034060807       41.35422794698324       37.95311610387515
C           55.32236280707128       42.41734385098501       39.38745519489017
C           56.64612080231715       43.17716162309840       39.54406144206168
C           57.77929102514981       42.46847795352071       38.80220572530737
C           56.99350817381477       43.33210073487420       41.04006306705205
C           57.34534274411860       44.76670764564079       41.44850106121086
C           58.63271364569434       45.23223804903433       40.76906971407648
C           57.52126749252035       44.90489310800977       42.96679332594963
C           56.32097043700576       44.53277327254350       43.84631312933743
C           55.02810423067192       45.17693107417445       43.34981265680345
C           56.56077927671768       44.98558721878265       45.29398913532039
C           57.76922652886292       44.37623095916695       46.01781918902175
C           57.64633930884998       42.85609649025967       46.08991903086186
C           57.85770176789152       45.00165787499871       47.41799763453876
C           59.14527101389002       44.71788018620927       48.20254831572107
C           58.92140309438935       45.06258746159836       49.67481971383378
C           60.33303967477089       45.50638711211410       47.63850642909279
C           61.70461837085351       44.96243742587730       48.06070376823081
C           62.77035299837659       46.04044747325587       47.87327798738784
C           62.07014498935700       43.71217005626620       47.24987204009628
C           63.18200217779064       42.85223417856601       47.88007897180469
C           64.27806319417262       42.55940931029373       46.85426184376119
C           62.63931075285124       41.52375277391229       48.42583313901100
C           61.64553977801170       41.64017378265950       49.58971310394254
C           62.33812045471264       42.14551610689749       50.85235553902064
C           60.99603984494380       40.27228784166557       49.85145192044018
C           59.68450284518273       40.30231791809199       50.65485806801878
C           59.38515100525799       38.89752750882626       51.17711447423827
C           58.54282521087050       40.83537322444152       49.77833048886928
C           57.12092804271293       40.77683515614238       50.35745585879039
C           56.14982559427730       41.26525169227869       49.28111622169912
C           56.99186207244615       41.61432961146337       51.63462604329624
C           55.65450659353761       41.47197598416260       52.37846719616400
C           55.48378026558064       42.64748705708762       53.33909100824802
C           55.59133557311927       40.13346612017042       53.12393712260035
C           54.21529052078882       39.74730972619864       53.68206790464581
C           54.33699826182697       38.45589509776097       54.49226030477156
C           53.12181434133459       39.62194983890542       52.61096517098010
C           53.43000056692456       38.67649187550525       51.45223752843377
C           52.26673243823315       38.62019919124977       50.46921642857086
H           53.64961389511983       41.53191523743972       45.93406852425123
H           53.52285501188938       40.01450458972211       46.81635628522998
H           53.09544283558777       40.07496207664484       45.10604998848166
H           52.06393165974646       39.60875539537274       50.06076985910509
H           52.49149427549414       37.94528538297133       49.64537043495292
H           51.36491463968241       38.26597239476393       50.96372637150859
H           52.20560390476550       39.28103607933869       53.10124179001144
H           52.90961764464066       40.61132620983441       52.20126781570434
H           55.93081456444237       39.33327679852462       52.46400167576034
H           56.29892834326771       40.17611113407390       53.95705074106461
H           54.84306196924545       41.51172011061870       51.64883948445068
H           54.55467346586396       42.56746399286028       53.89618652382888
H           56.30766312382749       42.67958223416481       54.04870507850081
H           55.46858529569039       43.58677392742183       52.79045487635204
H           57.79294844204043       41.34643005641966       52.32629607988454
H           57.13359987076517       42.66404126945181       51.36432963875203
H           58.75600429487288       41.87528571697158       49.52504025323530
H           58.54252100666057       40.26419178427096       48.84484351149901
H           53.89009496647513       40.53266128989057       54.37307134514565
H           54.71557014719654       37.64073128703228       53.87918477017718
H           55.02005699359614       38.59225877175155       55.32829588026608
H           53.36903159833239       38.16338054661060       54.89400005730889
H           56.87852580676732       39.73338595572118       50.57935037972858
H           56.33353557376664       42.31359129295174       49.05567022027541
H           56.27771164052078       40.69084063137714       48.36556553715864
H           55.11597550302155       41.15790433116138       49.59808004879469
H           59.81729636409463       40.96490367916708       51.51513522065103
H           59.17726061093828       38.21968171162142       50.35108780605778
H           60.23970336113803       38.50929658902504       51.72844628493851
H           58.53048522519351       38.90167511329538       51.84779517105825
H           60.79456845991677       39.77931283038882       48.89616545106291
H           61.72224608076790       39.65067772098594       50.38241278079857
H           60.86625931576603       42.35299049280633       49.31248360124766
H           61.63972263498641       42.17327937105962       51.68447532399737
H           63.16481235709632       41.48961041224491       51.12085930871988
H           62.73153439823803       43.14853909525846       50.71142581927553
H           62.15572359270831       40.99449591890141       47.59909221962987
H           63.48097407940586       40.90631062007029       48.75351204910453
H           63.64285954651861       43.40393081570480       48.70450927578840
H           64.71048218350310       43.48373167589827       46.47829326335683
H           65.07637419160456       41.96634157450465       47.29757503674897
H           63.87222307411253       42.00189051684461       46.01178377268000
H           61.18168121316601       43.09518021951802       47.11011967007675
H           62.38141721634778       44.03700682357617       46.25504117662202
H           61.67006031148973       44.69708127697405       49.12187823592514
H           62.56515718523965       46.90150161080570       48.50645862864513
H           63.75588294545842       45.65688582079230       48.12900549856883
H           62.79534479521253       46.37538479986448       46.83790789036455
H           60.29324619207525       45.50370631245777       46.54838062409183
H           60.24167062725248       46.54527008508484       47.96485883013098
H           59.36657486790561       43.64902757288785       48.13439255878829
H           58.64362997057941       46.10902358981082       49.78204053710140
H           58.12212853315837       44.45434877007161       50.09372710617924
H           59.81948330389002       44.88421205312147       50.26133659713001
H           57.75467685635829       46.08631770774327       47.32721990184206
H           57.00507729237290       44.64421326952032       48.00188839405289
H           58.67966086505766       44.62419663210020       45.46447210324860
H           56.69016175487277       42.57315982831690       46.52478877932034
H           57.71720547877349       42.41507003356754       45.09869626358620
H           58.43720857141059       42.42510145712451       46.69802146277884
H           56.66878440020511       46.07438620843337       45.28950912518891
H           55.66654252291173       44.75067871951906       45.87924855590405
H           56.18515274290711       43.44698432610482       43.83590423584442
H           54.74302208895696       44.78941253382104       42.37642855554975
H           54.21451826677060       44.97106112139784       44.04282841716060
H           55.14952868586680       46.25487301345653       43.26823355052836
H           58.37511883759156       44.29033642025794       43.26224357552043
H           57.77608671161131       45.94610522270353       43.17556404418184
H           56.53455573942910       45.42777791764084       41.12564142358801
H           59.46551587310549       44.58832122567538       41.04621710978235
H           58.53324683223377       45.22000156716659       39.68705472380233
H           58.87873012221724       46.24820364770650       41.07012683042318
H           56.14123997304050       43.00309758164966       41.63495441713142
H           57.83049134641918       42.67742348641559       41.29339385337601
H           56.51421475574112       44.17421760423208       39.11382552358903
H           57.85834699356325       41.43457316878946       39.13438257463115
H           57.61297063540561       42.46784354327285       37.72745667155570
H           58.72965096628757       42.96066339917085       38.99246489370495
H           54.56425109205993       42.90251697375082       40.00813690402376
H           55.46320292690525       41.40429929918175       39.77579669148006
H           55.54307077108474       41.88578671199468       37.31815473988883
H           52.77695089993316       41.74118299153034       38.57536792768006
H           53.20037620566810       41.22042812836368       36.94293053452450
H           53.87182737541407       40.37872316773977       38.33857227064358
H           54.18266748440289       44.37039090064411       38.22989360640388
H           53.38053931525327       43.57767529278561       36.88657061097856
H           56.32792339458373       44.30879037005855       36.82159032817829
H           56.08518486693873       43.93957564887889       34.40665390243919
H           55.58918995209883       42.48225128887999       35.26014348489935
H           54.37071193755396       43.57240654461270       34.60418314420755
H           53.84816324549953       45.77215072432556       35.85817687110533
H           55.44032193265296       46.09751903276410       35.18696388067321
H           54.87009359314462       46.36467180096536       38.15589250049958
H           57.25536787268859       46.20055860598984       37.55332004784380
H           57.06322002741687       47.48106820059759       36.35813316120695
H           56.87701470808219       47.83898336892977       38.07335252167479
H           53.41025788824606       47.81949842847519       36.55551662914196
H           54.91105770098984       48.62331394222732       36.13891102477855
H           55.00894821074780       48.75619591440147       38.89316215835838
H           55.39184460647076       50.61308169431042       37.31034193883620
H           53.65470257487422       50.74584778017060       37.02725034880013
H           54.32112570572925       51.10896346471267       38.62018870600873
H           52.10282656523915       49.10470912293844       38.08094767253501
H           52.78264568372011       49.55141281188109       39.64146441912785
H           52.75282639170832       46.69014432378120       38.61681696052472
H           54.45735059304828       47.16533555379122       40.36070013068082
H           53.21423576769605       47.87599712037758       41.38754025118389
H           53.16807003482523       46.15731559324019       41.00273258880891
H           50.82742136931235       48.16051522782543       40.44106766942581
H           50.92309226849498       46.40584511360434       40.34092627371963
H           50.17562628058452       48.21768792987226       38.00942711585522
H           49.51546305443274       46.07111996648592       36.92615943416151
H           51.24533147236912       46.13554734293580       37.23011408427423
H           50.20216043153756       45.18223175826724       38.28683842012505
H           48.53486416865736       46.40905269464584       39.81597367245484
H           47.93419318761072       47.08664246889229       38.30978799517862
H           48.85573966216868       48.79793299969197       40.64663528327016
H           48.90401974541210       49.94995494211778       38.45624968780672
H           47.23809891137078       49.45856061407618       38.14738030701733
H           47.60645365386431       50.58320405295024       39.45495975135385
H           46.85919834302817       47.22406841885464       41.06965116316128
H           46.01224804749982       48.12417850832304       39.82616103644771
H           46.27317542336446       50.20511362225122       41.15963747080545
H           44.87304036433950       47.84534962488970       42.48190431646537
H           44.57903688882947       49.53948381314054       42.87405571555243
H           44.22046014632920       48.92711479595641       41.25988654904941
H           46.83122994818085       50.16678016081925       43.47001224093012
H           48.23077922497770       49.78093689766878       42.49592651049647
H           46.66850193389355       47.47736442395312       43.63500910543417
H           49.64037935048433       48.06215470949441       43.26626926497521
H           48.99484193999199       46.54875485775843       43.89508022961274
H           48.66577217985674       47.02067888462224       42.23887848689279
H           46.83088409774015       49.21196014794711       45.44788239905832
H           48.58228231866541       49.17250869440527       45.27230861568997
H           48.58619484877785       46.79053342311296       45.98846086622446
H           48.10214332886811       47.26219502066586       48.34971697314445
H           48.88725053478803       48.64911087936076       47.60471677487087
H           47.14921678420296       48.67834096053735       47.89511617328353
H           45.64017858352463       47.19898245277580       45.80016356280917
H           46.15885032498411       46.37930559806335       47.26087151197468
H           47.06781423999492       45.44424103814347       44.52894622791322
H           46.86075859314759       44.05087524039418       47.22974165225423
H           47.45052134945824       43.31367213493601       45.74097191313872
H           48.35213083533925       44.63029820485317       46.48990701890376
H           44.47486012918682       45.54311755114227       44.92477358940334
H           44.76253644057610       44.23866122000953       46.07120171500349
H           45.93888123389009       43.01910946731352       44.10203693210119
H           43.71477001332124       42.22495808748251       43.24381641761153
H           43.77067421197037       42.32545520041504       45.00123561679521
H           42.94257730904640       43.57499694932223       44.07183477328054
H           45.96928054558157       45.22769854613794       42.73417193642136
H           44.25049650675983       44.96424343873695       42.49904464749743
H           45.25404056876771       42.52976039411289       41.68596041251818
H           44.88427000006887       45.02876541847314       39.98673770284388
H           44.86751888021726       43.37061769460975       39.38680742853268
H           43.60467498264006       43.92041605402073       40.48807248493935
H           47.23676273641575       44.65856104237452       40.80103847882383
H           47.11568885207739       43.04286450880509       40.11759240642830
H           47.84196498683014       43.61692353810517       43.01183055393326
H           48.49453223050215       41.25731181687053       43.09789947700464
H           46.83170669171210       41.35459972565580       42.55100939370140
H           48.11740036659405       41.05068313921710       41.38309955003277
H           49.49367751612989       44.53836018023885       41.45606778245151
H           49.53350231949668       43.02417960399924       40.55521313372932
H           50.50279677813044       41.89402986422429       42.56600946127870
H           51.89721098511242       42.67065183138799       40.70514491893498
H           52.02349669450658       44.27210148865530       41.43448165009814
H           52.76053779487211       42.87739530211211       42.22569865199416
H           49.61636759381136       43.75154660818816       44.16603347765379
H           50.98782624021334       44.70359140695982       43.60649273497192
H           52.49219537026070       42.81283961301491       44.41754859755635
H           50.72586419728928       44.15640340966276       46.50656719787642
H           52.38589972428398       43.60789611909048       46.74457312174739
H           52.05234830164121       44.94715478727776       45.65282377548485
H           50.79902126075291       41.02641980364145       44.45062538275685
H           49.86109259018584       41.90630402672576       45.65553533360047
H           51.61635397448915       41.55973768257194       47.32646506903731
H           50.87101243122349       38.99101272908211       45.86211459247164
H           51.32237247839826       39.12675525056790       47.56100416651126
H           49.82482222373503       39.86130771460948       46.98275922910629
H           54.32171925845812       39.01430511001033       50.92198389041288
H           53.62611216057986       37.67111940945174       51.82997049756914
C           62.34960225450497       71.15774914639367       51.50345710090617
C           63.20498080690633       70.39644064689578       52.51667062038253
C           64.60366752327431       71.00517763405452       52.57622163666879
C           63.24625537976786       68.91322452580127       52.13306663879411
C           63.92964111726299       67.96221634594367       53.12861806025524
C           64.00846928115128       66.57623636239106       52.48938882355574
C           63.16523257464649       67.94075047437570       54.45918498469182
C           63.60107186085420       66.90486200698507       55.50633786112211
C           62.64653263783460       66.99584104719412       56.69603422109971
C           65.05812202922638       67.10013899292184       55.93817832725114
C           65.59123639640714       66.01832246827480       56.89560305358896
C           65.62079680821114       66.52087760350558       58.33959008662554
C           67.00613683229800       65.57168148493635       56.50051723291496
C           67.09011748015055       64.67384680916072       55.25869645371476
C           66.54769651174900       63.28056765057271       55.56526093442999
C           68.54808571376273       64.58984260930409       54.78523312154422
C           68.74154026095235       64.00517756865156       53.37977915336419
C           70.18388365264305       63.52348238106060       53.22408685997598
C           68.40197881958717       65.04156157597146       52.30143731697747
C           68.06612587909737       64.42382945552838       50.93805986377638
C           68.15037939268316       65.49946857944639       49.85481821748744
C           66.67484098311556       63.76087084290054       50.94087253309896
C           66.66274611275026       62.28203331086223       50.53482544950614
C           67.14839457854464       62.09869815416297       49.09920583822319
C           65.24361285744014       61.70921781175477       50.65779717817089
C           64.78470847509372       61.40994201285300       52.09014424401612
C           65.30984409683701       60.05077613413523       52.54650794306760
C           63.25184540685511       61.46925981860146       52.18137443428753
C           62.73409912182159       62.89969712506763       52.38825605559130
C           62.80214991583836       63.26310489972768       53.87071614632328
C           61.29683444092583       63.09788238554773       51.88751435575524
C           61.10531905740817       63.10766375584928       50.36650892027641
C           61.93049107431318       64.21361461625789       49.70867276802198
C           59.62794446366797       63.33295379756639       50.00825031689148
C           58.65445686423026       62.18474795963423       50.30594478466669
C           59.00656392842505       60.95244488880959       49.47798636492034
C           57.21079515027098       62.64512773310543       50.01468026426712
C           56.18288598373140       62.26152131730731       51.08639196333880
C           55.94377865106065       60.75305349840692       51.12523392924977
C           54.84012812313222       62.96654110225067       50.84231511921269
C           54.81521843873945       64.48148045014635       51.07876664524505
C           54.98835732813327       64.81259259268074       52.56086435590056
C           53.48921539993058       65.07667709379207       50.57960582049223
C           53.34950668935083       65.21073200403593       49.05522689106152
C           54.23388358390510       66.34134535662753       48.53446207140482
C           51.87422886839732       65.46596221472802       48.71739340352017
C           51.51226830214893       65.49872232399369       47.22639757026023
C           50.07435810802404       66.00231683583003       47.08089406972678
C           51.66244224819908       64.12249604688462       46.55089674905983
C           52.88669390531332       63.97757393242960       45.63713340783594
C           52.70794467650283       64.81468278852377       44.37095188470175
C           53.09772093138529       62.50713238484143       45.24756307258270
C           53.69332727721918       61.63788441525137       46.36296997983258
C           55.21737432081824       61.73524527014364       46.36483153327595
C           53.26285867466588       60.17246324807764       46.21776026180832
C           51.81763109676316       59.87717678456751       46.64191531056949
C           51.66803648675090       60.00963624928027       48.15299086793706
C           51.44104502161876       58.46325406055050       46.17430578629293
C           50.07357777728378       57.93047785951880       46.62377214793193
C           49.98244908652636       56.44486095978547       46.27604626472277
C           48.92141998021514       58.70652071614587       45.97362584192571
C           47.57506410331855       58.61294182269887       46.71114796191120
C           46.45217648480443       59.02067620048469       45.75786566852135
C           47.59884966909464       59.50229489994285       47.96093815323930
C           46.31557034644930       59.57164203309554       48.80361272941141
C           46.50083128115145       60.64653938786884       49.87589090627525
C           45.98763439504530       58.21415963611558       49.43648879436804
C           44.68953259399367       58.16057834789677       50.26248438132679
C           44.72064421723285       56.92698295710537       51.16232332329713
C           43.47889197826247       58.16994110857008       49.31750165811728
C           42.08163081563829       58.49274680719153       49.88499369851012
C           42.12338532810794       59.67154838848761       50.85860127781934
C           41.34902009549488       57.31381355297783       50.54260974586924
C           40.96121326384647       56.16353453491040       49.60459590157157
C           39.79384065609045       56.56091784541831       48.70120777314655
C           40.57727777800414       54.91057633425485       50.40710343886939
C           41.74792088001176       54.19201005095206       51.08888362055134
C           42.67878588074323       53.55225200179512       50.06364835043108
C           41.23329649117122       53.12487112320784       52.06338865233348
C           42.30961433923842       52.63488966003468       53.05212152718985
C           42.48970665380044       51.12069586934874       52.95509658171270
C           41.98447416951546       53.03172280723908       54.49851060321971
C           41.98610218918564       54.54007144745418       54.77128555889875
C           43.38156936042890       55.13103224238186       54.57481295377534
C           41.55512936178851       54.85357221449807       56.21214494496127
C           40.17662575108305       54.35625723587342       56.65846499461865
C           39.07506217900251       54.79472234543049       55.69407794832883
C           39.84182757807920       54.88364048462945       58.06251813458076
C           40.84492166522887       54.54023576415209       59.16570065593195
C           41.03293132390741       53.04237571939095       59.37062542063926
H           62.30815315235862       72.21567177167839       51.75406957131568
H           62.76695820479467       71.06119360886613       50.50262826974479
H           61.33234687792202       70.77194289863077       51.48902997401239
H           40.07531237578362       52.56014992822508       59.55881271161853
H           41.48234454595569       52.58251171962229       58.49540288821797
H           41.68297054164028       52.85578004827401       60.22259660404175
H           39.74759426695912       55.97273510520601       58.00993588331158
H           38.86340469087732       54.48896358673662       58.35246884035019
H           42.30771274400993       54.42742308000563       56.87833899444755
H           41.57837780115051       55.94020934164736       56.34212025812899
H           41.30049085802871       55.03617968099518       54.07801545345421
H           44.08693311323178       54.63821841687007       55.23985120034452
H           43.73371466986967       55.00939607937064       53.55495615695165
H           43.38094170903254       56.19568694898842       54.80180206317915
H           41.00589456739585       52.62044685479660       54.75092952283778
H           42.71572635630313       52.56630651397669       55.16282711899798
H           40.38583694225144       53.52963302757837       52.62103009898965
H           40.85369681090808       52.28248388454899       51.47949561244701
H           40.18259502865213       53.26324695773054       56.69559242943902
H           38.09717888098346       54.51351372005551       56.08168078277055
H           39.09007313453785       55.87516249635502       55.56168556545555