3795
 energy: -5103.638725259882 gnorm: 0.000869976597 xtb: 6.6.1 (8d0f1dd)
C          112.59277086516376      119.66650129774459      111.12700494447446
C          111.73571836902090      120.19203773515650      112.25634566121150
C          114.05463396606115      120.11562726160325      111.25412781348975
C          114.23234627107051      121.62364530078952      111.04786396758828
H          114.43792292255119      119.82043588709621      112.23234364592830
H          114.62961943474119      119.57545787811658      110.50066188708888
C          114.26298674881207      122.41080486051257      112.36438097448014
H          115.15815775053750      121.81799252121172      110.50272029017023
H          113.41128681172971      121.99083392914947      110.43085494726276
C          114.09160478426891      123.88533805020687      112.06521502969787
H          113.45058477094828      122.08261551721441      113.01040196132593
H          115.21172296623094      122.24556176736151      112.87326168828812
N          112.83839939443045      124.22528397149983      111.74896234842474
O          111.60089341257462      119.31546250202184      113.22783624527915
O          111.23643635070151      121.29935035965829      112.27083747027712
H          111.05567909297231      119.63939051864355      114.00455090445273
H          112.18459075006736      120.01857535894756      110.17926948635561
H          112.54949178196631      118.57940617410895      111.14292134906796
C          112.44732035374005      125.56606644853666      111.36010471959226
H          112.11317230023121      123.52333435467719      111.81334510892665
C          111.07273987922180      125.53974924041277      110.70434974450562
H          112.42570477379009      126.21614149046700      112.24410188874681
H          113.21091255628339      125.95843910096978      110.68190938745371
C          110.58132427952089      126.92411707371488      110.27463615487692
H          111.09793745518576      124.88457150675599      109.83173896556703
H          110.37139460111024      125.11326288249725      111.42244987628493
C          111.12060991615770      127.33387884354637      108.90516140233579
H          109.49228565315212      126.90651688248917      110.23058780206576
H          110.87111414949138      127.66523322321912      111.02248800552330
C          110.80135552650802      128.78429344402451      108.54144897102765
H          112.20547809756191      127.21256536671132      108.88908505490582
H          110.70387916209280      126.66629938250702      108.14831849097128
C          109.31451307772640      129.09635972118102      108.42009013713860
H          111.21348434973001      129.45559387636968      109.29749922620397
H          111.28225948902697      129.02128540747407      107.58932843653132
N          108.69827667626774      128.37672201013166      107.32629961259006
H          108.77465106693136      128.84172358049872      109.33408825690647
H          109.18569447355762      130.17183113757025      108.25937470678051
C          107.40338248307579      128.03134610830767      107.30488889362238
H          109.28086087033569      128.16648591245709      106.53119121188497
O          115.01860479599654      124.69038369735073      112.07515720090204
C          106.98532279728106      127.26970192537169      106.06174419852854
C          107.47970725383260      125.82693885597570      106.17738630153571
H          105.89625991355270      127.28076779203595      106.00165232377859
H          107.39687126822837      127.73925873192782      105.16874943228571
C          107.02546882354494      124.96268126207090      105.00715697795698
H          108.56883646208708      125.80490743474382      106.23723918480904
H          107.09617814751999      125.39450128236241      107.10341614014271
C          107.67319527451629      123.57791592212190      105.06527485920289
H          105.93800838982170      124.85583673606935      105.02116469273179
H          107.30142677385636      125.43587080512944      104.06240424286162
C          107.28421381898119      122.83571722823072      106.32594810820720
H          107.33291032821442      122.99132166347981      104.21285947408600
H          108.75737576112951      123.66237330417935      105.01313255346882
N          108.17785819799956      122.88245296149837      107.31232306131938
C          108.02987232619942      122.18647136095719      108.57006141700138
H          109.04010114692805      123.39936735054665      107.16305367155918
O          106.63345149194716      128.26082077926250      108.22733418446346
C          108.25624149604764      123.09133375730949      109.78029149707368
H          107.02273816122718      121.76155933387474      108.58882253063477
H          108.75454490290210      121.36262647776670      108.60253769755401
C          107.14916441314523      124.12626041311690      109.99758398117625
H          108.32648008980469      122.45104401910196      110.66113362286821
H          109.21349628555538      123.59741732997695      109.66125991964230
C          107.12969522324869      124.61289411789949      111.44697985346627
H          107.29761977586823      124.97038855602185      109.32348444070784
H          106.18360980068027      123.67617179484776      109.75932140446663
C          106.10417180875034      125.71574575719922      111.72094569584587
H          106.90419368799814      123.75782459251474      112.08695434929338
H          108.12200895938028      124.97677492230359      111.71447114936548
C          106.57461098618532      127.09436073083350      111.26882752156881
N          105.57877907702871      128.10364895237836      111.55365306050415
H          107.49299281505606      127.38735112818830      111.78635943504284
H          106.76763837074240      127.09479156657592      110.19039002859952
C          105.85672435259578      129.34268117947775      111.94745747952939
H          104.60732864790167      127.85637385905390      111.38744365191133
O          106.20990542698028      122.23552808389900      106.41561319027426
C          104.65070742777908      130.26617824940894      111.98402349682166
C          104.08421038448344      130.49190648301007      110.57819486260247
H          103.87554189035077      129.80963623213484      112.60111400661512
H          104.95077150003881      131.21755714826747      112.42673281620853
C          105.14909584304394      130.95634738050938      109.58884849010681
H          103.64456389672543      129.55889640717135      110.22338508026147
H          103.28506927319056      131.23433199641289      110.63682187877730
C          104.59239715631823      131.07941855897423      108.17445683412727
H          105.55707191485594      131.91858463022604      109.90532215497970
H          105.96615087152512      130.23283751401669      109.56733747564346
C          105.65863301590248      131.48015042693891      107.17015356887617
H          104.17684874002815      130.11752260429992      107.86836872035848
H          103.79344068529110      131.82479542495642      108.14649959574292
N          105.25574982943313      131.40665456528572      105.89165732813504
C          106.09057143469563      131.79237219685774      104.76901293639797
H          104.29973320221893      131.16107807005295      105.68751119985360
H          105.16992389254618      125.48460886751127      111.20821611448112
H          105.89222876924046      125.75914656658637      112.79165862093222
O          106.98730964338110      129.71974591966006      112.26712417999286
O          106.78517302446919      131.84670904191194      107.48103767895471
C          105.58334666858985      131.19672150532904      103.46100073530550
H          106.11166014146815      132.88663326620886      104.69271545301092
H          107.10578307640463      131.45003768992811      104.98495139203571
C          105.71676064616395      129.67539489746665      103.40547007116021
H          104.53818870722309      131.47890753807903      103.31924154406914
H          106.15706758712190      131.63665862688288      102.64439950546446
C          105.22250181785785      129.12395301197648      102.06830879408895
H          106.76644933917237      129.40758628615890      103.53635037211059
H          105.15300014112320      129.22889705226092      104.22472192942618
C          105.36031491406922      127.60553419556035      101.94391417301235
H          104.17630238674343      129.39950471656431      101.92393610991881
H          105.79947148358492      129.58863222788631      101.26685622112247
C          104.36604642149079      126.84269328990625      102.80819367150632
H          105.19164562609440      127.31947646088786      100.90397578046364
H          106.37331291079394      127.30682708245006      102.21863681946778
N          104.37926351812288      125.42564127204407      102.48793929715679
H          104.59889515348826      126.95833626625510      103.87199855623786
H          103.35016054200257      127.22424976445180      102.65160096573504
C          103.50654003406130      124.58536078439572      103.03888202960404
H          105.00991235093791      125.10182817777371      101.76197926249966
C          103.60135463048626      123.13849502709277      102.59829993876799
C          103.95046564398507      122.23877006754526      103.78777682235200
H          102.62830883846040      122.84308011204281      102.19817532284740
H          104.34902957661517      123.04658870787924      101.81132158199738
C          103.94885133227858      120.75833403373689      103.41725846750754
H          104.93508393605613      122.51126755598406      104.17153334258329
H          103.23087831426758      122.40685451479459      104.59222056876476
C          104.47560729547658      119.89288689884584      104.56568983779910
H          102.93583973981914      120.43733562927723      103.16347584575919
H          104.58241057603091      120.59889882444612      102.54257572042016
C          103.52714331179789      119.92644685828243      105.74823514988536
H          104.55244530934952      118.85808084008903      104.22533402094940
H          105.45947624665367      120.24180684311524      104.87597321913822
N          103.99463831106362      120.50702412900652      106.85311746106582
C          103.15961689709245      120.67719436561580      108.02662543388438
H          104.84804150430371      121.05245986572108      106.80315274536423
O          102.67752858345906      124.96326782964600      103.87219330297518
C          103.88517262010595      121.41008614404177      109.14392772258893
H          102.25833226071420      121.23890502673484      107.74956145294601
H          102.83086689913991      119.69247107332954      108.37439979279148
C          102.90266552197943      121.71451572684160      110.27239052457102
H          104.71570242392642      120.80376646075126      109.50830587804778
H          104.28731997467538      122.34417521991706      108.74621262185460
C          103.49444119632516      122.58452883461705      111.38063906262421
H          102.05318870895270      122.23745138554892      109.83156979281335
H          102.53441281726198      120.77404687316898      110.68706376758217
C          102.40072985826382      123.15432025527232      112.29968177016379
H          104.21524665817854      122.00271158650349      111.95610563267232
H          104.04120182345099      123.40864337736235      110.92130758226661
C          102.33732957593024      124.67707271022896      112.29672093407859
H          101.43049666957189      122.76534917545192      111.98887541234390
H          102.56189611333208      122.85037731595588      113.33343905692882
N          102.10432898412110      125.22303548110585      110.97158078368066
H          101.53373085953609      125.00634775404542      112.96616506267058
H          103.26981543361551      125.10343709543075      112.67871981833912
O          102.40214174166960      119.42793365240013      105.69374996337622
C          102.35885837527310      126.49619279565944      110.67129821169654
H          101.76307782171057      124.60389350742778      110.24367559727006
C          102.05449117169856      126.91407740285253      109.24564912720399
C          103.34242584357852      126.94618313577676      108.41386033361044
H          101.33481028458655      126.23206084714909      108.79883615726560
H          101.62357849420664      127.91691741523442      109.27634387457567
C          103.97807789128973      125.56927222770766      108.21840028082956
H          103.11899629341703      127.38045428966217      107.43657381521604
H          104.06959836456950      127.59635473934183      108.90640184505433
C          103.41277277053260      124.77991845210020      107.04129857981306
H          105.04529641825421      125.71446500930284      108.04590712927977
H          103.86625038115122      124.97833621879271      109.12770559863453
C          102.05834981357522      124.12874351398808      107.26905719543946
H          103.34500600789937      125.40846263426066      106.15214188141292
H          104.09700864823287      123.95754772787028      106.80420920237283
N          101.46713885288692      123.76530645344916      106.12935687879117
O          102.83448572265003      127.29063078521685      111.48631992560536
C          100.25646488761021      122.97703201283740      106.05076453374596
H          101.87650388518936      124.06989112860811      105.24690925109476
C           99.44951010486453      123.37181530352134      104.81952495577174
H          100.53141414226536      121.91567474693777      105.99980344783306
H           99.68224867048670      123.13241298890564      106.96886363556210
C           98.21224924447468      122.50030955739106      104.60077468042503
H           99.13502796798916      124.41205497547925      104.92400578588524
H          100.10123484842805      123.31710013834306      103.94607710032801
C           98.49804194113470      121.00268961490143      104.46942514732358
H           97.52218749660966      122.64632563326131      105.43436305837523
H           97.71215914968695      122.84451293122473      103.69321328647899
C           99.52534146414075      120.66843208765076      103.39030899773630
H           98.84387394834715      120.60531568014601      105.42522960198845
H           97.56094189306258      120.49344898971619      104.23238913762805
C           99.63785589823702      119.16044164928498      103.16540420336285
H           99.23396866542220      121.13661155930498      102.44886275839055
H          100.50584178247006      121.04900658709968      103.68041948223160
N          100.08946235390373      118.46472261662615      104.34901057520855
H           98.66339051332697      118.74439488223645      102.89727298648818
H          100.34747337825414      118.96159535188217      102.35582253114369
C           99.31760293801216      117.63609617008127      105.05025869782698
H          100.97777019536203      118.75541839093984      104.75004706697882
O          101.57015243534623      123.90780343733975      108.37630823716653
C           99.95122909570532      117.07923223418997      106.30699484254747
C           99.96251782645723      118.13796590969886      107.42042324806347
H           99.35857647378916      116.22061906696159      106.61876458040847
H          100.96638152401398      116.74693597404629      106.09034663660456
C           99.82068887856133      117.53862748542626      108.81965272046703
H          100.88088455408835      118.71929614238236      107.34526118946191
H           99.12289366976444      118.82228097774446      107.26949334053607
C          100.85029908401187      116.45686118516345      109.15537811553403
H           99.90628286754877      118.34285658751747      109.55304556452343
H           98.82546816727422      117.09934558468481      108.91815396894081
C          102.24959227425971      117.01607862251684      109.29505534253329
H          100.57402073833279      116.02082012683881      110.11945591206299
H          100.83674259341593      115.67421651098100      108.39953856017361
N          103.13714064749581      116.54478128016457      108.41647196932549
C          104.51808037166097      116.96912793779224      108.38654196670116
H          102.87299077922042      115.84352507111291      107.72939568431947
O           98.17347367553268      117.32657246495404      104.70822536335258
C          105.12563513440011      116.76105570330543      107.00566857617223
H          104.54763644928232      118.02961277440323      108.65366989275735
H          105.08937568589737      116.40788256079431      109.13922592752506
C          106.56038250756505      117.27850550182144      106.95397853023003
H          105.09753951583313      115.69903294769711      106.75544938196927
H          104.51402449453417      117.28559834454936      106.27001494825276
C          107.24658499601065      116.98972635633507      105.62193956976186
H          106.55827627311990      118.35705940775982      107.12839978894031
H          107.14189152761310      116.81361074210710      107.75317337859171
C          108.67934860115716      117.51785175998721      105.61742987471801
H          107.24710155343756      115.91510462158638      105.43160022002121
H          106.68802860670182      117.46178426993963      104.81106506160344
C          109.44004994221991      117.14312492006428      104.34790153404774
H          108.65962908558014      118.60703555205710      105.69353880942269
H          109.22255583505938      117.13502398684091      106.48379244788282
N          109.87887110223150      115.76569323283061      104.34397556749920
H          108.81195693393957      117.33467406210751      103.47174369894304
H          110.34401992393315      117.74969600010662      104.26911712694437
C          111.16225927711682      115.42566568382379      104.15781562794248
H          109.16868934164256      115.04633442835579      104.43125285971797
O          102.55093072565970      117.82677331437999      110.17222669952969
C          111.41542304013855      113.92396258536303      104.15924965448011
C          112.78013532345969      113.55076146085615      104.73933831818100
H          110.61629604913254      113.43329719327467      104.71439211617533
H          111.36280355876904      113.58050747319834      103.12466900247919
C          113.92777520911653      113.87954483209920      103.78502488460684
H          112.92372325526148      114.09895575559190      105.67195441965448
H          112.79708524070490      112.48660967011340      104.97940842473771
C          115.27567133616915      113.74371156755731      104.49321366921565
H          113.89259709940991      113.21180863535334      102.92032139724289
H          113.77813474893649      114.89949141209783      103.43157563591328
C          116.46134507492765      114.21604008339369      103.67908689322010
H          115.25886478350508      114.34673078662611      105.40645287567541
H          115.43710980196938      112.70920664016518      104.79212365048961
N          116.35401312914689      115.47250343813309      103.22778306987152
O          112.04913555374439      116.25506565501631      103.98302660214304
C          117.45074793046145      116.26112516823703      102.70226847496465
H          115.51719438162519      115.98795525334394      103.45710216611425
C          117.27483671479158      117.72108381002286      103.11463679633249
H          118.38112541841669      115.83867077607813      103.09054027120692
H          117.47446478078619      116.19028028977094      101.60860612012928
C          117.19190853016352      117.91304596198526      104.62965353640016
H          118.10522989355208      118.30289291319141      102.71543747834060
H          116.35347555828916      118.09071600578264      102.66310862618204
C          118.54679169311900      117.81140548412098      105.32320024114495
H          116.75804045906696      118.89067075300525      104.84584663539248
H          116.51095441761376      117.17368027839714      105.05403867190597
C          118.41595590249916      117.88149855469668      106.84428229995456
H          119.04783321766205      116.88042049319368      105.05308285291181
H          119.17222291301731      118.63972716046563      104.98688200759095
C          117.91496362239486      116.58749946977314      107.47030796584811
H          119.38515529095574      118.12462370497973      107.28138393639072
H          117.71731530980416      118.67582698720051      107.11164809201854
N          118.94905723787809      115.57036177272680      107.51695195645185
H          117.56211906928509      116.78424095469035      108.48848136700735
H          117.05953424001235      116.19662283231007      106.90787119802630
C          118.77262992812913      114.42797525586552      108.19214280766673
H          119.82527519314894      115.76846800327795      107.04265303190965
O          117.44786210999358      113.51736476101875      103.46495493693470
C          119.97304589497848      113.49302622265728      108.21200622838694
C          119.54812583571304      112.02623478115164      108.12257460574551
H          120.65893894105160      113.74943863799437      107.40698849835691
H          120.48804652525730      113.64860974039395      109.16335430768537
C          119.10590278250785      111.65096843087532      106.71034180906702
H          120.38165295418524      111.39141404144713      108.42824076120064
H          118.72117634081647      111.86504772638344      108.81658142447711
C          118.66451702307371      110.18611821118732      106.60798660250688
H          118.28325028430025      112.29878504174361      106.39761638977748
H          119.93620250752147      111.81375137594516      106.02202107559704
C          118.39778537512156      109.84225936532314      105.15561229176346
H          119.45810256066217      109.54074036119509      106.98782899375361
H          117.76303751882131      110.02952081801349      107.20078315776347
N          117.19548774281374      110.21615835335608      104.71572089751724
C          116.77753981560875      110.16630194884237      103.33359549095137
H          116.53857899876098      110.66323442506710      105.34819407920973
O          117.73117661674054      114.16548700202803      108.78304691623435
C          115.30800432266008      109.77306013421334      103.21124543387498
H          116.92684672089648      111.15872457646093      102.89109348426619
H          117.42216097894806      109.45505609047811      102.80882852542646
C          114.91041638674410      109.55666734674867      101.75461098576879
H          115.11968944531387      108.86293850352064      103.78392630783611
H          114.70146962707092      110.56655450429902      103.64941143610307
C          113.40023126277229      109.43141787514706      101.57716862688964
H          115.25639564138126      110.40372154471100      101.15868077183939
H          115.40272256974082      108.66089873470322      101.37011507292470
C          113.03039995931128      109.23181211631413      100.10864083586505
H          113.02045315673860      108.59907406473663      102.17350091639445
H          112.92759578239294      110.34622700383423      101.94187753286603
C          111.54276443732996      109.45778382603235       99.85564478453408
H          113.59074621924789      109.94546089451896       99.50161442368174
H          113.30092093330096      108.22540964545708       99.78910101135133
N          111.20506853684967      110.85293546910520      100.04660779287030
H          111.29344165208444      109.16971806725803       98.82851679023267
H          110.93690133217898      108.86519292811685      100.54313565050620
C          110.21106822521276      111.29750878647886      100.81708186500377
H          111.87477509696224      111.51452200009834       99.67125926752719
O          119.23121437617372      109.28377493164147      104.44005307290058
C          110.06197025307068      112.80509223906259      100.85258697222321
C          109.14453327474595      113.27025608134613       99.71808991741653
H          109.61091518246430      113.07893363165954      101.80709535290526
H          111.03970892444327      113.27909719273472      100.75382763179245
C          108.97235378878682      114.78812489021072       99.68743202653974
H          109.55679807473439      112.94051168301097       98.76185255113114
H          108.16497532785134      112.80248950235551       99.83673865768294
C          108.40798812811937      115.35433681738643      100.99651132213997
H          109.93209820368241      115.26299391059426       99.48285021350672
H          108.28895844280146      115.03481676031376       98.87221122858210
C          107.85615701157165      116.74423557908509      100.75438015485767
H          107.60415601029048      114.71537125740008      101.36120935585902
H          109.18962999375741      115.41088706579262      101.75389198164156
N          106.60070718687280      116.75498390098672      100.30938762274172
O          109.43700602529496      110.55829778130482      101.42438023976709
C          105.85077364385224      117.95180508863865       99.98979171717632
H          106.10475406089270      115.87408817890471      100.23116889482904
C          104.35743166334984      117.66024930800727      100.06507230220009
H          106.13375453846845      118.74070266671025      100.69384777830410
H          106.11484105265706      118.29384659904260       98.98108411722640
C          103.50549832646237      118.87146630505411       99.69622733462913
H          104.13446417917250      116.83798025086124       99.38201366458158
H          104.10838050655728      117.32803503647591      101.07503856908058
C          102.02086785006043      118.51417555698646       99.65198710602822
H          103.66768424059146      119.66809189462721      100.42502244608579
H          103.81444682728831      119.24642642978000       98.71844512035426
C          101.14708054040808      119.72434850209395       99.33443546145531
H          101.85899724347944      117.74576515728307       98.89322707532978
H          101.72248830027530      118.09107182329001      100.61418959568674
C           99.66842827858963      119.34329796709484       99.17509855435087
H          101.24494486475666      120.46532135365594      100.13319620290294
H          101.49638136595804      120.18770357265541       98.40763213544922
N           98.78362817191494      120.45598190476831       98.86735793360714
H           99.56643082681407      118.61103346367908       98.36963854632707
H           99.30550520858445      118.88033987618635      100.09668538036743
H           99.07850154015672      120.89741391338738       98.00302459712552
H           98.84707290302117      121.15566264226221       99.59918628985326
O          108.51943183118915      117.76862430668388      100.92379202756003
C          132.33748829511134      122.66876321225340      122.54644373527154
C          132.37900718599184      122.55012975127184      121.03921463713331
C          130.91538703594424      122.70123760331784      123.10254076256501
C          130.23183229306301      121.33275581075468      123.00967738329267
H          130.95103960822303      123.01093518073479      124.14781654368888
H          130.34187794867358      123.45081479225091      122.55548462548430
C          128.72162381004557      121.40722258568636      123.21467482020927
H          130.44908082708568      120.85589967443050      122.05229636527713
H          130.65062310471444      120.68103971579666      123.77950416555377
C          127.88044559888321      121.89890397849955      122.04868473662978
H          128.33745692048998      120.41172316184824      123.45322503349104
H          128.49010126896803      122.04670450846992      124.07069909622963
N          128.51175068330264      122.35634353957988      120.96979572486934
O          133.60308987442647      122.45319602820545      120.57349555319304
O          131.39166545312872      122.54668583378535      120.33077059124201
H          133.63598166747389      122.39783853851718      119.56345846846951
H          132.87783747663630      123.58076506558662      122.80764594425008
H          132.90054339059208      121.82998050177760      122.95919747880754
C          127.84314693256214      122.77436593013832      119.75660090805823
H          129.52308238982224      122.35272265342533      120.91123175514814
C          128.51531361875007      122.12618348402120      118.54900851907485
H          126.79184902452899      122.48567416661847      119.83465336394310
H          127.90491983584505      123.86556131587155      119.67220055031834
C          127.90534991858254      122.57466751987609      117.22398686913488
H          129.57601715035844      122.38518085242694      118.56836325843101
H          128.43921254063375      121.04053045726617      118.64362813127384
C          128.68739054002990      122.00536176950027      116.04206121809561
H          126.86581480647693      122.24635190521101      117.16892459922762
H          127.92622117807126      123.66486226277391      117.17327742727026
C          128.03834649257948      122.34173130971816      114.70157747478376
H          129.70561188588587      122.39865912979553      116.06527420457259
H          128.75883131347746      120.92009031934452      116.14025566691259
C          128.82284061465987      121.76007948840663      113.53365386468583
H          127.02338412228573      121.94467605816645      114.67641610030576
H          127.98764122520032      123.42580733434389      114.58111138204082
N          130.10557135740908      122.42509606371060      113.41349854770321
H          129.00052614439051      120.68906505433448      113.67436700418043
H          128.26315702839406      121.87864874204914      112.59744917955565