3258
 energy: -3427.553328343502 gnorm: 0.000979527432 xtb: 6.6.1 (8d0f1dd)
C          112.13729982917411      121.71899568565394       95.66937638011332
C          111.80883510502061      122.48099890810016       96.94732587194231
C          111.15410330965220      123.82876628117356       96.65126154339423
C          110.93075738420723      124.69110115709108       97.89501344484934
C          109.91760763754387      124.10074150327297       98.87287528841411
C          109.61400965642737      125.04788381769822      100.03215909053617
C          108.65405811274712      124.41217311423932      101.03390792742569
C          108.27893186365007      125.34410031469616      102.18461259816996
C          107.31214887878865      124.65670233555093      103.14511761785855
C          106.85401310134748      125.54350355306852      104.30226235613920
C          105.89199707867928      124.77388697308734      105.20315554297282
C          105.35834534736350      125.55982795808055      106.39841057428352
C          104.49181025822493      124.64732382344761      107.26362205094692
C          103.86646358801026      125.32302681414428      108.48035275912407
C          103.11508391992282      124.29267257328974      109.32059229891394
C          102.49193368885966      124.86342367793377      110.59127188166575
C          101.99127334155480      123.74329300335778      111.50094034409808
C          101.35094693085252      124.25896488530175      112.78620757995479
C          101.02248421805973      123.11886333750689      113.74819982363917
C          100.34264667701092      123.62362516294388      115.01827624154771
C          100.03122332333375      122.51627631768875      116.02605485656777
C          101.27831009658408      121.92782342965643      116.68365512271959
C          100.92496647896624      120.98753730371969      117.83374192791699
C          102.16647229324876      120.41880672706138      118.51614814180280
C          101.81126771870233      119.50886918068100      119.68959452403350
C          103.04716913715652      118.88459499115548      120.33356254460655
C          102.68382863398679      117.97838851135849      121.50742252081827
C          103.91180181303586      117.32291252113417      122.13539267978585
C          103.53008895270584      116.41016946966808      123.29883872428128
C          104.73016626370477      115.85320358354819      124.06576614843327
C          105.58459361829715      114.88652648515126      123.24795603550061
C          106.62343690918593      114.17673219591619      124.11413319640977
C          107.51662331249294      113.23831270452747      123.30541860812599
C          108.47223571313778      112.45662353878001      124.20231447485345
C          109.39264876284872      111.50292721575535      123.44052893520647
C          108.64108222552146      110.40218397040258      122.69117775749363
C          109.52811934825615      109.19655512455380      122.38631318587576
C          108.75069288960424      108.07910614505438      121.69502022998229
C          109.61055855529240      106.85049049421521      121.40839747466838
C          108.80226349415003      105.71701826006895      120.77816395389243
C          109.67639496525732      104.51383583756575      120.43099710198753
C          108.88517769150432      103.35093893043663      119.83357709143237
C          109.79573813744804      102.16700874305643      119.51411871864666
C          109.05648668805701      100.98098591977494      118.89739514501521
C          110.00625545333456       99.81776969715827      118.61512994546889
C          109.32066364028037       98.63464308654837      117.93543845904118
C          110.29093021620045       97.47619580093877      117.70966266153776
C          109.64021887235300       96.28578653427340      117.00949789177953
C          110.60681761591977       95.11219050763178      116.86097084690108
C          109.97406804131511       93.92136723204608      116.14610489576675
C          110.96626937940029       92.78037539668316      115.92638123977055
C          110.32115719359550       91.60686427214638      115.19206034422348
C          111.28791626447668       90.44888342016272      114.92633268239649
C          111.50061479509002       89.50955433660634      116.12176066217536
C          110.72807661959257       88.19201859700475      116.00943947893957
C          109.20590088073405       88.33578048068551      116.01663231624784
C          108.65232804753538       88.71780687825630      117.38741648649869
C          107.15822612600513       89.02839059626899      117.34469528743949
C          106.60536013556884       89.30012771534342      118.74166124301779
C          105.14412683678080       89.75117382378211      118.74687446798779
C          104.89265973544488       91.11803152857573      118.10637053114711
C          105.70088873053571       92.24415007602420      118.75000593694875
C          105.21874563071675       93.61783655482438      118.28829122414020
C          106.16731367969057       94.75383794819568      118.66993693312176
C          106.30382925684486       94.97453035720881      120.17471521734738
C          107.18781619388956       96.18022552815466      120.49108268641265
C          107.33789471835642       96.39723638699368      121.99487305243153
C          108.11988211839459       97.66088524399079      122.35763831608335
C          109.62251950832315       97.55646921619970      122.11043249672692
C          110.36738190206911       98.78807991148720      122.62645601380021
C          111.88138422363129       98.61715021653669      122.51955073482577
C          112.68751909042398       99.69137598165833      123.25294870042275
C          112.74026023750299      101.03035920808841      122.51986667280390
C          113.55463146446685      102.09464582097752      123.26153969814553
C          115.04671029646545      101.77034246052467      123.30761683914687
C          115.88312748368611      102.76841067950241      124.10827832960642
C          116.03960174788340      104.13268896132951      123.44097957393662
C          117.04278358954615      105.00525721225075      124.19141738572280
C          117.16879701888608      106.40275550010173      123.59057505476244
C          118.22013538937043      107.23458298017508      124.32129306077239
C          118.36761394471952      108.65282584648708      123.76965939664017
C          117.11023031831559      109.49977559525614      123.96713890087423
C          117.36815818465698      111.00232866419135      123.86016629102267
C          117.83417123387238      111.44735004536740      122.47589665929014
C          117.96325022775851      112.96643728794480      122.39359988639700
C          118.36784329152124      113.44498663622501      121.00234589966824
C          118.42817023854833      114.96805003271818      120.92090985561050
C          118.70209021879360      115.46171126538837      119.50339271206035
C          118.64482020484603      116.98368921731996      119.40656387308988
C          118.89016535570062      117.47416212423289      117.98302718288676
C          118.73512848761757      118.98711138141790      117.85515095617573
C          119.13290913486573      119.48183687585060      116.46754355784314
C          119.05744843895579      121.00131534609173      116.34528032555430
C          119.63242687490808      121.48962202554354      115.01829283319903
C          119.58194904778125      123.01120908615795      114.89097268091079
C          120.43122058083171      123.54499412147374      113.73691277695663
C          119.95046291537419      123.07371575089124      112.36731438259370
C          120.81845200590232      123.62764437306248      111.23985484829737
C          120.26784763216594      123.31700809637897      109.84723420469129
C          120.09756800429685      121.82886089651564      109.53818964833154
C          121.41675377493357      121.06179828123824      109.50136056001756
C          121.23717570658398      119.59540041452600      109.10137015834243
C          120.73710276708954      118.68315232942004      110.22304433726850
C          121.79694460987912      118.42895743573330      111.29586397699769
C          121.47013934654852      117.24409432574910      112.20699144456376
C          120.32496569059748      117.52671750922423      113.17710204894468
C          119.88837758279030      116.29561773542150      113.97245899585282
C          120.97283917552140      115.72629501094889      114.88457631695032
C          120.45045688693324      114.56174722768509      115.72322707071875
C          121.50745281449372      114.00935072943261      116.67659345959082
C          121.00010225192733      112.79650255632586      117.45497553726334
C          121.95615493691282      112.38602732858473      118.57133520914608
C          121.47977654823852      111.14249612861998      119.32171798949066
C          122.27497235011172      110.93613121957500      120.60879252122120
C          121.81074849883976      109.74101749641024      121.44122125812724
C          122.18757875386503      108.38792571442654      120.84131772863847
C          121.91514867892998      107.24858483035874      121.82134694868505
C          122.37461422930342      105.89483340608470      121.28649725836617
C          122.18775357947375      104.78371058500746      122.31694913612760
C          122.61014137655883      103.42360751186499      121.77592196594144
H          122.77610866451479      105.01819977078097      123.20727185123424
H          121.13852726431118      104.74485236476389      122.61836644013174
H          121.81329820309112      105.65125884589760      120.38229901403470
H          123.43077408656228      105.95458697204565      121.01285026321615
H          122.43687024910619      107.45527813194818      122.75938045355890
H          120.84629763355382      107.20752212793519      122.04467361871515
H          121.62885082149185      108.21648271995522      119.91943456052920
H          123.25040267111942      108.39311439130036      120.58758364829964
H          122.26586581869148      109.81533632024332      122.43227062521458
H          120.72768687073108      109.79020826380376      121.57508618784856
H          123.33318802515451      110.81564501222608      120.36491735970797
H          122.18106952956947      111.83901500945178      121.21848480927096
H          120.42084076131601      111.25297969870338      119.56956634135318
H          121.58063029917190      110.26918284356313      118.67534121586537
H          122.94976618392390      112.20096040929808      118.15618028338466
H          122.04754106372337      113.21598484338053      119.27726720552681
H          120.03036798306412      113.03680215112898      117.89773970764850
H          120.85479087347429      111.95833818494313      116.76975337371741
H          122.40204418337682      113.73201112311402      116.11325996064771
H          121.79639713205431      114.79402646369665      117.38067429521374
H          119.59151200473003      114.89811512532397      116.30786367903526
H          120.10571199653710      113.76373154698317      115.06099682567169
H          121.81792173956966      115.38036331783937      114.28673881853818
H          121.33532026904412      116.51545672618245      115.54779982057593
H          119.02719746067821      116.56706115402578      114.58725219275635
H          119.56229169142955      115.51848858224415      113.27648331698421
H          120.62598613967249      118.31668969161750      113.86899046456965
H          119.46325011176712      117.89077755263811      112.61458697984413
H          121.21688215903895      116.37802438450150      111.59095245128374
H          122.36628563914957      116.99347220775175      112.77788241880285
H          122.74849029174791      118.22455327649860      110.79737474230282
H          121.93303642621092      119.32183273725359      111.90918225344159
H          119.84104391258894      119.11166385028491      110.67197202174921
H          120.45735753250098      117.72278722474235      109.78153923404381
H          120.53758290032981      119.54514114063964      108.26353451871418
H          122.19703892952428      119.20601713599930      108.75162255444752
H          122.07368197402822      121.54649324813181      108.77462922925248
H          121.90779976990285      121.11401817532023      110.47248151483188
H          119.42617115942396      121.37879105218072      110.27040138308408
H          119.62101443094176      121.73875128145470      108.55794748127578
H          119.29651573043510      123.80610185323953      109.74398093340812
H          120.93410893098201      123.75666581668618      109.10102797419287
H          120.88459188062947      124.71408556223346      111.34400705910265
H          121.83188780652516      123.23310930423257      111.33592818184817
H          119.97487906909437      121.98472915705209      112.33804841817735
H          118.91682208303533      123.39323329085960      112.21914673942973
H          120.41502550784688      124.63776169575820      113.76330335676103
H          121.46806462688713      123.23014589520224      113.88168410375815
H          118.54560712913548      123.33109427083478      114.76047993531928
H          119.94701753682587      123.45364964412546      115.82143380213604
H          120.67227988411325      121.16102564235140      114.94167099476947
H          119.07582901335716      121.02924001060909      114.20014217943918
H          118.01831639458068      121.32446553240160      116.43612085111039
H          119.61743734785246      121.45507284790439      117.16681912771253
H          120.15661164398180      119.15960855753619      116.26047996950568
H          118.48597785159329      119.02372130220763      115.71541187851814
H          117.69974971090079      119.26790315286610      118.06272408905011
H          119.36508371801877      119.47578309530344      118.60245177435733
H          119.89781800339780      117.18785730650633      117.67334279435342
H          118.18625549502380      116.98199422470779      117.30736959633012
H          117.66514681668049      117.32893027164316      119.74358289216323
H          119.39280510865230      117.41872806290995      120.07352582556541
H          119.68506280390278      115.11381322893843      119.17920438417821
H          117.95909738592192      115.03364619192641      118.82548570263073
H          117.47664437975102      115.38173838853191      121.26213985378129
H          119.20638140649957      115.33800915271715      121.59237458885335
H          119.34216072857350      113.02720673763328      120.74078416018148
H          117.64167656640124      113.07572092581883      120.27400306448682
H          117.00631379134406      113.42220951145364      122.66059086202361
H          118.70214534008363      113.30630161623060      123.12310236947395
H          118.80040608551704      110.99415725624321      122.24867111476799
H          117.11783377100426      111.10325537719045      121.72597414107601
H          116.44330807337838      111.53178084545775      124.10572603338295
H          118.11653880928513      111.29265673167282      124.60164422712440
H          116.35815126233626      109.21409631496653      123.22938099083598
H          116.69881585129893      109.29317986775105      124.95831021643400
H          119.20369070611908      109.13569663023195      124.28155082389894
H          118.61384109783728      108.60012613481788      122.70742251358223
H          117.95991437365689      107.28958555749669      125.38151903357006
H          119.18535663435694      106.72605221042686      124.24837756410324
H          117.44062012857998      106.32353738978976      122.53555175197135
H          116.20002761974234      106.90072494385309      123.65087917204293
H          116.73364668558489      105.09130400454005      125.23619924672560
H          118.02088359116057      104.51721016107722      124.17997394158088
H          116.38833215165299      103.99502618538607      122.41483727930108
H          115.07583634742154      104.64309842954303      123.40406001979608
H          115.43919343819260      102.89832893840327      125.09815231015635
H          116.87945821774460      102.34070646613053      124.24983087815296
H          115.18288199443678      100.78705520739555      123.76017411669447
H          115.43211902592145      101.72179444304214      122.28599061675854
H          113.41108647734291      103.05311029605491      122.75800738434901
H          113.17383567073492      102.19362080605065      124.28100615054009
H          113.17108850282264      100.87897727170304      121.52795497655646
H          111.72279043467576      101.40478622397802      122.38493279305582
H          112.26440979317145       99.84080094480760      124.24932745615465
H          113.70442118933042       99.31680749207457      123.38035216187281
H          112.14033170634008       97.64746178080424      122.95010915082048
H          112.17622605181860       98.59938286526159      121.46665844547715
H          110.04444863147286       99.66832062996171      122.06729204367583
H          110.10270332540510       98.94850652664627      123.67456108499326
H          110.00583625084725       96.67083372925605      122.62361086816205
H          109.81724832264338       97.43534389214001      121.04309813912194
H          107.71925184152119       98.50525293383694      121.79453671366862
H          107.96510454144799       97.86797286593560      123.41984310258918
H          106.33889935312924       96.46919596018384      122.43367238648050
H          107.82744534620552       95.52770901550615      122.44028008459811
H          108.17151079772248       96.03055646189198      120.04184460954603
H          106.74676011890982       97.07426428052361      120.04200364191013
H          105.31268251616800       95.13085686100688      120.60793101293352
H          106.73407131545477       94.08662389242296      120.64132019629032
H          107.15368522435043       94.53992104200847      118.25037484214523
H          105.80765652571243       95.67817489510718      118.21009113734280
H          105.12593577879544       93.60382973132505      117.19906131819472
H          104.22735622624045       93.81335673046770      118.70419299612048
H          105.61530819941329       92.16912218142173      119.83554094186651
H          106.75440650971473       92.13563594509644      118.48679333599624
H          105.11554019110187       91.07698630411439      117.03837605524166
H          103.82810964253667       91.34661666005438      118.20483009218640
H          104.53991171775010       89.00333142658543      118.22678735152498
H          104.80012783223191       89.78688857786229      119.78389570230347
H          106.68654508217566       88.38429230771048      119.33290797604032
H          107.22073245930238       90.05591266936162      119.23235047896243
H          106.99615576516369       89.89923595699371      116.70677614834943
H          106.62068647678397       88.18639054988897      116.90116679766670
H          108.83412900488003       87.89900858676802      118.08793901644800
H          109.17930074384712       89.59473357549575      117.76828805571023
H          108.90887002458615       89.07948487313020      115.27637607682887
H          108.76166569564855       87.38413546612666      115.71338215027407
H          111.02879046652238       87.69720339487883      115.08207916633346
H          111.02325475408806       87.54093750936404      116.83656634556294
H          112.55964348211639       89.25625547285746      116.19739307627739
H          111.23137340399769       90.02070713604475      117.04638346775917
H          110.91641520243910       89.86404337355665      114.08244095348950
H          112.24688585063311       90.87155100985889      114.62078992794480
H          109.46836925632375       91.25143833606597      115.77186904852701
H          109.93808255130615       91.97149355723116      114.23611392515366
H          111.80874686959488       93.15287878965670      115.33743398030775
H          111.36156730740161       92.44744825849843      116.88794649694017
H          109.12657224008703       93.55476291262178      116.73094992184873
H          109.58798623491241       94.24985506304290      115.17818457672915
H          111.48405612712048       95.43888912006781      116.29936681234044
H          110.94929109811038       94.79975344768391      117.84971897403783
H          108.76727422245524       95.96699690132699      117.58355794801514
H          109.28853988993178       96.59306916493398      116.02181877949060
H          111.13609427552053       97.82620584680969      117.11295449662691
H          110.68899609869331       97.14872057497253      118.67400221065316
H          108.48706560840201       98.29316349818266      118.55397067314568
H          108.91166362924145       98.95635689163041      116.97483411143627
H          110.82205741956375      100.16663762906298      117.97757656570346
H          110.44770003856547       99.48386194796421      119.55696176874410
H          108.26608010806862      100.65019160829507      119.57652160899600
H          108.57912213489236      101.29425560309687      117.96572617392930
H          110.57668262279495      102.49557490528395      118.82424673751072
H          110.28955266185166      101.84063161769416      120.43325378062895
H          108.10940769858999      103.03558320473491      120.53561319703870
H          108.38833129004017      103.68266802147082      118.91889520343817
H          110.44326673031806      104.82403542120858      119.71769072398874
H          110.18737493201581      104.17108197057196      121.33453902899343
H          108.01593435203101      105.40736406840983      121.47193933160055
H          108.31307470787530      106.08477272920429      119.87352068379487
H          110.42540930255042      107.12985335178472      120.73652607822454
H          110.05731481188137      106.49568983855045      122.34061565063908
H          107.91318418075134      107.78705136724008      122.33170731728742
H          108.33486743006080      108.45582151218377      120.75816243249895
H          110.36419314230021      109.50877350747470      121.75473571889280
H          109.94221299112743      108.81342110624621      123.32253164919206
H          107.79909839596027      110.07041036699864      123.30195283910527
H          108.23724650303684      110.79701044255710      121.75770804012596
H          110.00607662069335      112.06996795941933      122.73556515127154
H          110.06390684263553      111.03776225785512      124.16620872031201
H          109.08714782310203      113.16241644887043      124.76580374209223
H          107.88983055262467      111.87877168808305      124.92475372326831
H          106.88783230921304      112.53711345427324      122.75505348604409
H          108.08875215601965      113.81697314396885      122.57650073832487
H          107.24414801237923      114.92104474490317      124.61847288457361
H          106.10946815874514      113.60126686780467      124.88861070045340
H          104.93260116897982      114.14084437052283      122.78687873494025
H          106.09532549304649      115.42716506596578      122.44898856949280
H          105.35142530612212      116.68110124270376      124.41624472493966
H          104.35918201033348      115.32674997918534      124.94927834572691
H          102.90713334448996      116.97680703210317      123.99579951621325
H          102.92678152253885      115.57951212731774      122.92368752805146
H          104.43982200187180      116.74884934821102      121.37203095533501
H          104.58764467579378      118.10237704108970      122.49459567096717
H          102.16031310567926      118.56571714259029      122.26570645861828
H          101.99547781547517      117.20146999860388      121.16547001102941
H          103.59195119594709      118.30494394835252      119.58455821548884
H          103.71307287531151      119.67779507214915      120.68240596997222
H          101.26630823287805      120.08651568295332      120.43999346868391
H          101.14626043324613      118.71460268041992      119.34237108909159
H          102.75182117524014      119.85595311809568      117.78482396875374
H          102.79319264222998      121.23984724682573      118.87272135650586
H          100.32730206552263      121.52939989886579      118.57083899585486
H          100.31378956179621      120.16561161719314      117.45402077969796
H          101.86433914837941      121.38105313567409      115.94260055372068
H          101.89978916227369      122.74162996177199      117.06563861952215
H           99.38988970452500      122.93083710170738      116.80806167955687
H           99.47144353681308      121.71977130522673      115.53026245841656
H          100.98098143046441      124.37121290524694      115.49587002879552
H           99.40925047765755      124.12011751008234      114.74089710259946
H          100.36779449908195      122.40025479489583      113.24957283829350
H          101.94717190851217      122.59958355662859      114.00596476650772
H          102.03593963242902      124.95507795734575      113.27697703023057
H          100.43915611200441      124.81077787318605      112.54608169152651
H          101.26795413249239      123.13164036871082      110.95686303288299
H          102.83463702525007      123.09997924436404      111.76307463662103
H          103.23801648025673      125.45469417619829      111.12674270584449
H          101.66575997381365      125.52930274688984      110.33296469705724
H          102.33421180599049      123.83148824982710      108.71154397816622
H          103.81536573161716      123.50223738496784      109.60246136632387
H          104.64945144379300      125.78417823070308      109.08603606222761
H          103.18415038152060      126.11280676834203      108.15924533889813
H          103.69515418819070      124.22631146433626      106.64558821021687
H          105.10866567656298      123.81371519870214      107.61178236185236
H          106.19172251073958      125.94502251183410      106.98974233076842
H          104.77158662472570      126.41301948632511      106.05166467995814
H          105.04594795474428      124.42868027712214      104.60387478261723
H          106.40715354971130      123.88624777378757      105.57901322431228
H          107.72043980156288      125.87041781291265      104.88100352715408
H          106.36024181878106      126.43514848079768      103.90957802776209
H          106.43253954221052      124.32833381504832      102.58474172020996
H          107.79397358390827      123.76324342812288      103.54988106856459
H          109.18041808615274      125.64480277870560      102.72353682321257
H          107.81649974172545      126.24943802772447      101.78489665115619
H          107.74302545206550      124.11010898027760      100.51082703094410
H          109.11120413501256      123.50744593188784      101.44106188568558
H          110.54619756491066      125.31120650675187      100.53697076294986
H          109.17721736239625      125.97079118226608       99.64345439343234
H          108.99049577733020      123.87672852291179       98.33937979797747
H          110.29890063370460      123.16263252892738       99.27964947728462
H          111.88376384936615      124.83855520292985       98.40910806601553
H          110.57613399600886      125.67455748695411       97.57600866051406
H          111.79245005247668      124.38144859174852       95.95689639573364
H          110.19628991251810      123.65998544447125       96.15271845562468
H          111.13879351920629      121.87190699592527       97.55487278321871
H          112.72570175915583      122.64090896958849       97.52008033186181
H          112.82340349785467      122.28968238197795       95.04689475149087
H          112.60133204996546      120.76373705047070       95.90450399058757
H          111.23254328480289      121.52949366308761       95.09566622573655
H          122.47705707197790      102.65209426012495      122.53095866062284
H          122.01457152541178      103.15670449940794      120.90616481144822
H          123.65757004589136      103.43915478785497      121.48259605074328
C           99.53681583319610      106.38985605610165      122.92684068692944
C           99.06804786303732      107.48936846535646      121.98358147338196
C          100.17436438266729      107.93259963351254      121.03000062648333
C           99.68954037976297      109.00417982517097      120.05777501433263
C          100.81347057200784      109.53192347553427      119.17090368541754
C          100.30868458226658      110.55157984048226      118.15387215522679
C          101.44378891654988      111.15649304722146      117.33393368727040
C          100.93337525960736      112.10776148005054      116.25553092649773
C          102.07744015449667      112.77893136899415      115.50194804318741
C          101.58996342638686      113.58321099557237      114.30029105473490
C          102.74601698719840      114.26067125796067      113.56946950693634
C          102.33653011729402      114.80833964246190      112.20479637605031
C          103.52138201417145      115.42214257474987      111.46498350386271
C          103.18876418042258      115.80863809974011      110.02659685010362
C          104.42970499586288      116.30085624901228      109.28685019025015
C          104.13799897044100      116.70393201178346      107.84374577964006
C          105.39424468097359      117.18335676172740      107.11199286482713
C          106.27542014617779      116.02566552016064      106.64598310447661
C          107.66234003509169      116.47868545823574      106.19709293970791
C          108.47741927556669      115.31644545634941      105.63227657783301
C          109.95970743106503      115.65367936308049      105.49749333920718