3536
 energy: -3716.247087464381 gnorm: 0.000977475713 xtb: 6.6.1 (8d0f1dd)
C           58.14336972443001       58.38422569074039       69.60779717962114
C           57.93029767683270       59.89592525896101       69.52952994681824
C           59.27128194692863       60.59827695187722       69.33039955958206
C           57.21661699138337       60.37010333068012       70.80086618300729
C           56.73097260721303       61.82716785043920       70.80780093111358
C           56.34569230984202       62.21108542540993       72.23666201131604
C           55.54611097360597       62.01440549455564       69.85301795982076
C           55.15947314272706       63.47365604067552       69.57377669605239
C           53.81525988393739       63.50510443729357       68.84506854013645
C           56.23884211683973       64.21025396198915       68.75728097854260
C           56.69289271803216       65.53961294999942       69.37089968011297
C           55.53738285103450       66.53807270812386       69.44753334099673
C           57.82577505204678       66.17977264561978       68.55485709949811
C           59.15484161395823       65.41362676627062       68.48146317537372
C           59.78385519872899       65.25047725096955       69.86219173215436
C           60.08870693003311       66.17544896042254       67.52886177077215
C           61.46429234409117       65.54884718021151       67.24832050582357
C           62.19472639815637       66.43573413075141       66.23960295104978
C           61.30419322433058       64.11641567535244       66.73050460903204
C           62.56996549628585       63.40594822602092       66.23100058048446
C           62.15485159024855       62.02159127446618       65.73856814324057
C           63.63534566719357       63.31373510529315       67.33101019654075
C           64.83814624748679       62.40629213575635       67.02497718184439
C           65.75455730983128       62.36568031552120       68.24759722211104
C           65.59581407635393       62.88524870056385       65.78118967844888
C           66.70188919516431       61.95380676775187       65.25757277720736
C           67.41168202902362       62.65036128845840       64.09543272727646
C           66.11411583672648       60.60205901054879       64.82893298768806
C           67.06352203010169       59.62945110222046       64.11237791339143
C           66.25697897056908       58.42144503649276       63.63507312029776
C           68.20772351933607       59.20106755262639       65.03863727267095
C           69.32455246571520       58.35770542971829       64.40448784578415
C           70.23019053721168       57.82660922497011       65.51536509953760
C           70.12000988202536       59.18083736256095       63.38460471929240
C           71.19198556953506       58.39143809351322       62.60979876308478
C           72.59506376821811       58.74671708261929       63.10249430490246
C           71.10243541336359       58.66227744115847       61.09991829624165
C           69.94632682914276       57.94156640146812       60.39092946946723
C           70.27578121504114       56.45763179369612       60.22657665007262
C           69.66600202905855       58.56915871687174       59.01119420098585
C           68.42188849990481       59.46533391645075       58.90854742459962
C           68.50799450732862       60.67756159099393       59.83516291880732
C           67.10086678700478       58.72730972365797       59.16628249599355
C           66.80314996894184       57.53460031656608       58.25152736981205
C           66.88337488617690       57.93024939953156       56.77656438293059
C           65.40150833637597       56.96756125568876       58.52684121288684
C           65.15604312925268       56.28123713252543       59.88055017622886
C           66.03578906495198       55.04553216986502       60.03291207624186
C           63.66392714228638       55.91723135224440       59.93758672950828
C           63.17914929865086       55.05709637040409       61.11538497813422
C           61.68814810383174       54.78955762934385       60.91418733762013
C           63.45263685682384       55.74221209226361       62.46009626377852
C           62.82125353044336       55.09487782431608       63.70468509718658
C           63.14961684936907       55.96211127145805       64.91861425766761
C           63.32513131070763       53.66204369179614       63.91046721047732
C           62.70884301659211       52.88150620906470       65.08454389263052
C           63.44677496345560       51.54833850197172       65.21310571758154
C           61.19486678784076       52.71034553378883       64.87739649571817
C           60.47273852973399       51.66295505519815       65.73987320272127
C           58.99855623197052       51.62858551638634       65.33372144006354
C           60.61151262956930       51.96624065892156       67.23609662479015
C           60.20171265710442       50.83350104775210       68.19340113819595
C           60.18462516273716       51.39664919723605       69.61479696315511
C           61.17620857201980       49.65380496970919       68.08026660532622
C           60.84340125514994       48.38718490325405       68.88645232303438
C           62.15361118546527       47.67765530547641       69.24092069686340
C           59.94759976313005       47.39347420500856       68.13039913870480
C           58.45134254908570       47.71955714778591       68.02243490221038
C           57.83181569032179       47.94198232329705       69.40056545614894
C           57.75584455528070       46.55442909006880       67.29896305000402
C           56.32844908735722       46.84888568768163       66.81775418393111
C           55.58582507128600       45.53858081848200       66.55779627858283
C           56.33132016732009       47.71704894374731       65.55362051026262
C           55.04758606254376       48.54006811943899       65.37887036886470
C           54.94337375206454       49.01946695550251       63.93235405584308
C           55.03039773588733       49.73086981680424       66.35427513750192
C           53.68315159064931       49.99633774057238       67.03413745591337
C           52.56969323714673       50.22825451482390       66.01434351496519
C           53.75664286921946       51.23505216157358       67.93993642625991
C           54.78653255612413       51.21073543674594       69.07446385363285
C           54.47464039494280       50.09830093865106       70.07493088494508
C           54.80401302121176       52.55512749541781       69.81945932155806
C           55.24740288935747       53.77692614408856       69.00552869114303
C           56.67651028616294       53.61142865033105       68.48866096266156
C           55.17140107072998       55.05972919684447       69.84783558903082
C           53.78934434925107       55.42947153928328       70.40106331481594
C           52.73168567162663       55.47776314119495       69.29895254762701
C           53.83112015676817       56.79070053131237       71.10892365553399
C           54.74323361581234       56.84196516089821       72.33315485471451
C           54.52261157380754       58.11852450463106       73.13700861563005
H           58.75661812460817       58.13245789986316       70.47067224630294
H           57.19154557016436       57.86599701868800       69.70383038605344
H           58.64474446446532       58.01876527441180       68.71487389699240
H           55.20264832414314       58.16114994274625       73.98455199917248
H           54.69491307223577       58.99505255462860       72.51600396697080
H           53.50261478931321       58.16398695041443       73.51332374120557
H           54.13953940640462       57.55858894417074       70.39466528830566
H           52.81494483369092       57.03292277501772       71.43197080061579
H           55.86657553876574       54.95722204123508       70.68329874689246
H           55.51936631554781       55.89072117587335       69.22786501866173
H           54.58887988831317       53.89909756276503       68.14242229767302
H           56.74381319085955       52.79625273259178       67.77377354717102
H           57.00996422014310       54.52167792810667       67.99360596654088
H           57.35570878982006       53.40692629033308       69.31364684576693
H           53.79849995393265       52.73191738890133       70.20540098607151
H           55.47279612482169       52.46272645211791       70.67940677239839
H           53.96808386970162       52.08786690247405       67.29363862174192
H           52.76949079324616       51.39454889001819       68.38334153243665
H           53.48839331448143       54.68086459163213       71.14134916782658
H           53.03858543621831       56.16556624383828       68.51400442056766
H           52.57243536394638       54.49568582772765       68.86176999120374
H           51.78266823777385       55.82429780863890       69.70394886358280
H           55.78163037310802       51.02933245155295       68.66254522419833
H           55.20432162259682       50.09455209149764       70.88193566580945
H           53.48638914012532       50.24193247895892       70.50767246489585
H           54.49758852590858       49.12339115034177       69.59536362197959
H           53.41510924136468       49.12021898338856       67.63391842577349
H           52.82233016724800       51.06120956486514       65.36175577133307
H           52.40313333685258       49.34538858869714       65.40413493037070
H           51.63967861342092       50.46329234098135       66.52628886198875
H           55.77000635522767       49.55107736770795       67.13462865595014
H           55.33439027536820       50.63279206119237       65.82011967326554
H           54.19368663681374       47.88950560421956       65.59137853848269
H           54.90989368350158       48.17284033954198       63.24901705039701
H           54.04947458755092       49.61607608626169       63.78064269674827
H           55.80883010520219       49.62954023249899       63.68018399684760
H           57.17726913594763       48.40664378009225       65.57583492730366
H           56.46923337320393       47.06623924312014       64.68680872232663
H           55.79144764555809       47.38240980030427       67.60662769637256
H           56.11979053843466       44.93777044751721       65.82475572109982
H           55.49688553684404       44.95846084735528       67.47356922410493
H           54.58435170722538       45.72973108924008       66.17917845966191
H           58.35515432884556       46.26028765799742       66.43377276636433
H           57.72909633779663       45.70161258447713       67.98139019708468
H           58.32454888727940       48.62775296265688       67.42671475379639
H           58.09177560590663       47.12234310973270       70.06757175264684
H           58.17807801327852       48.87261559742487       69.84143488560308
H           56.74861580547610       47.99518669413580       69.33668509791889
H           60.34833165507587       47.26482339230331       67.12144626208830
H           60.02634248473512       46.42532176401281       68.63374162673995
H           60.35911325010326       48.66163732922704       69.82455918918771
H           62.79665125714885       48.32756628293760       69.83112366700450
H           61.96365660524218       46.77602328114616       69.81973201305985
H           62.68494338982280       47.39812911929110       68.33359033544404
H           61.27052062812327       49.36295477618145       67.03277774160084
H           62.15543565910161       50.01828810668168       68.40398041000326
H           59.19149067038050       50.50067862223150       67.94668314269981
H           59.50105076063412       52.24048686911713       69.67866160143799
H           59.86433233900889       50.65214803062128       70.33856874041301
H           61.17807454252858       51.73958285988626       69.89781751348758
H           61.64770625061703       52.22572795523723       67.45822891457043
H           60.00204460646275       52.84603213500868       67.45890411567079
H           60.90261645946967       50.68312867106325       65.52064558745951
H           58.53355325612362       52.59714713828129       65.50812632269229
H           58.89582523407278       51.38355768965103       64.27854736270206
H           58.45380336305886       50.88024796894001       65.90359281661536
H           60.71598236641150       53.67626438372017       65.05222456329912
H           61.02388452191568       52.44541668067272       63.82947482181097
H           62.87950857189349       53.44262053844204       66.00752877058746
H           64.51700647903813       51.72639540600647       65.30226425632787
H           63.12577330879185       51.00036007558322       66.09407462992642
H           63.28170591089584       50.92805848905275       64.33632333723914
H           63.14702811060057       53.08697366610198       62.99990355646488
H           64.40584423880735       53.70662348369216       64.06292763889807
H           61.73683770456853       55.08406620229379       63.57769327707044
H           62.87394968988264       56.99822206706369       64.74056029816553
H           62.61596449513718       55.61913377331205       65.80115791507662
H           64.21687802999472       55.92819339104756       65.12215152677781
H           64.53177315582560       55.79957022628960       62.61405013030643
H           63.07910913475756       56.76763149494378       62.39720291593201
H           63.70500781608207       54.09907920907021       61.08348866178512
H           61.11957721146037       55.70685733285235       61.04579064843278
H           61.50071139515937       54.41816805597117       59.90874346287728
H           61.31847243474499       54.05017724580280       61.61797582031901
H           63.08373799824854       56.84514626826096       59.93116193627066
H           63.42227350203698       55.37682567590437       59.01744237828468
H           65.38244067193973       56.98058099797064       60.69002025409669
H           67.08479432907716       55.31139748366577       59.94418857871757
H           65.89749956078684       54.58405077963630       61.00619015473854
H           65.79519964215247       54.31466374137234       59.26404657326712
H           64.68129382259502       57.78329412182057       58.41819977971121
H           65.17648467725239       56.23433742647257       57.74792563970446
H           67.54248346181642       56.75031736735405       58.43158968268129
H           66.57395725363999       57.10040961523487       56.14492715739915
H           66.22624838772893       58.77263892096900       56.57181534107538
H           67.89521061141799       58.20622324499288       56.49218476140543
H           67.07971936924024       58.38798173182063       60.20270730839044
H           66.29351313199240       59.45391423439103       59.04964099269153
H           68.40114179664397       59.85008748105903       57.88271217296207
H           67.67133684631294       61.35040167894245       59.65692234250574
H           68.47533013138519       60.37360730560428       60.87762786716655
H           69.42929303619539       61.22955744762537       59.66304129714700
H           70.53327988997907       59.16198668105601       58.70947601809166
H           69.56468285526908       57.77283009927772       58.27251652226072
H           69.05080472418345       58.02058460268894       61.01249611965547
H           70.49431655374417       55.99695704431475       61.18747101842971
H           69.43922254791768       55.92368761934701       59.78128195326759
H           71.14349791678771       56.33013778416672       59.58178342848873
H           71.01057286431097       59.73963879908676       60.95185673019974
H           72.03671069783002       58.34882316620899       60.62654680067251
H           71.03397281887626       57.32241125938825       62.77988785931267
H           73.34232530819301       58.12166657221614       62.61705599472713
H           72.82146087391553       59.78681549602185       62.87482484761586
H           72.67928574874550       58.60546341568519       64.17671037325090
H           69.41541186468221       59.60319325973204       62.66917960638833
H           70.59142512981289       60.01954161227983       63.90209818488437
H           68.88116555222510       57.49924014385783       63.89057090118082
H           70.71848368507079       58.64983927370572       66.03347192294879
H           69.65022550220698       57.26552421663423       66.24567745882757
H           70.99563798567287       57.16689905237383       65.11530619770558
H           68.67092364154163       60.09141307070986       65.46787514628694
H           67.77116638912642       58.63104164783264       65.86333351545639
H           67.46989167496808       60.13122283119619       63.23107992774840
H           66.87633196323051       57.73625258572505       63.06265241183329
H           65.84064315346920       57.88291042095591       64.48400801887750
H           65.43090495517234       58.73636639007184       63.00159273605804
H           65.72084287911839       60.09347108481539       65.71178760096478
H           65.27232063992052       60.79979385558027       64.15907754029504
H           67.43126208572089       61.79467804159396       66.05631410042324
H           68.30499449326048       62.10914102522064       63.79605600872820
H           66.74902593873665       62.72923696277930       63.23602333162520
H           67.71288006217287       63.65491071741882       64.38497776685051
H           64.88502310963848       63.03959371726825       64.96775617711413
H           66.04284777158821       63.85643609264273       66.01051328645281
H           64.46498048528606       61.39501525293981       66.85662770744334
H           66.18725177239244       63.34638202637581       68.43594450948862
H           65.19466733225164       62.06501755134782       69.13104300329269
H           66.56410597853737       61.65451084689160       68.10503558917203
H           64.00736721676655       64.31626527547796       67.55227458727038
H           63.15437780521657       62.93555159432830       68.23760396594052
H           62.97109354378412       63.96500116386499       65.38144386986394
H           61.32107727683591       62.10807672859029       65.04675253696546
H           62.96975292813385       61.52333874514314       65.22345812096306
H           61.84125173845073       61.40234483740191       66.57642466650447
H           60.87631376778408       63.50239456276044       67.52576784548783
H           60.58637580080076       64.13584325439180       65.90661195919411
H           62.04488538161125       65.53600328977471       68.17483396877623
H           63.22378218675603       66.11528654646480       66.10231393745788
H           61.69059258319453       66.40507030592929       65.27566126688406
H           62.20708675862886       67.46787506907540       66.58380682686655
H           59.57476797278968       66.29308501863960       66.57053251683205
H           60.24696803345822       67.17760348348205       67.93613666236364
H           58.96214344268251       64.42365117449260       68.05984535105722
H           60.72035422701032       64.70252423782081       69.79766206486696
H           59.98445756439546       66.22418020043780       70.30420974843206
H           59.12307059408337       64.70099702483415       70.52794735042926
H           57.45842002313563       66.33044984439776       67.53587940198034
H           58.03068282327276       67.16796679363327       68.97530403974288
H           57.04552012390745       65.35226746005102       70.39006850563547
H           55.15733055736531       66.75156311350418       68.45056442426666
H           54.72067731149959       66.15302540547729       70.05167155403397
H           55.87214152108960       67.47327294230921       69.89176893299376
H           57.10896165964699       63.56285067825834       68.65647211090570
H           55.86605957884912       64.40164304109494       67.75000807322745
H           55.03209573556331       63.98016400957980       70.53400540665957
H           53.87373853333752       62.93530744300028       67.91953703010515
H           53.03089399356265       63.07205786579381       69.46274789209124
H           53.53072296858114       64.52495243146737       68.60033882850772
H           55.76922757235042       61.53652607400992       68.89774418698151
H           54.68273862914884       61.49914236397377       70.28263097444007
H           57.55283477329144       62.47688255368082       70.49534209655889
H           57.19299099691317       62.08325705133957       72.90712437236697
H           56.02780290776674       63.24878877370648       72.29344414640185
H           55.53071916298261       61.58382298174232       72.59324984681155
H           56.35240181616641       59.72337202850903       70.97262368209348
H           57.89964536946509       60.22712065691265       71.64211466017335
H           57.29950577136321       60.10445968705944       68.66002456807725
H           59.14316090386183       61.67190461981943       69.21577938247168
H           59.92326023721684       60.42079202098420       70.18343063009631
H           59.76376229887828       60.21960242533135       68.43693322927062
H           54.54261120829154       55.97670790210105       72.96940315034892
H           55.78852419509568       56.79412336268028       72.02382080623129
C           60.09477474906939       68.82198534662291       40.13098931071141
C           60.41373375421419       67.33265066181265       40.24061155911751
C           59.84313334595311       66.59181128702360       39.03209233246788
C           59.85233158496523       66.73657368146324       41.53750724784729
C           60.61348089173509       67.12048888853292       42.81432673652657
C           61.98390276944778       66.44554108338102       42.84456198534006
C           59.78306781695278       66.71015146812486       44.03817907504771
C           60.31657223001904       67.21582002428659       45.39181070053501
C           60.42315088020023       66.05512376728718       46.38124161531955
C           59.42610484497229       68.30129745048239       46.01079311179508
C           59.32539398920258       69.61863446434249       45.23632316443932
C           60.69023987698734       70.29860199492185       45.11616284478121
C           58.37268585933928       70.59668221525186       45.94277276395561
C           56.90567211162817       70.16994500378746       46.10452618953968
C           56.24603196947065       69.91739519469098       44.75183852287859
C           56.18162724575070       71.27557866792620       46.88930444601437
C           54.72561992216627       71.00857171001154       47.30194269484883
C           54.13912423457864       72.30142885288993       47.87121504526279
C           54.63993527528115       69.87298296590720       48.32753676021721
C           53.22950415128167       69.33565753453443       48.60370465388323
C           53.25181754750089       68.46001711538133       49.85722201227905
C           52.67966806830943       68.53114182339033       47.41843503810784
C           51.14636081881483       68.51388747150543       47.35935755941396
C           50.67483736693589       67.31060642610655       46.54604485199115
C           50.61040456801797       69.81829200570584       46.75298274484097
C           49.17012664264317       70.15609942906451       47.16813396943996
C           48.53593095996328       71.08066866543741       46.13055009533420
C           49.15741645546014       70.80267441770934       48.55924115619278
C           47.78648108405853       70.85306399427286       49.24775804476413
C           47.88354669469398       71.71758509824339       50.50579157181929
C           47.26731272440706       69.44585385241554       49.59684935808826
C           46.10447775277580       68.96488336909128       48.71888687098385
C           44.80476752805892       69.64323652594024       49.14908337245061
C           45.95402893660875       67.43886569057615       48.80319176247817
C           46.97099359704249       66.66671330353495       47.95521534666788
C           46.58467531912714       66.71621596651866       46.47679379182514
C           47.08164393914984       65.19753351294781       48.38142445422216
C           47.70505660660399       64.92069763694784       49.75606043277791
C           49.11140528070087       65.50410778381030       49.86061525409294
C           47.73019146248758       63.40141645647177       49.97779367128157
C           48.12033586745221       62.96041257187252       51.40044488872891
C           49.47386485712706       62.24806810411815       51.39802326743795
C           47.07483862941864       62.02354276330487       52.01791449712807
C           45.70214535410523       62.64208385041465       52.32366313223367
C           45.84227365009576       63.81265595958108       53.29393734233862
C           44.79010574379591       61.54451957773011       52.90492493825517
C           43.29923214331159       61.57330143866050       52.52178261466214
C           43.10622490326075       61.43144737102354       51.01304885444326
C           42.58488903678060       62.81301295492340       53.06878570411081
C           41.04819642360641       62.79787868127168       53.00666632125628
C           40.54189084869382       64.18981369355471       53.38493596850019
C           40.47375654205861       61.72503545068604       53.93829550370881
C           38.95610792363495       61.51183190048046       53.86475160666071
C           38.53804334264532       60.54456495115200       54.97200323814306
C           38.51138258936979       60.99458855906779       52.48262902764186
C           37.49715752129025       61.91136094365498       51.78820735704975
C           36.11868421209743       61.75416664250668       52.42921429109799
C           37.40151770129335       61.62551933644103       50.28314357307177
C           38.57959211016755       62.13433089771912       49.44306996557543
C           38.64453931612701       63.66210921540016       49.44240145333688
C           38.45677076564890       61.64328549559352       47.99276897077117
C           38.86121482679750       60.18470440455679       47.72663714999592
C           40.37215159460123       60.01564047751513       47.85909978122254
C           38.37428099670937       59.82390251531329       46.31355729062710
C           38.85134928991084       58.49111930580639       45.71926570816566
C           38.36771488259210       58.40496258981225       44.27101183752252
C           38.35953493840429       57.29885220766185       46.54816888899730
C           38.73836013907282       55.90782241624209       46.01238543727640
C           38.06317498911876       54.84293712475699       46.87642521481036
C           40.26088958585868       55.73096894752440       45.98620654487300
C           40.80107693387811       54.40894132421658       45.41621131853460
C           42.32781108021184       54.45288729287562       45.48032636645132
C           40.30419816794849       54.19589287231733       43.98003029182787
C           40.90979157419612       53.01901426218809       43.19973857353329
C           40.40838157546146       53.08714616422554       41.75595271649191
C           40.54315016484081       51.67010816443975       43.83007010245365
C           41.39072815816516       50.48194510250892       43.34458782582435
C           40.63409121161831       49.18088219735876       43.60657620421076
C           42.74691457057045       50.48019362598984       44.05899742350709
C           43.81000505324373       49.51647506815222       43.51015198909892
C           44.93075011949662       49.39505320096510       44.54154580706260
C           44.35478172932808       50.02025155406794       42.16816113325919
C           45.33986126795386       49.08433202428288       41.45389658225723
C           46.07691498506882       49.86858286318844       40.36781518069238
C           44.62610768635355       47.87158442294988       40.84424829678018
C           45.57600749020025       46.71963842355047       40.46129082568039
C           45.34880084584007       46.29200992077023       39.01127781954153
C           45.41425342585658       45.50581767473169       41.38507871140769
C           45.82724181467643       45.77577290086964       42.82984802349341
C           45.69716376654370       44.52774923165065       43.69496624321962
H           59.01760444394895       68.97695135148606       40.11791478773849
H           60.51204406450285       69.37565865334659       40.96814951377119
H           60.51049353130399       69.23303888312343       39.21359109287700
H           44.67168284106739       44.16440958449110       43.68944237145702
H           46.34174700621490       43.73314184942694       43.32434349503365
H           45.97418705467163       44.74429442195791       44.72477856965774
H           44.37335789950144       45.17269163788499       41.36154910517966
H           46.02685507684754       44.68769767135640       40.99692045638486
H           43.88079705949821       47.49883205932669       41.54722195126540
H           44.08359178145707       48.20799459787610       39.95807627826039
H           46.08156231970052       48.72848792823908       42.17347346916212
H           46.75598501878854       49.22500549601749       39.81419605236238
H           45.36733562203049       50.30152774669919       39.66533444705414
H           46.65864391495806       50.67655609783856       40.80706932124767
H           43.52192206636382       50.21363847324490       41.48916616279411
H           44.85597460621240       50.97397207646208       42.34920158297129
H           43.16756831709461       51.48767231135746       44.02935020812481
H           42.56545284946282       50.23608613300965       45.10857539705251
H           46.61093194570142       47.06716231440544       40.55100525330682
H           46.04280150760821       45.50294584289147       38.72837148739447
H           44.33540615012330       45.91782742954408       38.88011746662786