3864
 energy: -5104.219249399178 gnorm: 0.000763079037 xtb: 6.6.1 (8d0f1dd)
C           31.02302259173610       65.49166355922451       46.30778308918342
C           29.91540062899772       64.65912612221626       46.40770797994330
C           29.69942823237965       63.72228871809675       45.40444111419617
C           30.56990359484939       63.61960237185777       44.33558794990758
C           31.67218124646442       64.45233509900098       44.24570301405934
C           31.89399632090354       65.39254148734787       45.23680935383781
C           28.95793898541968       64.80496534513134       47.56259453486625
C           27.64047455227240       65.41077665777084       47.06879659511015
C           28.69474988326949       63.47238881622008       48.27513769187089
C           29.98151891155153       62.76339502488646       48.72355425643380
C           30.83313532267426       63.68856320862736       49.55278130381433
C           32.09775960804595       64.05879745306993       49.11416850797598
C           32.86186579063834       64.96256405143268       49.83178334699106
C           32.37519859319399       65.50695814535840       51.00734149075217
C           31.12245615308580       65.13011723273698       51.46502083758866
C           30.36155827773004       64.22585040122125       50.74583720521544
C           29.64700600653848       61.45042464935734       49.46486626558152
C           30.23541996379213       60.21928748499773       48.76170812025360
C           29.75416730853282       60.13668668405054       47.33511429276692
C           30.65283540459616       60.24064031689950       46.28040709900884
C           30.22384752224031       60.16589787984843       44.96683790451283
C           28.87976597665871       59.99544115486506       44.68577702771777
C           27.97156639774440       59.89991808862344       45.72654603902610
C           28.40663625354614       59.96906084001806       47.03789034817905
C           29.89146084965939       58.94292201051759       49.54247950818979
C           30.51440492373084       57.68825309190396       48.91719236405657
C           32.01132786301459       57.81220116716852       48.81746499395742
C           32.80516560919594       57.92283874948716       49.95319183883572
C           34.18233610545214       57.99957783856391       49.84765343354554
C           34.78824900814118       57.98008997015697       48.60296210410047
C           34.00455247318842       57.87601425202695       47.46647775154668
C           32.62918272959017       57.78561334963003       47.57500012203034
C           30.14360615257170       56.43705100136774       49.72391555769536
C           30.76222379421458       55.16984926313999       49.12180378058810
C           30.26425194674379       54.92135425756836       47.71833804005097
C           31.16953207387862       54.75354245348845       46.67720134676679
C           30.73991840196110       54.51517715243887       45.38418148329730
C           29.38576149341298       54.43742130740343       45.11006899523181
C           28.47172083371716       54.58996247255366       46.13873658489909
C           28.90765182460959       54.82678047224998       47.43056504031679
C           30.48419171545203       53.93022559844575       49.98538017855599
C           31.26694915806953       53.85980286283938       51.30971226160171
C           30.66641036676396       52.73917716607097       52.12185774730649
C           29.84612409445757       53.02187406652036       53.20682379206460
C           29.23003142410426       52.00710446096072       53.91796544331586
C           29.43956799848983       50.68462113064973       53.56498978949932
C           30.26242002680118       50.39102301596359       52.49098653982762
C           30.85933835008964       51.40830893483265       51.77090978923908
C           32.77174665673577       53.67212037933898       51.07387092689956
C           33.55019882015888       53.43261619502668       52.37578223282823
C           33.26134013050527       54.51318502322311       53.38736281951563
C           32.78002258455697       54.18964441045623       54.64859595107601
C           32.52293174416536       55.17453683048065       55.58638318753515
C           32.75112737966505       56.50465900782562       55.27813411065065
C           33.24559545871134       56.83827003603822       54.02739467933672
C           33.49482268984728       55.85121545362123       53.09199510343462
C           35.07004169909411       53.38223288670098       52.14512310826209
C           35.54987033831708       52.20225346352849       51.28961220405483
C           35.16759666972555       50.89196114756059       51.92971031092310
C           35.72212432430118       50.50169478863575       53.14318844709427
C           35.36012796232074       49.30406669318423       53.73230861368445
C           34.43436377521548       48.47490501036008       53.12166233098818
C           33.88841024179205       48.84548196815726       51.90656345859806
C           34.25701262441660       50.04125431294832       51.31639610496319
C           37.07209395711983       52.25568521647852       51.07313580552332
C           37.53798562128939       53.39647443047934       50.15467508837103
C           36.77848056926889       53.35691503910596       48.85335183608275
C           36.95289635292799       52.31757379064907       47.94465754332191
C           36.22734348760029       52.27762400941112       46.76717761114355
C           35.30446881659887       53.27112944851062       46.48381701988966
C           35.13166421181005       54.31657808071137       47.37382449917695
C           35.86478702412794       54.35815281630413       48.54583073713247
C           39.05447828736714       53.29625962728930       49.93043274980616
C           39.56123863292955       54.34211635896751       48.92415803756965
C           39.60551266141331       55.71248366520652       49.55442534856976
C           40.51142218388001       56.02593955290239       50.56186576084689
C           40.53313029443880       57.28720784151284       51.12959487782265
C           39.64347195657884       58.25949948677339       50.70874655849583
C           38.72884612935975       57.95608118084311       49.71629278546055
C           38.71240016851449       56.69539962329575       49.14544056733885
C           40.91265840512021       53.94009558346006       48.31128242171469
C           41.09214410446958       54.54730847207934       46.90909810247361
C           42.54543302819145       54.62257251450031       46.52143381709163
C           43.09176272072173       55.80486009222003       46.04263147931717
C           44.41853992403039       55.87195452340379       45.65732411026479
C           45.22231578022727       54.75010716358631       45.74838766589986
C           44.69306467028509       53.56971553079939       46.24092444107923
C           43.36606374254147       53.50543276000715       46.62296276247681
C           40.30795584851025       53.72950314072772       45.86719328328213
C           39.98021573831382       54.51806963621875       44.59054283436879
C           39.24449904879553       55.79426594363156       44.90894032914690
C           39.72323984442431       57.02189076314816       44.46722710946163
C           39.00541431805735       58.18558666533124       44.67995593726144
C           37.79856621265312       58.14457622675445       45.35729128417696
C           37.32291343533164       56.92991923392792       45.81963903408192
C           38.03530511326299       55.76666599378310       45.59351971542561
C           39.11682854644325       53.64855958926308       43.65526295497737
C           38.54342349665320       54.42933570351802       42.46559165176206
C           39.58766902289228       54.75705196028110       41.42468276039647
C           40.28932656819615       53.75925321252695       40.75869454572700
C           41.19810622830222       54.07141154434644       39.76349325349269
C           41.41495522080233       55.39037425311191       39.40575828834208
C           40.72385718609923       56.39482917525883       40.05935838688383
C           39.82339582728276       56.07769738696668       41.06147574619094
C           37.38094732051523       53.70839001111604       41.75598952593405
C           36.11051855131068       53.51406457100904       42.59281930474307
C           35.05745700378462       52.70658899032934       41.86665077559378
C           34.88440402437814       52.73317226350572       40.48814173574573
C           33.88520912697783       51.98789690028288       39.88419838854654
C           33.03827240496691       51.20056396364090       40.64364388010529
C           33.19717825750211       51.16460598023161       42.01867996509624
C           34.19421454947158       51.91178587846938       42.61638454240124
C           35.47340388763464       54.81731023469568       43.11224609375961
C           35.03536613921597       55.81717092927209       42.02417596917785
C           33.58783961804142       56.19360363857325       42.21615246935601
C           33.16636175663158       56.87695353838367       43.35184097214954
C           31.83643144491960       57.20951373153773       43.52708183893310
C           30.89981534486698       56.86083106471506       42.56911880376838
C           31.30393070234362       56.17031795786301       41.44022296496625
C           32.63720684675515       55.83956873849291       41.26818232181219
C           35.93701013611127       57.05816564488256       42.02966528498914
C           35.52678407179349       58.09225779840402       40.97690752118110
C           35.51462657770833       57.48692466503229       39.59657614552695
C           34.35320998070883       57.51086152986124       38.83453799627225
C           34.31934668258345       56.94567288240027       37.57156533761790
C           35.44918981223793       56.33896466824665       37.05163752938161
C           36.61387247960685       56.31001412596189       37.79988009709988
C           36.64655889325806       56.88301110982968       39.05846832385116
C           36.45588450787555       59.31491018933545       41.03741466075402
C           35.91029458100736       60.46891985705035       40.19124945794824
C           34.50251986560701       60.83037460064316       40.60039347195837
C           34.17935741901583       61.12567282741953       41.91958926491650
C           32.88702622512670       61.46355583963459       42.27518173961175
C           31.89111526301525       61.51175483999631       41.31473270974045
C           32.20008524976808       61.22897367968432       39.99609085639528
C           33.49604242458831       60.89488812018500       39.64515457462768
C           36.76862487240054       61.74341798768251       40.27870552270453
C           38.18777858183687       61.65009399355368       39.70137224949996
C           38.90866104774388       62.98668902301485       39.73613217877502
C           38.34492079799023       64.14758379215353       40.25187006522198
C           39.03317444994752       65.34860526581636       40.23028860350335
C           40.30057737507627       65.42161623184597       39.68430334419557
C           40.89079118886743       64.26737197734056       39.20048039392351
C           40.20940407956408       63.06641544950649       39.24514386460494
C           38.21345650123943       61.03353831691594       38.28861714687987
C           37.34085436485195       61.74205081096130       37.24336438157771
H           29.40232785660389       65.49782181569017       48.28661406484365
H           28.06044148882452       63.66778625870219       49.14258508692328
H           28.14843818213577       62.80131547771308       47.60916409077862
H           30.54758165888190       62.51831823304965       47.81925984417009
H           30.03972591908194       61.48507640653354       50.48191613773740
H           28.56473218329721       61.33351805223428       49.54242578213407
H           31.32604207260385       60.32861484911651       48.75029909120993
H           30.23890469902931       59.05361050264430       50.57116534334448
H           28.80770323169257       58.81661076225588       49.58455053088610
H           30.10915503526976       57.57520464226830       47.90401003560628
H           29.05656285995886       56.34488284533300       49.76061249989156
H           31.84466390235059       55.31423436810213       49.06606795851880
H           29.41456094161388       53.89411148553818       50.21077405529265
H           30.72505920865019       53.03913862848615       49.40171184661578
H           31.11695826629384       54.79230920733525       51.86321844079625
H           32.92462368136854       52.82776369324664       50.40182872834250
H           33.16516097652281       54.56089067988106       50.57870695594480
H           33.23030182902954       52.47402447625312       52.79979160519650
H           35.38004836605274       54.31390930626230       51.67242832039757
H           35.55484674168396       53.33257636933741       53.12227735296396
H           35.06667132911211       52.25888121054946       50.30879566732172
H           37.33278740783008       54.35357076532232       50.64402639747227
H           39.55674957610772       53.43083355705228       50.88898588132663
H           39.29747997932207       52.29699592079162       49.56202208921806
H           38.83163081547742       54.38070975752243       48.11037074500781
H           41.73160579942461       54.27035310025746       48.95247142263807
H           40.96789306516840       52.85156254928128       48.23606610978818
H           40.68849987323811       55.56642698693621       46.93087488067845
H           40.88699937696833       52.84243051467416       45.60095166633243
H           39.37363290742748       53.38447751808161       46.31441946680122
H           40.91563096690498       54.77184002531017       44.08005626968831
H           39.71104849969233       52.80617050351014       43.29830676806793
H           38.28835220903308       53.25052346437373       44.24362802573892
H           38.15519042448896       55.37285503195649       42.85380523261600
H           37.14662969544064       54.29195373460726       40.86301472124637
H           37.71713524164920       52.72245450386177       41.42360006115769
H           36.37672575932231       52.93922559989576       43.48721947181577
H           34.59310978138829       54.53433985911168       43.69445461686973
H           36.16817068345724       55.30176300176221       43.79934388527936
H           35.11776264939296       55.34303459797558       41.04281911591010
H           35.90588991899338       57.52919962978570       43.01432429378847
H           36.96296076737224       56.74627272871670       41.84210904475353
H           34.50886028978271       58.42447433758962       41.20976721330847
H           36.55796646776395       59.63240471292000       42.07646181531108
H           37.44533826376968       59.03545746187984       40.67379250440023
H           35.86672686507443       60.13364654844739       39.15214419674503
H           36.22704785537756       62.53535802465307       39.75689590048441
H           36.84273886082187       62.03694098738133       41.32742917191810
H           31.20569080843064       66.22635643562876       47.08028699342991
H           32.74417074582562       66.05789477724848       45.17391190946452
H           32.34919906983821       64.37002709989093       43.40733982768557
H           30.38033294032869       62.88615604356568       43.56672773806843
H           28.84748572605289       63.06005335066766       45.45422641760605
H           32.48735635856855       63.64511169561106       48.19507121780723
H           33.83469444598845       65.25035210357413       49.45822917704393
H           32.96500806457147       66.21732302709692       51.56912686776820
H           30.73267990129465       65.55280424824582       52.38100671625467
H           29.38439675102106       63.94371338040845       51.11136942873368
H           31.70434472456035       60.37588768044318       46.49409509442954
H           30.93619810470569       60.23609378410496       44.15747105046820
H           28.54066276381196       59.93795868904368       43.66094148906061
H           26.91901590484229       59.77095844262128       45.51460927543298
H           27.68428451548529       59.88952521357164       47.83765554274971
H           32.34431753174275       57.93772503371754       50.93047347616991
H           34.78469620088271       58.07249747825174       50.74183465809051
H           35.86332596976879       58.04219951123310       48.52168257180542
H           34.45630357900578       57.86109418396504       46.48421825615550
H           32.02207289902940       57.68402290740195       46.68634740098301
H           30.49430902685985       56.55750891610112       50.74928814503141
H           32.22743640341414       54.80959299488262       46.88502944571094
H           31.45788750741468       54.39681385554789       44.58503366507826
H           29.04556977162849       54.25680794788094       44.10042710377380
H           27.41219128210107       54.52205062032115       45.93410326711010
H           28.17785389668666       54.93622463700279       48.21975591194933
H           29.68671048310162       54.05056373570318       53.50169355955212
H           28.58644757934855       52.24937127087927       54.75271919409697
H           28.97064678710258       49.88703279681640       54.12521008486178
H           30.43482801643744       49.36306191523099       52.21010186427849
H           31.47918233860041       51.15679273544828       50.92478655068291
H           32.59820506035079       53.15541096607588       54.90423636521638
H           32.14632713321414       54.89764534517732       56.56227725345943
H           32.54302203184898       57.27440117899388       56.00972913540511
H           33.44234259114262       57.87326454498326       53.77965725773331
H           33.87361371508695       56.12995160179783       52.12068231927186
H           36.44581983919649       51.13811298721910       53.63060817405322
H           35.80609575874384       49.01522939236557       54.67398668457808
H           34.14328618459404       47.54546416432969       53.58898614391920
H           33.17455742178095       48.20004189947191       51.41339428306954
H           33.83204797932683       50.31589166976802       50.35963101541914
H           37.57028658283573       52.35497445408853       52.03718890018489
H           37.38519054759610       51.30684581504244       50.63070490368916
H           37.66161943594945       51.52932957568883       48.15293223036097
H           36.38139989611374       51.46615717293147       46.06857293614073
H           34.72007593756504       53.23284833775387       45.57649393092677
H           34.42670209583975       55.10697179255839       47.15493538948608
H           35.72060456016349       55.18231423619555       49.23096083727739
H           41.21673514604262       55.28271733000609       50.90536845929638
H           41.24777848160196       57.52693880853142       51.90336691620764
H           39.66785162961322       59.24410046247807       51.15194244062472
H           38.03278055004021       58.71281344999630       49.38094506329902
H           38.00251069451274       56.46998705988322       48.36207801492714
H           42.47178717376043       56.68692971858125       45.96965494321022
H           44.82002613218317       56.80188070730459       45.28565448051558
H           46.25810618749348       54.79230050819552       45.44143097819630
H           45.32147624412818       52.69455950264100       46.32976252500777
H           42.96297909276868       52.57955339276901       47.00343958183932
H           40.66468781882535       57.06367251562202       43.93741745940392
H           39.38688195948291       59.12753935363334       44.31057002385158
H           37.23304935169757       59.05202447645030       45.52232811070709
H           36.38516096989031       56.87387584519302       46.35101554624968
H           37.62948085567599       54.83044197757854       45.94772952307272
H           40.12906659863629       52.72123385012572       41.01433770690628
H           41.74330144098139       53.28035553167437       39.26938149042564
H           42.12254164309982       55.63283825660290       38.62550107627615
H           40.88454920115881       57.42886143281420       39.78791223899345
H           39.29979480522116       56.87219667025108       41.57725570696017
H           35.53172435011110       53.32959769932761       39.86248451839727
H           33.76908153588612       52.02006318736379       38.80909982479748
H           32.26426605655021       50.61721995953789       40.16482110364716
H           32.55148973266174       50.54759976372651       42.62770143388175
H           34.30875916218884       51.86409423862133       43.69026785593760
H           33.88650186297926       57.14758892318352       44.10933792726711
H           31.51717847065464       57.74112231749882       44.41187252097431
H           29.86019339727716       57.12116510928104       42.70973013313181
H           30.57864002978959       55.88683396463454       40.68953563638976
H           32.94342348167563       55.29703206196725       40.38381042623740
H           33.46335521262245       57.97355185691411       39.24004133040382
H           33.40694138115803       56.97519552343700       36.99178191777873
H           35.42585150618023       55.89720043663795       36.06651496673844
H           37.49676327337509       55.83125936718321       37.40085644344061
H           37.56669833561013       56.84658562421170       39.62337486951176
H           34.94074490354993       61.08445736733229       42.68394484021179
H           32.65700495353089       61.69429315528448       43.30574569873028
H           30.87681627993629       61.76825863162129       41.58615494407729
H           31.42853259745858       61.26726235600978       39.23954566352535
H           33.72746694855815       60.67110970022463       38.61233823933708
H           40.70644962149224       62.18034875751066       38.87871628816031
H           41.88609579974563       64.30432913315028       38.77973754145216
H           40.82166580895059       66.36821801724128       39.64164553011050
H           38.56676916073810       66.23489337719687       40.63782412952894
H           37.35641958636490       64.14515772942023       40.68127414593501
H           26.95843363043207       65.56559000279574       47.90196262725117
H           27.82102838489913       66.36943535941596       46.58693174875683
H           27.16281670428927       64.75052199826445       46.34847413397493
H           38.76708608941954       60.96832596051619       40.33785244635342
H           39.24073637143860       61.01478392761408       37.92298358411723
H           37.88870875963892       59.99525462358287       38.36659163979076
C           37.22857246328316       60.87915271544421       35.97265024752480
C           37.88181391256143       63.10597996560293       36.89790485609080
C           39.12520339862468       63.25045840653120       36.29438431964509
C           39.61648145578843       64.50173845643971       35.97485201413797
C           38.86940674532455       65.63479611714911       36.24739339628722
C           37.62522931324306       65.50395094007754       36.83739709868509
C           37.13746548101304       64.24908770767044       37.15607944548687
H           39.72059261842778       62.37675473710698       36.07680992845695
H           40.58890987197552       64.59616202487786       35.51246372016718
H           39.25346609787595       66.61405082149166       35.99958122329197
H           37.03241157083021       66.38233143382158       37.05058735408431
H           36.16246748981050       64.16105509854766       37.61617561297506
C           36.23644595135561       59.72117740938126       36.13665752116811
H           36.89769750367088       61.50681744515425       35.14082648677120
H           38.20936087425684       60.47766250042770       35.71157404688810
C           36.21591803389290       58.84869024891373       34.91633447122264
C           35.21391017578080       58.96860076042760       33.96337244413255
C           35.20763717781892       58.16311038971905       32.83749950541746
C           36.20878781466362       57.22605370597313       32.64896335827841
C           37.21698497550419       57.10251602782657       33.59058896217826
C           37.21992102217223       57.90914420233166       34.71310794642058
H           34.42589491720236       59.69541375372425       34.10542384406691
H           34.41796177158935       58.26526193267554       32.10646814093222
H           36.20126192903349       56.59439747940360       31.77212931386974
H           38.00053487209723       56.37142058694130       33.45190690932624
H           38.00366721009690       57.80266814487361       35.44854097495892
H           36.33086329257664       61.87237069687209       37.64181995152168
H           36.51684084864824       59.11039457360043       36.99641579021967
H           35.23762561432906       60.12540424831165       36.31623399161101
C           62.43745663013936       38.74240516122290       39.63005026009019
C           63.17553646509336       39.14502156259996       40.73707426954233
C           63.37075271509678       40.50643520829055       40.93688016375772
C           62.83912040783485       41.43551032524582       40.06071624255434
C           62.10659115644409       41.02181720834926       38.96207124650876
C           61.90833761896426       39.66867041460173       38.74873200804837
C           63.78283108785219       38.09954474943729       41.64191729073914
C           65.23540238109803       37.85472532855375       41.21729630591881
C           63.72171567880360       38.47502389020614       43.12466363263002
C           62.28334341109368       38.69307734969667       43.62119362876642
C           61.57530453637661       37.36840401424173       43.74058646849227
C           60.61960194156349       37.00542265115202       42.80032017341109
C           59.98470600024264       35.77782805476625       42.86507516980333
C           60.29057020198140       34.89172278347770       43.88326389074788
C           61.23861234361606       35.24336749079599       44.82998484858485
C           61.87849878768402       36.46805005970425       44.75653945173087
C           62.29721432034225       39.47704379973971       44.93828624040910
C           60.89999700272995       39.67866075480896       45.53671302288665
C           59.95692644163301       40.26304178102379       44.51285198468470
C           60.20796193773733       41.50202599679562       43.93262516163560
C           59.35598585667922       42.02082340438532       42.97482991904440
C           58.23506059010563       41.30978844115594       42.58207684638627
C           57.96439658528553       40.08391549153748       43.16352370752553
C           58.81966925283099       39.56700268906289       44.12171142063911
C           60.96339819540221       40.59770884432697       46.76587280409584
C           61.66289603286073       39.99737697042237       47.99801693939713
C           62.06194024063755       41.11171719528632       48.93196548255330
C           61.10907124375411       41.94100078008189       49.51398738991941
C           61.48864200717392       42.97266770321665       50.35372551273610
C           62.82840786385753       43.19382101553001       50.62552107282263
C           63.78521808561567       42.37546816306156       50.05064985404984
C           63.40348167777826       41.34499235549826       49.20914766098353
C           60.74503779783330       38.98653130159187       48.68997439881102
C           61.35068153730777       38.35573502053854       49.94825915714092
C           62.55513555072214       37.50624933350811       49.64136265780022
C           62.46729083005410       36.40711195862649       48.79405543666683
C           63.56324800137966       35.59378918543354       48.57122879006713
C           64.76753826742079       35.86039581195658       49.20030765495780
C           64.87051183325963       36.95871039497441       50.03704301624111
C           63.77539458583598       37.77744192566356       50.24716779322872
C           60.26798068472913       37.52007285060702       50.64508606208263
C           60.75998662369858       36.80035633880952       51.90617539301896
C           61.36737015550396       37.75495081996171       52.90202577497659
C           62.64916429032540       37.53554165367790       53.38926191934255
C           63.21664704599367       38.39405990543301       54.31427990946495
C           62.50865317875538       39.49397416807142       54.76500923817946
C           61.22969668230328       39.72334819983248       54.28920585285766
C           60.66400070721112       38.85870787929598       53.37058231311696
C           59.59270009898927       36.03683724748138       52.54608616931654
C           60.05819515711826       35.06145352208885       53.63150922319920
C           60.85151803907703       33.92840334006902       53.03125834671184
C           60.29942991148408       33.09344428584441       52.06621349424537
C           61.02857812749436       32.05088886603232       51.52484331108953
C           62.33003544061756       31.82408279592198       51.93910830171347
C           62.89138149548111       32.64475235878058       52.90207635643066
C           62.15514655997212       33.68427414071154       53.44374132994780
C           58.86714309545793       34.50401403318132       54.42843083509654
C           58.24522835197780       35.54447389821107       55.36806014173733
C           59.26906926999120       36.11954515021954       56.31464424806106
C           60.01994922991208       35.30235482106842       57.15185272508371
C           60.94618784498434       35.84215518242597       58.02487274070992