3864
 energy: -5104.070908800883 gnorm: 0.000758385627 xtb: 6.6.1 (8d0f1dd)
C           31.05672915764242       65.48268007090461       46.35540811370986
C           29.95399897652931       64.64255113535167       46.44337207015356
C           29.76253282575329       63.69448545500216       45.44577658661148
C           30.65392448435818       63.58702963041707       44.39475456727590
C           31.75195919553715       64.42647933331619       44.31701652867469
C           31.94784614239724       65.37926121699408       45.30159811411291
C           28.97557577893503       64.79226490927149       47.58027646127552
C           27.66898408878481       65.39850648951473       47.05988131212431
C           28.69624701291247       63.46159089553819       48.29039083857884
C           29.97523804597204       62.73897239852684       48.73957042071836
C           30.83654286846746       63.65386361003974       49.57008639876533
C           32.10314337580088       64.01426131686515       49.12888906499927
C           32.87512562880342       64.91239826607845       49.84532001172152
C           32.39499641276043       65.45903188344973       51.02255382767090
C           31.14082239884019       65.09061215353314       51.48310357963876
C           30.37135552494760       64.19335358892286       50.76452210886666
C           29.62716776968640       61.42736134276751       49.47642911156984
C           30.24370663227446       60.19939073092299       48.79195493257959
C           29.79947205664995       60.10979474805711       47.35342491875441
C           30.72376127649856       60.22211449613587       46.32204298132898
C           30.32866680002194       60.13802305094357       44.99831783771108
C           28.99426312332028       59.95083690189345       44.68413143470357
C           28.06120164989922       59.84838790226557       45.70164102588551
C           28.46189282215462       59.92610188318833       47.02329187527157
C           29.88824395174832       58.92219371208997       49.56606358934476
C           30.50928291419908       57.66675565007722       48.94041089505757
C           32.00603056500202       57.79061424225104       48.83968926443191
C           32.80110659189439       57.90453421695302       49.97433605410573
C           34.17798491033023       57.98403908802330       49.86716006171127
C           34.78270115239943       57.96684745516335       48.62164084558243
C           33.99785179218301       57.85978603903664       47.48611447708807
C           32.62307926878963       57.76380356035217       47.59659441447098
C           30.13814957583948       56.41584112824506       49.74697888144355
C           30.75722329028038       55.14920708636317       49.14398510666810
C           30.26059358516631       54.89982409096886       47.73984027483159
C           31.16777016829282       54.73456617271714       46.70009696018790
C           30.74043634851284       54.49537495496738       45.40630602721180
C           29.38680398828213       54.41363206015973       45.13152575732514
C           28.47145346678888       54.56243057286103       46.15936903923065
C           28.90464242100886       54.80089021741277       47.45159353050104
C           30.47941655837067       53.91070729929569       50.00891041038015
C           31.26623726053680       53.83913720363522       51.33017124557718
C           30.67955960172693       52.70833203196417       52.13882598849258
C           29.86097082510371       52.97783710630209       53.22818761525982
C           29.25798225242752       51.95277301123928       53.93552657714031
C           29.48132148498498       50.63439058816822       53.57588125959246
C           30.30463205508827       50.35470830200439       52.49856035708441
C           30.88611091253287       51.38185235817100       51.77960866956845
C           32.77149419197458       53.66425773345816       51.08618212895798
C           33.55632617677883       53.41673454598623       52.38231438933479
C           33.27269578638417       54.48886738612834       53.40541295556818
C           32.80773535589355       54.15163502505555       54.66914561994215
C           32.55541011100661       55.12724699256813       55.61790094981001
C           32.77052241732250       56.46123360778768       55.31718688189962
C           33.24828185586827       56.80834773221865       54.06370022187249
C           33.49450122744275       55.83037328242799       53.11750432462527
C           35.07472651705432       53.36913943376238       52.14215810704950
C           35.54917595262790       52.19699267761926       51.27274038132847
C           35.16338735559035       50.87982688633855       51.89676461604670
C           35.70578544794783       50.48060682254916       53.11273968180030
C           35.33847582675032       49.27787175768466       53.68826067302074
C           34.42022359093401       48.45298168990263       53.06073534984885
C           33.88960122214883       48.83129459535677       51.84132545483519
C           34.26280895541857       50.03218885690673       51.26480441389769
C           37.07158421980538       52.24548276835494       51.05526428819184
C           37.53921609249015       53.38703852597168       50.13844840544394
C           36.78299590027849       53.34555658874636       48.83486890964685
C           36.96473199159354       52.30822816490301       47.92533282791308
C           36.23953577625526       52.26533390572303       46.74745590492466
C           35.31017430615518       53.25313050944538       46.46569632599379
C           35.13111503655333       54.29697875843191       47.35628842536057
C           35.86371204128226       54.34206171484948       48.52850112164501
C           39.05680805865445       53.29064982026664       49.91950445111342
C           39.56451640041254       54.33177140626299       48.90857966122602
C           39.61067392928864       55.70548425677840       49.53238360111125
C           40.52816658603483       56.02822881592940       50.52619774210160
C           40.55234737775984       57.29325693424430       51.08583419699405
C           39.65361343121610       58.25961601068432       50.67078800557081
C           38.72709112766071       57.94620974230246       49.69284530414166
C           38.70772896986441       56.68210641324430       49.13002530174602
C           40.91459011579915       53.92599249345280       48.29551034271106
C           41.09464155308368       54.53338446595539       46.89322921900145
C           42.54919440666641       54.61306696581471       46.51092775655299
C           43.09879582430164       55.80180242880820       46.05224647647450
C           44.42817760986905       55.87308880466750       45.67662443394246
C           45.23068092063300       54.74939770734822       45.75650814366045
C           44.69736658931679       53.56215008016403       46.22802084735215
C           43.36795195671723       53.49357312447115       46.60096944631177
C           40.31462527545919       53.71334054866752       45.85018183074999
C           39.98225244810757       54.50432777989084       44.57643135783148
C           39.23280911462913       55.77260886829762       44.89708844522866
C           39.69200275318435       57.00332975640885       44.44287845376681
C           38.95893448706902       58.15844352524664       44.64956892188572
C           37.75833199665939       58.10671902497813       45.33725295050453
C           37.30375315141758       56.89003871700636       45.81492110988682
C           38.02935392601862       55.73415946566914       45.59104564546782
C           39.13067994972315       53.62948106747090       43.63513713995037
C           38.55712186234815       54.40781663862405       42.44380792272730
C           39.60196323819591       54.73508321849899       41.40297040065340
C           40.30176544256894       53.73762161656239       40.73439545886282
C           41.20923229088483       54.05149561548109       39.73834010748476
C           41.42527540795609       55.37076416045890       39.38121256121432
C           40.73687465685388       56.37453821292047       40.03839904504537
C           39.83910782696928       56.05628069293707       41.04247895051738
C           37.39293270676784       53.68713452105273       41.73703665014396
C           36.12409952652411       53.49458659187043       42.57689936706842
C           35.06607439027350       52.69205744761653       41.85152991539642
C           34.88492324982613       52.72862724743385       40.47450512408992
C           33.87904446476962       51.99009605385898       39.87344026207867
C           33.03427398780556       51.20206759290940       40.63421582158209
C           33.20155472252596       51.15687563416101       42.00785586361207
C           34.20552662525276       51.89660980780705       42.60329092790476
C           35.49126719842253       54.79827816963968       43.10086129252462
C           35.05580265782822       55.80491002322808       42.01823409185292
C           33.61193007905523       56.19212695002153       42.22096413588948
C           33.20441653319304       56.87077558752851       43.36425715884480
C           31.87741832479050       57.20876168227382       43.55229548794694
C           30.93198277372924       56.87116510890949       42.59930235224827
C           31.32350483016084       56.18686098087105       41.46243769333707
C           32.65325704958515       55.84936448396467       41.27725950989955
C           35.96790364651468       57.03803300170556       42.02369898187459
C           35.56968543514215       58.07282318095310       40.96756645940901
C           35.56193022091745       57.46514613014476       39.58777559087431
C           34.40315542771640       57.48945266700588       38.82188706750068
C           34.37444484896883       56.92147078533915       37.56008617908805
C           35.50488622605962       56.31105495168188       37.04618888643837
C           36.66651024467755       56.28092906241947       37.79896154471007
C           36.69498346537364       56.85784695022194       39.05604778830855
C           36.50439372800996       59.29104253500846       41.03377985631565
C           35.95452940902998       60.45530584848348       40.20408643115745
C           34.54917253695574       60.80744641400225       40.63091009717851
C           34.24154487814520       61.09276107481244       41.95583932590354
C           32.95074992773768       61.41601260520350       42.33024349747024
C           31.94144989186816       61.45558062562618       41.38369682703068
C           32.23560544280522       61.18278526754690       40.05981879503759
C           33.53022687117161       60.86601623629393       39.68899184621218
C           36.81225095179767       61.72903461748174       40.29978790649380
C           38.23395714343502       61.64471608457672       39.72590974684079
C           38.94235317466337       62.98917861655412       39.76160875100978
C           38.38031771680388       64.13340918669354       40.31567278268840
C           39.05489655758637       65.34221553691559       40.30007248318525
C           40.30571823846054       65.44091635720052       39.72079899181069
C           40.89486321947420       64.30340599454706       39.19789046552962
C           40.22812128183238       63.09372511319533       39.23740304113470
C           38.26626060900787       61.02073436220261       38.31656287558214
C           37.39571075877917       61.71825333002113       37.26133153911407
H           29.40750876422048       65.48510980827905       48.31130583178253
H           28.06213249334636       63.66123801912601       49.15710676212927
H           28.14522137483949       62.79646093298770       47.62230124921533
H           30.53905493019430       62.48925458565790       47.83547644692494
H           29.98908083671442       61.46614185654547       50.50482502643521
H           28.54391874396254       61.30258510805086       49.52104081031596
H           31.33374041150097       60.31679543692296       48.80876378118051
H           30.22899007444449       59.02720265749190       50.59758998386872
H           28.80416155284108       58.79964453905265       49.59868426739075
H           30.10563728108322       57.55325391890461       47.92756751167568
H           29.05158655284928       56.32332290215412       49.78151387633724
H           31.84009036029033       55.29376533599248       49.08860658750118
H           29.41135992854017       53.87685208853701       50.23907233916930
H           30.71848488577152       53.01903497328971       49.42559656993954
H           31.11456755938297       54.76768360772039       51.88939298224045
H           32.92893383338794       52.82838607000059       50.40406746618646
H           33.15985008193268       54.56024971040431       50.59917615728762
H           33.24288688352893       52.45372476592669       52.79995179647412
H           35.38457164021597       54.30516172372371       51.67656896932988
H           35.56743678899726       53.30969454666686       53.11498959796619
H           35.06767752707742       52.26653981405845       50.29208577939885
H           37.33163778878583       54.34370774416271       50.62790447611379
H           39.55703618247651       53.43247490432068       50.87883620333004
H           39.30541088077443       52.28933496575836       49.55888791629155
H           38.83437972324786       54.36672148332455       48.09500654027998
H           41.73479024688301       54.25355356726752       48.93702173340810
H           40.96804931305595       52.83689339605324       48.22100736225457
H           40.68858665696569       55.55117153040674       46.91560815886724
H           40.89931764358651       52.83047989477360       45.58179861746981
H           39.38335055847579       53.36026929191722       46.29807089320908
H           40.91719036612644       54.76901069353386       44.07119751774579
H           39.73411275721828       52.79215248293964       43.28109220795713
H           38.30332125952823       53.22409712363210       44.22051177556432
H           38.16982092912584       55.35134867061076       42.83269669133724
H           37.15860018542278       54.27255029783534       40.84578066684514
H           37.72956700499456       52.70138155447660       41.40445723908207
H           36.39243914818050       52.91710891837437       43.46976445017996
H           34.61019747765494       54.51393971367953       43.68131493317045
H           36.18619416863351       55.27720533760387       43.79244199431624
H           35.13132241806873       55.33303802704386       41.03556521465416
H           35.93911556015911       57.51054574478486       43.00843661434921
H           36.99299482042726       56.71906808317962       41.84108087684184
H           34.55319427747907       58.41000871479545       41.19712630173821
H           36.61725693423845       59.59735232272237       42.07599221953021
H           37.49192254185843       59.01129634575322       40.66250639014185
H           35.90488256220939       60.12980312533046       39.16223506543005
H           36.27154698927427       62.52297490103312       39.78080911799355
H           36.88322950702052       62.01499747317273       41.35102936852182
H           31.21924854202905       66.22650069361856       47.12320497663500
H           32.79232302124405       66.05230159371733       45.24643403078939
H           32.44466535853444       64.34017154169493       43.49193183737832
H           30.48316158695290       62.84556786410802       43.62962167792848
H           28.91399972464454       63.02747583431569       45.48582205627109
H           32.48776538493463       63.59732279326398       48.20937619029133
H           33.84852349063930       65.19347465157213       49.46836771641689
H           32.99098442881642       66.16483484197421       51.58290761948268
H           30.75613593976728       65.51456770836228       52.40021111699492
H           29.39225932187701       63.91851212536246       51.13046105440532
H           31.76785909524167       60.36980757816590       46.56305308611253
H           31.06089414735714       60.21247689626480       44.20785872568778
H           28.68332211326458       59.88573103471919       43.65152876447048
H           27.01632126953677       59.70627414120081       45.46449659880020
H           27.72192149166163       59.83978526911793       47.80577582102426
H           32.34285864166673       57.92012916553707       50.95265710863370
H           34.78236852281953       58.05750505913626       50.76030516770111
H           35.85793838079757       58.03288376578944       48.53949499115624
H           34.45011035051827       57.84801704308410       46.50399630701484
H           32.01672928235654       57.65844566830590       46.70894655272146
H           30.48883392728001       56.53534631940654       50.77260617591593
H           32.22551520756391       54.79202104188309       46.91069482823919
H           31.46125209901550       54.37773499423439       44.60973960765856
H           29.04961236899185       54.23157556754476       44.12192850867304
H           27.41304832417655       54.49026569854438       45.95448419610787
H           28.17580038331700       54.90762150727412       48.24144410020757
H           29.69419147190514       54.00348643745139       53.52739384963406
H           28.61417101186295       52.18434206918220       54.77180702158615
H           29.02439220501240       49.82847297775474       54.13246959063178
H           30.49220970014975       49.33107503504059       52.21283015334751
H           31.50497578156975       51.14165278951683       50.92912153040066
H           32.63746963230678       53.11408164559469       54.91576174190973
H           32.19388438684104       54.83949904497194       56.59491683976881
H           32.56631675532353       57.22433332845586       56.05537257296969
H           33.43592751300346       57.84592256055185       53.81971657237330
H           33.86266785078209       56.11835701892706       52.14430017244783
H           36.42396327985370       51.11442017343087       53.61235487163327
H           35.77558280063830       48.98289639075029       54.63240093237063
H           34.12522278329188       47.52063084744602       53.51900906563673
H           33.18571850291296       48.18761834766511       51.33350702649086
H           33.85126559856604       50.31473063554429       50.30518421323880
H           37.57232950313100       52.34066285716778       52.01903065142582
H           37.38366966374603       51.29693454209179       50.61009358211614
H           37.67933122604552       51.52494130599279       48.13382212455030
H           36.40107269265057       51.45565494878216       46.04888809122050
H           34.72679042114776       53.21165052716256       45.55882308829265
H           34.42274996371348       55.08357179457152       47.13874918860947
H           35.71614080646763       55.16336160164276       49.21607957474939
H           41.24087381254781       55.28938932245394       50.86542950081886
H           41.27768868138229       57.53837883614318       51.84799708482622
H           39.68097989688427       59.24610027495456       51.10780779409652
H           38.02402392325084       58.69716050241660       49.36239236193452
H           37.98920577352229       56.44758656195513       48.35778048614839
H           42.47950192612441       56.68447486045979       45.98886484998749
H           44.83213662454328       56.80771458488806       45.32151169420870
H           46.26875975103810       54.79415553011079       45.45912536250362
H           45.32355060387305       52.68471717195009       46.30845948498314
H           42.96129929644314       52.56303002023788       46.96620444899504
H           40.62954567293455       57.05224938231650       43.90735635286052
H           39.32507088790225       59.10076811045727       44.26681439669003
H           37.18143833398752       59.00698863583582       45.49832281079460
H           36.37169700422373       56.82479880434983       46.35485085495596
H           37.63877136172520       54.79456133928767       45.95314362339415
H           40.14179973644578       52.69912544248134       40.98904473140335
H           41.75359952396443       53.26061708381485       39.24399564248350
H           42.13081667719418       55.61426019598506       38.60027247871345
H           40.89667375339281       57.40943020973311       39.76992125115655
H           39.31771354792946       56.84996398447364       41.56184545845027
H           35.53063048282966       53.32799245356343       39.85055748554178
H           33.75690974153726       52.02926254510263       38.80032070483119
H           32.25481397870107       50.62541692475822       40.15786849564984
H           32.55842508335363       50.54065828671921       42.61982340837380
H           34.32856031213483       51.84366224306091       43.67622700357455
H           33.93367720306931       57.13179264063172       44.11730127554613
H           31.57016840796445       57.73462570086280       44.44418637130623
H           29.89596375689934       57.13526165383431       42.75186478507539
H           30.59206230569078       55.91206119713559       40.71601155966303
H           32.95230818540192       55.31068162282747       40.38892950414419
H           33.51438660846570       57.95459004187571       39.22503084035514
H           33.46541545749108       56.95218734970743       36.97699455152197
H           35.48667319886183       55.86759079500130       36.06286919846338
H           37.55175499560909       55.80065089238378       37.40750206455564
H           37.61322775997760       56.82247126796500       39.62508628626522
H           35.01409547246670       61.05307930247971       42.70982902190846
H           32.73570089006371       61.64128922381776       43.36499317989580
H           30.92873128427049       61.69808508984809       41.67079429225543
H           31.45439273259497       61.21523707949129       39.31418265486518
H           33.75270382931050       60.65056276720590       38.65289993887379
H           40.72537432647474       62.22086706827855       38.84094811770032
H           41.87748186158515       64.35701806075755       38.75043156239302
H           40.81516094153521       66.39314633346832       39.68207359946682
H           38.58987614655101       66.21290053189117       40.73939027097558
H           37.40435445348997       64.11059320379337       40.77145678983442
H           26.96823800964352       65.55077145978251       47.87808457000757
H           27.85998332255214       66.35823769088974       46.58464765781717
H           27.20791406402558       64.73989533477960       46.32727721146346
H           38.81777134143238       60.96923661155768       40.36783781897208
H           39.29542800029446       61.00207738786775       37.95525503725142
H           37.94812358105853       59.98029390232098       38.40244699532718
C           37.30076855743709       60.84428127337166       35.99745847507356
C           37.93540231403870       63.08399975622741       36.91975187331757
C           39.16593817485970       63.22818328939841       36.29089304060315
C           39.66351767783039       64.48131090193488       35.98848962310425
C           38.93516712290833       65.61503110640631       36.30421904056730
C           37.70275696197383       65.48398703166714       36.91787897525685
C           37.20809552973795       64.22771347906053       37.21900382654662
H           39.74607118746182       62.35256799747302       36.04234677552008
H           40.62637039501485       64.57494994239508       35.50698591549398
H           39.32474757561273       66.59517856368856       36.07122498455229
H           37.12416477079469       66.36250489567023       37.16435086623181
H           36.24271966026707       64.13779198265526       37.69814573412878
C           36.31905598175454       59.67813571099064       36.16360506491841
H           36.97191738850823       61.46198645656361       35.15815794416588
H           38.28774926419711       60.44942945651466       35.74969521766847
C           36.35494927741041       58.76163294467014       34.97584178828973
C           35.35344887361319       58.78721417806617       34.01590044401337
C           35.39787835809494       57.93620565954814       32.92505547085444
C           36.44925207056276       57.04821888315323       32.77975153344156
C           37.45802555444376       57.01975091677555       33.72824098416057
C           37.41038182240745       57.87134703051713       34.81578232044521
H           34.52730846177332       59.47588382855748       34.12550794525922
H           34.60844718586450       57.96534886617510       32.18771444350690
H           36.48162861783371       56.38127732865203       31.93042057732359
H           38.28272654055118       56.32964761159909       33.62348260413171
H           38.19499744723641       57.83940859217281       35.55806498459037
H           36.38258100904482       61.84376479272624       37.65351479520825
H           36.57695402693559       59.10015220628525       37.05330731399106
H           35.30898004606332       60.07215605775081       36.29617815407804
C           62.41132590056738       38.76241474589633       39.65645385853738
C           63.12906867293680       39.15531671645950       40.78006372405797
C           63.28547835966680       40.51547122254561       41.01857508457266
C           62.73308804950549       41.45296753348251       40.16446394183935
C           62.02137212078658       41.04910810269992       39.04876851981965
C           61.86402980944584       39.69747142898568       38.79604466444529
C           63.75057752701417       38.09976759199409       41.66385135193787
C           65.19991540619812       37.86679480398449       41.22316757944365
C           63.70044856138315       38.45422376420516       43.15208966246950
C           62.26490000918743       38.68171420714682       43.65263470106174
C           61.54692555173824       37.36267607664419       43.77668907739525
C           60.58605518537550       37.00717396953689       42.83896855641082
C           59.94125061748662       35.78502420656768       42.90713322966909
C           60.24114993940708       34.89839155422749       43.92655147422502
C           61.19411084263539       35.24328847263300       44.87081319403733
C           61.84544636662068       36.46175499718662       44.79336571344798
C           62.28383484322035       39.46858767541161       44.96732201286125
C           60.88403881501652       39.69604341860155       45.55026340489998
C           59.95818120853249       40.29088453639488       44.51620785925643
C           60.24300061271260       41.51476046361356       43.91957294189623
C           59.40575968358021       42.04350028497349       42.95429294861781
C           58.26546350679080       41.35822189684223       42.57130830174587
C           57.96117197019746       40.14819023661998       43.16930990783547
C           58.80260144384403       39.62032078960411       44.13399714560732
C           60.95070579441361       40.62049317417218       46.77535812374445
C           61.64192516332508       40.01770289952145       48.01052898006353
C           62.04848580402611       41.12736495213956       48.94663147987248
C           61.10183764690733       41.96611340416386       49.52498091567703
C           61.48887941036299       42.99046896941265       50.37050025768663
C           62.82963660685360       43.19328503317783       50.65187104344067
C           63.77998939649402       42.36533969697197       50.08002835271967
C           63.39124999971165       41.34278699463336       49.23243318989164
C           60.71466700615397       39.01440482235471       48.70088810968636
C           61.32012791595493       38.37397670495973       49.95385134763738
C           62.53146020730377       37.53543803931593       49.64223471272158
C           62.45645502847435       36.45550705904155       48.76979512833027
C           63.55861795979702       35.65222420716863       48.54073028434168
C           64.75391838828044       35.90926961317872       49.19009729985318
C           64.84296699212720       36.98808831041182       50.05326082980418
C           63.74286852269308       37.79844808169072       50.26889490432586
C           60.24148226189475       37.52304463295123       50.63807401920342
C           60.73253043057971       36.81007482764851       51.90321311541812
C           61.32847865965728       37.77100527901619       52.90052403154387
C           62.60171354780894       37.54923860169490       53.40871954337300
C           63.15773872419186       38.41242866111881       54.33605475613932
C           62.44859059449407       39.51976107700487       54.76586147917872
C           61.17880904470967       39.75208376857324       54.26786951563820
C           60.62263685372265       38.88140529077143       53.34887096022037
C           59.56718360637574       36.04113668554891       52.53998578306448
C           60.03341330997858       35.08349430712800       53.64049104086607
C           60.83203014962147       33.94137140647869       53.06511253360615
C           60.28917809748908       33.09165012913100       52.10816292089226
C           61.02058117096169       32.03488577922025       51.59809818205272
C           62.31434154307023       31.81001804597004       52.03608319557672
C           62.86624628237524       32.64650776553745       52.99056752214399
C           62.12815578056539       33.69979080191089       53.50153665352164
C           58.84373790742666       34.53410153065272       54.44426165006248
C           58.21709576392022       35.58631754043971       55.36701669581276
C           59.23751879905269       36.19280002591711       56.29824082427889
C           60.01920105406516       35.40035451350212       57.13077451314569
C           60.93794952273092       35.97105098688385       57.99178287332420