      -----------------------------------------------------------      
     |                   =====================                   |     
     |                           x T B                           |     
     |                   =====================                   |     
     |                         S. Grimme                         |     
     |          Mulliken Center for Theoretical Chemistry        |     
     |                    University of Bonn                     |     
      -----------------------------------------------------------      

   * xtb version 6.6.1 (8d0f1dd) compiled by 'stahn@M-Bot' on 2023-08-01

   xtb is free software: you can redistribute it and/or modify it under
   the terms of the GNU Lesser General Public License as published by
   the Free Software Foundation, either version 3 of the License, or
   (at your option) any later version.
   
   xtb is distributed in the hope that it will be useful,
   but WITHOUT ANY WARRANTY; without even the implied warranty of
   MERCHANTABILITY or FITNESS FOR A PARTICULAR PURPOSE.  See the
   GNU Lesser General Public License for more details.
   
   Cite this work as:
   * C. Bannwarth, E. Caldeweyher, S. Ehlert, A. Hansen, P. Pracht,
     J. Seibert, S. Spicher, S. Grimme, WIREs Comput. Mol. Sci., 2020, 11,
     e01493. DOI: 10.1002/wcms.1493
   
   for GFN2-xTB:
   * C. Bannwarth, S. Ehlert and S. Grimme., J. Chem. Theory Comput., 2019,
     15, 1652-1671. DOI: 10.1021/acs.jctc.8b01176
   for GFN1-xTB:
   * S. Grimme, C. Bannwarth, P. Shushkov, J. Chem. Theory Comput., 2017,
     13, 1989-2009. DOI: 10.1021/acs.jctc.7b00118
   for GFN0-xTB:
   * P. Pracht, E. Caldeweyher, S. Ehlert, S. Grimme, ChemRxiv, 2019, preprint.
     DOI: 10.26434/chemrxiv.8326202.v1
   for GFN-FF:
   * S. Spicher and S. Grimme, Angew. Chem. Int. Ed., 2020, 59, 15665-15673.
     DOI: 10.1002/anie.202004239
   
   for ALPB and GBSA implicit solvation:
   * S. Ehlert, M. Stahn, S. Spicher, S. Grimme, J. Chem. Theory Comput.,
     2021, 17, 4250-4261. DOI: 10.1021/acs.jctc.1c00471
   
   for DFT-D4:
   * E. Caldeweyher, C. Bannwarth and S. Grimme, J. Chem. Phys., 2017,
     147, 034112. DOI: 10.1063/1.4993215
   * E. Caldeweyher, S. Ehlert, A. Hansen, H. Neugebauer, S. Spicher,
     C. Bannwarth and S. Grimme, J. Chem. Phys., 2019, 150, 154122.
     DOI: 10.1063/1.5090222
   * E. Caldeweyher, J.-M. Mewes, S. Ehlert and S. Grimme, Phys. Chem. Chem. Phys.
     2020, 22, 8499-8512. DOI: 10.1039/D0CP00502A
   
   for sTDA-xTB:
   * S. Grimme and C. Bannwarth, J. Chem. Phys., 2016, 145, 054103.
     DOI: 10.1063/1.4959605
   
   in the mass-spec context:
   * V. Asgeirsson, C. Bauer and S. Grimme, Chem. Sci., 2017, 8, 4879.
     DOI: 10.1039/c7sc00601b
   * J. Koopman and S. Grimme, ACS Omega 2019, 4, 12, 15120-15133.
     DOI: 10.1021/acsomega.9b02011
   
   for metadynamics refer to:
   * S. Grimme, J. Chem. Theory Comput., 2019, 155, 2847-2862
     DOI: 10.1021/acs.jctc.9b00143
   
   for SPH calculations refer to:
   * S. Spicher and S. Grimme, J. Chem. Theory Comput., 2021, 17, 1701-1714
     DOI: 10.1021/acs.jctc.0c01306
   
   with help from (in alphabetical order)
   P. Atkinson, C. Bannwarth, F. Bohle, G. Brandenburg, E. Caldeweyher
   M. Checinski, S. Dohm, S. Ehlert, S. Ehrlich, I. Gerasimov, C. Hölzer
   A. Katbashev, J. Koopman, C. Lavigne, S. Lehtola, F. März, M. Müller,
   F. Musil, H. Neugebauer, J. Pisarek, C. Plett, P. Pracht, F. Pultar,
   J. Seibert, P. Shushkov, S. Spicher, M. Stahn, M. Steiner, T. Strunk,
   J. Stückrath, T. Rose, and J. Unsleber
   
 * started run on 2024/10/04 at 19:51:38.307     

           -------------------------------------------------
          |                Calculation Setup                |
           -------------------------------------------------

          program call               : /home/abt-grimme/AK-bin/xtb input.xyz --input input.inp --opt
          hostname                   : boar090.thch.uni-bonn.de
          coordinate file            : input.xyz
          omp threads                :                     8

   ID    Z sym.   atoms
    1    6 C      1-146, 294-300, 306, 309-314, 323-468, 616-622, 628,
                  631-636, 645-790, 938-944, 950, 953-958, 967-1112,
                  1260-1266, 1272, 1275-1280, 1289-1434, 1582-1588, 1594,
                  1597-1602, 1611-1756, 1904-1910, 1916, 1919-1924,
                  1933-2078, 2226-2232, 2238, 2241-2246, 2255-2400,
                  2548-2554, 2560, 2563-2568, 2577-2722, 2870-2876, 2882,
                  2885-2890, 2899-3044, 3192-3198, 3204, 3207-3212,
                  3221-3366, 3514-3520, 3526, 3529-3534, 3543-3688,
                  3836-3842, 3848, 3851-3856
    2    1 H      147-293, 301-305, 307, 308, 315-322, 469-615, 623-627, 629,
                  630, 637-644, 791-937, 945-949, 951, 952, 959-966,
                  1113-1259, 1267-1271, 1273, 1274, 1281-1288, 1435-1581,
                  1589-1593, 1595, 1596, 1603-1610, 1757-1903, 1911-1915,
                  1917, 1918, 1925-1932, 2079-2225, 2233-2237, 2239, 2240,
                  2247-2254, 2401-2547, 2555-2559, 2561, 2562, 2569-2576,
                  2723-2869, 2877-2881, 2883, 2884, 2891-2898, 3045-3191,
                  3199-3203, 3205, 3206, 3213-3220, 3367-3513, 3521-3525,
                  3527, 3528, 3535-3542, 3689-3835, 3843-3847, 3849, 3850,
                  3857-3864

molecular fragmentation (1/2 indicates fragments):
111111111111111111111111111111111111111111111111111111111111111111111111
111111111111111111111111111111111111111111111111111111111111111111111111
111111111111111111111111111111111111111111111111111111111111111111111111
111111111111111111111111111111111111111111111111111111111111111111111111
111111111111111111111111111111111122222222222222222222222222222222222222
222222222222222222222222222222222222222222222222222222222222222222222222
222222222222222222222222222222222222222222222222222222222222222222222222
222222222222222222222222222222222222222222222222222222222222222222222222
222222222222222222222222222222222222222222222222222222222222222222222222
222222222222222222222222222222222222222222222222222222222222222222222222
222222222222222222222222222222222222222222222222222222222222222222222222
222222222222222222222222222222222222222222222222222222222222222222222222
222222222222222222222222222222222222222222222222222222222222222222222222
222222222222222222222222222222222222222222222222222222222222222222222222
222222222222222222222222222222222222222222222222222222222222222222222222
222222222222222222222222222222222222222222222222222222222222222222222222
222222222222222222222222222222222222222222222222222222222222222222222222
222222222222222222222222222222222222222222222222222222222222222222222222
222222222222222222222222222222222222222222222222222222222222222222222222
222222222222222222222222222222222222222222222222222222222222222222222222
222222222222222222222222222222222222222222222222222222222222222222222222
222222222222222222222222222222222222222222222222222222222222222222222222
222222222222222222222222222222222222222222222222222222222222222222222222
222222222222222222222222222222222222222222222222222222222222222222222222
222222222222222222222222222222222222222222222222222222222222222222222222
222222222222222222222222222222222222222222222222222222222222222222222222
222222222222222222222222222222222222222222222222222222222222222222222222
222222222222222222222222222222222222222222222222222222222222222222222222
222222222222222222222222222222222222222222222222222222222222222222222222
222222222222222222222222222222222222222222222222222222222222222222222222
222222222222222222222222222222222222222222222222222222222222222222222222
222222222222222222222222222222222222222222222222222222222222222222222222
222222222222222222222222222222222222222222222222222222222222222222222222
222222222222222222222222222222222222222222222222222222222222222222222222
222222222222222222222222222222222222222222222222222222222222222222222222
222222222222222222222222222222222222222222222222222222222222222222222222
222222222222222222222222222222222222222222222222222222222222222222222222
222222222222222222222222222222222222222222222222222222222222222222222222
222222222222222222222222222222222222222222222222222222222222222222222222
222222222222222222222222222222222222222222222222222222222222222222222222
222222222222222222222222222222222222222222222222222222222222222222222222
222222222222222222222222222222222222222222222222222222222222222222222222
222222222222222222222222222222222222222222222222222222222222222222222222
222222222222222222222222222222222222222222222222222222222222222222222222
222222222222222222222222222222222222222222222222222222222222222222222222
222222222222222222222222222222222222222222222222222222222222222222222222
222222222222222222222222222222222222222222222222222222222222222222222222
222222222222222222222222222222222222222222222222222222222222222222222222
222222222222222222222222222222222222222222222222222222222222222222222222
222222222222222222222222222222222222222222222222222222222222222222222222
222222222222222222222222222222222222222222222222222222222222222222222222
222222222222222222222222222222222222222222222222222222222222222222222222
222222222222222222222222222222222222222222222222222222222222222222222222
222222222222222222222222222222222222222222222222
# atoms in fragment 1/2:   322  3542
 fragment masses (1/2) :     2085.00    22935.05
CMA distance (Bohr)    :  31.369
constraining FC (au)   :  0.0500

           -------------------------------------------------
          |                 G F N 2 - x T B                 |
           -------------------------------------------------

        Reference                      10.1021/acs.jctc.8b01176
      * Hamiltonian:
        H0-scaling (s, p, d)           1.850000    2.230000    2.230000
        zeta-weighting                 0.500000
      * Dispersion:
        s8                             2.700000
        a1                             0.520000
        a2                             5.000000
        s9                             5.000000
      * Repulsion:
        kExp                           1.500000    1.000000
        rExp                           1.000000
      * Coulomb:
        alpha                          2.000000
        third order                    shell-resolved
        anisotropic                    true
        a3                             3.000000
        a5                             4.000000
        cn-shift                       1.200000
        cn-exp                         4.000000
        max-rad                        5.000000


          ...................................................
          :                      SETUP                      :
          :.................................................:
          :  # basis functions                9624          :
          :  # atomic orbitals                9624          :
          :  # shells                         5784          :
          :  # electrons                      9624          :
          :  max. iterations                   250          :
          :  Hamiltonian                  GFN2-xTB          :
          :  restarted?                      false          :
          :  GBSA solvation                  false          :
          :  PC potential                    false          :
          :  electronic temp.          300.0000000     K    :
          :  accuracy                    1.0000000          :
          :  -> integral cutoff          0.2500000E+02      :
          :  -> integral neglect         0.1000000E-07      :
          :  -> SCF convergence          0.1000000E-05 Eh   :
          :  -> wf. convergence          0.1000000E-03 e    :
          :  Broyden damping             0.4000000          :
          ...................................................

 iter      E             dE          RMSdq      gap      omega  full diag
   1  -5195.7209039 -0.519572E+04  0.369E+00    4.17       0.0  T
   2  -5198.2919944 -0.257109E+01  0.218E+00    4.24       1.0  T
   3  -5198.2212650  0.707294E-01  0.494E-01    4.08       1.0  T
   4  -5198.4231379 -0.201873E+00  0.241E-01    3.95       1.0  T
   5  -5198.5764138 -0.153276E+00  0.460E-02    4.05       1.0  T
   6  -5198.5784332 -0.201931E-02  0.285E-02    4.04       1.0  T
   7  -5198.5796820 -0.124883E-02  0.112E-02    4.06       1.0  T
   8  -5198.5799996 -0.317580E-03  0.292E-03    4.05       1.0  T
   9  -5198.5800181 -0.185050E-04  0.124E-03    4.05       1.3  T
  10  -5198.5800198 -0.177683E-05  0.553E-04    4.05       2.9  T
  11  -5198.5800202 -0.364099E-06  0.291E-04    4.05       5.5  T
  12  -5198.5800204 -0.173249E-06  0.986E-05    4.05      16.3  T

   *** convergence criteria satisfied after 12 iterations ***

         #    Occupation            Energy/Eh            Energy/eV
      -------------------------------------------------------------
         1        2.0000           -0.6526240             -17.7588
       ...           ...                  ...                  ...
      4806        2.0000           -0.3812846             -10.3753
      4807        2.0000           -0.3809953             -10.3674
      4808        2.0000           -0.3809708             -10.3667
      4809        2.0000           -0.3803541             -10.3500
      4810        2.0000           -0.3800340             -10.3413
      4811        2.0000           -0.3800308             -10.3412
      4812        2.0000           -0.3781989             -10.2913 (HOMO)
      4813                         -0.2293405              -6.2407 (LUMO)
      4814                         -0.2286776              -6.2226
      4815                         -0.2280526              -6.2056
      4816                         -0.2278075              -6.1990
      4817                         -0.2276638              -6.1950
       ...                                ...                  ...
      9624                          0.6810383              18.5320
      -------------------------------------------------------------
                  HL-Gap            0.1488583 Eh            4.0506 eV
             Fermi-level           -0.3037697 Eh           -8.2660 eV

 SCC (total)                   0 d,  0 h, 44 min, 50.681 sec
 SCC setup                      ...        0 min,  0.731 sec (  0.027%)
 Dispersion                     ...        0 min,  7.640 sec (  0.284%)
 classical contributions        ...        0 min,  0.153 sec (  0.006%)
 integral evaluation            ...        0 min, 11.883 sec (  0.442%)
 iterations                     ...       39 min, 28.945 sec ( 88.043%)
 molecular gradient             ...        4 min, 36.571 sec ( 10.279%)
 printout                       ...        0 min, 24.757 sec (  0.920%)

         :::::::::::::::::::::::::::::::::::::::::::::::::::::
         ::                     SUMMARY                     ::
         :::::::::::::::::::::::::::::::::::::::::::::::::::::
         :: total energy           -5104.061671829455 Eh    ::
         :: gradient norm              0.024689467398 Eh/a0 ::
         :: HOMO-LUMO gap              4.050641543643 eV    ::
         ::.................................................::
         :: SCC energy             -5198.580020376287 Eh    ::
         :: -> isotropic ES            0.265624174449 Eh    ::
         :: -> anisotropic ES          0.787213260407 Eh    ::
         :: -> anisotropic XC          3.252146956442 Eh    ::
         :: -> dispersion             -7.002953122407 Eh    ::
         :: repulsion energy          93.374646387288 Eh    ::
         :: add. restraining           0.000000000000 Eh    ::
         :: total charge              -0.000000000031 e     ::
         :::::::::::::::::::::::::::::::::::::::::::::::::::::

      ----------------------------------------------------------- 
     |              Fast Inertial Relaxation Engine              |
      ----------------------------------------------------------- 

          ...................................................
          :                      SETUP                      :
          :.................................................:
          :   energy convergence        0.5000000E-05 Eh    :
          :   grad. convergence         0.1000000E-02 Eh/a0 :
          :   optimization log               true           :
          :   writing optlog all                1     steps :
          :   Hessian reset                    20     steps :
          :   time step scaling                 5     steps :
          :   maximium step len.        1.0000000     a0    :
          :   initial time step         0.2500000     fs    :
          :   maximum time step         1.2500000     fs    :
          :   power reset thr           0.0000000     au    :
          :   alpha parameter           0.1000000           :
          :   BFGS update                   false           :
          :   preconditioning               false           :
          ...................................................

........................................................................
.............................. CYCLE    1 ..............................
........................................................................

 iter      E             dE          RMSdq      gap      omega  full diag
   1  -5198.5811509 -0.519858E+04  0.338E-04    4.05       0.0  T
   2  -5198.5811509 -0.175232E-07  0.208E-04    4.05       7.7  T
   3  -5198.5811508  0.349701E-07  0.902E-05    4.05      17.8  T
     SCC iter.                  ...        9 min, 54.388 sec
     gradient                   ...        4 min, 34.377 sec
 * total energy  : -5104.0617411 Eh     change    :  -0.6922093E-04 Eh
   gradient norm :     0.0231896 Eh/a0  converged?    E=F G=F D=F
   time step     :     0.2500000 fs     power     :   0.3558656E-08
   step length   :     0.0028936 a0     speed     :   0.2799668E-03

........................................................................
.............................. CYCLE    2 ..............................
........................................................................

 iter      E             dE          RMSdq      gap      omega  full diag
   1  -5198.5828283 -0.519858E+04  0.498E-04    4.05       0.0  T
   2  -5198.5828283 -0.339323E-07  0.304E-04    4.05       5.3  T
   3  -5198.5828283  0.478713E-07  0.109E-04    4.05      14.7  T
     SCC iter.                  ...        9 min, 59.582 sec
     gradient                   ...        4 min, 35.304 sec
 * total energy  : -5104.0618349 Eh     change    :  -0.9382488E-04 Eh
   gradient norm :     0.0210694 Eh/a0  converged?    E=F G=F D=F
   time step     :     0.2500000 fs     power     :   0.4734762E-08
   step length   :     0.0042516 a0     speed     :   0.4113668E-03

........................................................................
.............................. CYCLE    3 ..............................
........................................................................

 iter      E             dE          RMSdq      gap      omega  full diag
   1  -5198.5850430 -0.519859E+04  0.641E-04    4.05       0.0  T
   2  -5198.5850431 -0.525924E-07  0.392E-04    4.05       4.1  T
   3  -5198.5850430  0.745513E-07  0.133E-04    4.05      12.1  T
     SCC iter.                  ...        9 min, 54.522 sec
     gradient                   ...        4 min, 34.464 sec
 * total energy  : -5104.0619425 Eh     change    :  -0.1076692E-03 Eh
   gradient norm :     0.0185366 Eh/a0  converged?    E=F G=F D=F
   time step     :     0.2500000 fs     power     :   0.5319369E-08
   step length   :     0.0054814 a0     speed     :   0.5303559E-03

........................................................................
.............................. CYCLE    4 ..............................
........................................................................

 iter      E             dE          RMSdq      gap      omega  full diag
   1  -5198.5877873 -0.519859E+04  0.766E-04    4.05       0.0  T
   2  -5198.5877874 -0.698428E-07  0.470E-04    4.05       3.4  T
   3  -5198.5877873  0.115331E-06  0.159E-04    4.05      10.1  T
     SCC iter.                  ...        9 min, 55.123 sec
     gradient                   ...        4 min, 34.376 sec
 * total energy  : -5104.0620527 Eh     change    :  -0.1101924E-03 Eh
   gradient norm :     0.0158658 Eh/a0  converged?    E=F G=F D=F
   time step     :     0.2500000 fs     power     :   0.5312827E-08
   step length   :     0.0065508 a0     speed     :   0.6338283E-03

........................................................................
.............................. CYCLE    5 ..............................
........................................................................

 iter      E             dE          RMSdq      gap      omega  full diag
   1  -5198.5910532 -0.519859E+04  0.868E-04    4.05       0.0  T
   2  -5198.5910532 -0.823902E-07  0.535E-04    4.05       3.0  T
   3  -5198.5910531  0.174247E-06  0.187E-04    4.05       8.6  T
     SCC iter.                  ...        9 min, 55.559 sec
     gradient                   ...        4 min, 35.058 sec
 * total energy  : -5104.0621555 Eh     change    :  -0.1027881E-03 Eh
   gradient norm :     0.0133954 Eh/a0  converged?    E=F G=F D=F
   time step     :     0.2500000 fs     power     :   0.4820174E-08
   step length   :     0.0074343 a0     speed     :   0.7193051E-03

........................................................................
.............................. CYCLE    6 ..............................
........................................................................

 iter      E             dE          RMSdq      gap      omega  full diag
   1  -5198.5952474 -0.519860E+04  0.105E-03    4.05       0.0  T
   2  -5198.5952475 -0.110368E-06  0.651E-04    4.05       2.5  T
   3  -5198.5952471  0.343230E-06  0.251E-04    4.05       6.4  T
     SCC iter.                  ...        9 min, 56.523 sec
     gradient                   ...        4 min, 34.059 sec
 * total energy  : -5104.0622527 Eh     change    :  -0.9719858E-04 Eh
   gradient norm :     0.0113046 Eh/a0  converged?    E=F G=F D=F
   time step     :     0.2750000 fs     power     :   0.3923902E-08
   step length   :     0.0090011 a0     speed     :   0.7917286E-03

........................................................................
.............................. CYCLE    7 ..............................
........................................................................

 iter      E             dE          RMSdq      gap      omega  full diag
   1  -5198.6005001 -0.519860E+04  0.122E-03    4.05       0.0  T
   2  -5198.6005003 -0.133875E-06  0.767E-04    4.05       2.1  T
   3  -5198.6004996  0.614913E-06  0.328E-04    4.05       4.9  T
     SCC iter.                  ...        9 min, 57.355 sec
     gradient                   ...        4 min, 33.660 sec
 * total energy  : -5104.0623357 Eh     change    :  -0.8293162E-04 Eh
   gradient norm :     0.0100292 Eh/a0  converged?    E=F G=F D=F
   time step     :     0.3025000 fs     power     :   0.2813046E-08
   step length   :     0.0105448 a0     speed     :   0.8431944E-03

........................................................................
.............................. CYCLE    8 ..............................
........................................................................

 iter      E             dE          RMSdq      gap      omega  full diag
   1  -5198.6068176 -0.519861E+04  0.137E-03    4.05       0.0  T
   2  -5198.6068178 -0.155037E-06  0.871E-04    4.05       1.8  T
   3  -5198.6068168  0.948469E-06  0.406E-04    4.05       4.0  T
     SCC iter.                  ...        9 min, 56.480 sec
     gradient                   ...        4 min, 34.389 sec
 * total energy  : -5104.0623996 Eh     change    :  -0.6397997E-04 Eh
   gradient norm :     0.0095180 Eh/a0  converged?    E=F G=F D=F
   time step     :     0.3327500 fs     power     :   0.1744001E-08
   step length   :     0.0119097 a0     speed     :   0.8657613E-03

........................................................................
.............................. CYCLE    9 ..............................
........................................................................

 iter      E             dE          RMSdq      gap      omega  full diag
   1  -5198.6139839 -0.519861E+04  0.149E-03    4.05       0.0  T
   2  -5198.6139840 -0.181208E-06  0.946E-04    4.06       1.7  T
   3  -5198.6139829  0.115885E-05  0.460E-04    4.06       3.5  T
   4  -5198.6139842 -0.136732E-05  0.523E-05    4.06      30.7  T
   5  -5198.6139843 -0.750515E-08  0.241E-05    4.06      66.9  T
     SCC iter.                  ...       16 min, 30.178 sec
     gradient                   ...        4 min, 34.332 sec
 * total energy  : -5104.0624458 Eh     change    :  -0.4616773E-04 Eh
   gradient norm :     0.0092314 Eh/a0  converged?    E=F G=F D=F
   time step     :     0.3660250 fs     power     :   0.8537108E-09
   step length   :     0.0129822 a0     speed     :   0.8579325E-03

........................................................................
.............................. CYCLE   10 ..............................
........................................................................

 iter      E             dE          RMSdq      gap      omega  full diag
   1  -5198.6214521 -0.519862E+04  0.155E-03    4.06       0.0  T
   2  -5198.6214523 -0.208766E-06  0.983E-04    4.06       1.6  T
   3  -5198.6214511  0.126612E-05  0.500E-04    4.06       3.2  T
   4  -5198.6214526 -0.153294E-05  0.547E-05    4.06      29.4  T
   5  -5198.6214526 -0.967339E-08  0.234E-05    4.06      68.7  T
     SCC iter.                  ...       16 min, 35.237 sec
     gradient                   ...        4 min, 33.678 sec
 * total energy  : -5104.0624727 Eh     change    :  -0.2692885E-04 Eh
   gradient norm :     0.0090050 Eh/a0  converged?    E=F G=F D=F
   time step     :     0.4026275 fs     power     :   0.1592982E-09
   step length   :     0.0137263 a0     speed     :   0.8246390E-03

........................................................................
.............................. CYCLE   11 ..............................
........................................................................

 iter      E             dE          RMSdq      gap      omega  full diag
   1  -5198.6284661 -0.519863E+04  0.156E-03    4.06       0.0  T
   2  -5198.6284663 -0.217492E-06  0.969E-04    4.06       1.7  T
   3  -5198.6284652  0.109590E-05  0.477E-04    4.06       3.4  T
   4  -5198.6284665 -0.131501E-05  0.590E-05    4.06      27.3  T
   5  -5198.6284666 -0.133241E-07  0.225E-05    4.06      71.5  T
     SCC iter.                  ...       16 min, 30.896 sec
     gradient                   ...        4 min, 34.161 sec
 * total energy  : -5104.0624832 Eh     change    :  -0.1046829E-04 Eh
   gradient norm :     0.0092183 Eh/a0  converged?    E=F G=F D=F
   time step     :     0.4428903 fs     power     :  -0.3511881E-09
   step length   :     0.0141259 a0     speed     :   0.7715001E-03

........................................................................
.............................. CYCLE   12 ..............................
........................................................................
 * reset velocities

 iter      E             dE          RMSdq      gap      omega  full diag
   1  -5198.6283057 -0.519863E+04  0.389E-05    4.06       0.0  T
   2  -5198.6283057 -0.375621E-09  0.296E-05    4.06      54.4  T
   3  -5198.6283057 -0.154614E-10  0.147E-05    4.06     109.1  T
     SCC iter.                  ...        9 min, 54.644 sec
     gradient                   ...        4 min, 33.705 sec
 * total energy  : -5104.0624871 Eh     change    :  -0.3867779E-05 Eh
   gradient norm :     0.0090353 Eh/a0  converged?    E=T G=F D=T
   time step     :     0.2214451 fs     power     :   0.2294551E-09
   step length   :     0.0004238 a0     speed     :   0.4629573E-04

........................................................................
.............................. CYCLE   13 ..............................
........................................................................

 iter      E             dE          RMSdq      gap      omega  full diag
   1  -5198.6279847 -0.519863E+04  0.779E-05    4.06       0.0  T
   2  -5198.6279847 -0.165346E-08  0.558E-05    4.06      28.9  T
   3  -5198.6279847  0.229738E-08  0.244E-05    4.06      65.8  T
     SCC iter.                  ...        9 min, 55.128 sec
     gradient                   ...        4 min, 35.471 sec
 * total energy  : -5104.0624945 Eh     change    :  -0.7434332E-05 Eh
   gradient norm :     0.0086770 Eh/a0  converged?    E=F G=F D=T
   time step     :     0.2214451 fs     power     :   0.4362066E-09
   step length   :     0.0008392 a0     speed     :   0.9167102E-04

........................................................................
.............................. CYCLE   14 ..............................
........................................................................

 iter      E             dE          RMSdq      gap      omega  full diag
   1  -5198.6275060 -0.519863E+04  0.116E-04    4.06       0.0  T
   2  -5198.6275060 -0.315049E-08  0.815E-05    4.06      19.8  T
   3  -5198.6275060  0.545424E-08  0.349E-05    4.06      46.1  T
     SCC iter.                  ...        9 min, 53.194 sec
     gradient                   ...        4 min, 33.901 sec
 * total energy  : -5104.0625049 Eh     change    :  -0.1040412E-04 Eh
   gradient norm :     0.0081582 Eh/a0  converged?    E=F G=F D=F
   time step     :     0.2214451 fs     power     :   0.6044904E-09
   step length   :     0.0012381 a0     speed     :   0.1352372E-03

........................................................................
.............................. CYCLE   15 ..............................
........................................................................

 iter      E             dE          RMSdq      gap      omega  full diag
   1  -5198.6268733 -0.519863E+04  0.151E-04    4.06       0.0  T
   2  -5198.6268733 -0.517139E-08  0.106E-04    4.06      15.2  T
   3  -5198.6268733  0.960063E-08  0.450E-05    4.06      35.8  T
     SCC iter.                  ...        9 min, 55.261 sec
     gradient                   ...        4 min, 35.368 sec
 * total energy  : -5104.0625175 Eh     change    :  -0.1257258E-04 Eh
   gradient norm :     0.0075030 Eh/a0  converged?    E=F G=F D=F
   time step     :     0.2214451 fs     power     :   0.7225048E-09
   step length   :     0.0016127 a0     speed     :   0.1761622E-03

........................................................................
.............................. CYCLE   16 ..............................
........................................................................

 iter      E             dE          RMSdq      gap      omega  full diag
   1  -5198.6260911 -0.519863E+04  0.183E-04    4.06       0.0  T
   2  -5198.6260911 -0.745422E-08  0.127E-04    4.06      12.6  T
   3  -5198.6260911  0.144200E-07  0.541E-05    4.06      29.7  T
     SCC iter.                  ...        9 min, 56.570 sec
     gradient                   ...        4 min, 34.023 sec
 * total energy  : -5104.0625313 Eh     change    :  -0.1384746E-04 Eh
   gradient norm :     0.0067440 Eh/a0  converged?    E=F G=F D=F
   time step     :     0.2214451 fs     power     :   0.7836993E-09
   step length   :     0.0019564 a0     speed     :   0.2136977E-03

........................................................................
.............................. CYCLE   17 ..............................
........................................................................

 iter      E             dE          RMSdq      gap      omega  full diag
   1  -5198.6251643 -0.519863E+04  0.210E-04    4.06       0.0  T
   2  -5198.6251643 -0.935961E-08  0.146E-04    4.06      11.0  T
   3  -5198.6251643  0.201035E-07  0.622E-05    4.06      25.9  T
     SCC iter.                  ...        9 min, 54.961 sec
     gradient                   ...        4 min, 34.418 sec
 * total energy  : -5104.0625454 Eh     change    :  -0.1410811E-04 Eh
   gradient norm :     0.0059251 Eh/a0  converged?    E=F G=F D=F
   time step     :     0.2214451 fs     power     :   0.7875492E-09
   step length   :     0.0022630 a0     speed     :   0.2471922E-03

........................................................................
.............................. CYCLE   18 ..............................
........................................................................

 iter      E             dE          RMSdq      gap      omega  full diag
   1  -5198.6239785 -0.519862E+04  0.256E-04    4.06       0.0  T
   2  -5198.6239785 -0.133923E-07  0.180E-04    4.06       9.0  T
   3  -5198.6239785  0.318623E-07  0.774E-05    4.06      20.8  T
     SCC iter.                  ...        9 min, 56.543 sec
     gradient                   ...        4 min, 34.611 sec
 * total energy  : -5104.0625603 Eh     change    :  -0.1489336E-04 Eh
   gradient norm :     0.0050183 Eh/a0  converged?    E=F G=F D=F
   time step     :     0.2435896 fs     power     :   0.7318418E-09
   step length   :     0.0028098 a0     speed     :   0.2790185E-03

........................................................................
.............................. CYCLE   19 ..............................
........................................................................

 iter      E             dE          RMSdq      gap      omega  full diag
   1  -5198.6224873 -0.519862E+04  0.305E-04    4.06       0.0  T
   2  -5198.6224873 -0.177279E-07  0.214E-04    4.06       7.5  T
   3  -5198.6224872  0.488508E-07  0.932E-05    4.06      17.3  T
     SCC iter.                  ...        9 min, 55.237 sec
     gradient                   ...        4 min, 36.044 sec
 * total energy  : -5104.0625748 Eh     change    :  -0.1442882E-04 Eh
   gradient norm :     0.0041322 Eh/a0  converged?    E=F G=F D=F
   time step     :     0.2679486 fs     power     :   0.6146245E-09
   step length   :     0.0034038 a0     speed     :   0.3072761E-03

........................................................................
.............................. CYCLE   20 ..............................
........................................................................

 iter      E             dE          RMSdq      gap      omega  full diag
   1  -5198.6206504 -0.519862E+04  0.350E-04    4.06       0.0  T
   2  -5198.6206504 -0.213377E-07  0.246E-04    4.06       6.5  T
   3  -5198.6206503  0.709369E-07  0.109E-04    4.06      14.8  T
     SCC iter.                  ...        9 min, 55.117 sec
     gradient                   ...        4 min, 33.999 sec
 * total energy  : -5104.0625873 Eh     change    :  -0.1252668E-04 Eh
   gradient norm :     0.0034834 Eh/a0  converged?    E=F G=F D=F
   time step     :     0.2947435 fs     power     :   0.4507173E-09
   step length   :     0.0040117 a0     speed     :   0.3292300E-03
 * RMSD in coord.:     0.0013877 a0     energy gain  -0.9154539E-03 Eh

........................................................................
.............................. CYCLE   21 ..............................
........................................................................

 iter      E             dE          RMSdq      gap      omega  full diag
   1  -5198.6189916 -0.519862E+04  0.295E-04    4.06       0.0  T
   2  -5198.6189917 -0.126156E-07  0.205E-04    4.06       7.9  T
   3  -5198.6189916  0.525724E-07  0.910E-05    4.06      17.7  T
     SCC iter.                  ...        9 min, 57.041 sec
     gradient                   ...        4 min, 34.477 sec
 * total energy  : -5104.0625951 Eh     change    :  -0.7820878E-05 Eh
   gradient norm :     0.0033041 Eh/a0  converged?    E=F G=F D=F
   time step     :     0.2500000 fs     power     :   0.3254183E-09
   step length   :     0.0034733 a0     speed     :   0.3360577E-03

........................................................................
.............................. CYCLE   22 ..............................
........................................................................

 iter      E             dE          RMSdq      gap      omega  full diag
   1  -5198.6173008 -0.519862E+04  0.280E-04    4.06       0.0  T
   2  -5198.6173008 -0.943965E-08  0.193E-04    4.06       8.3  T
   3  -5198.6173008  0.510754E-07  0.886E-05    4.06      18.2  T
     SCC iter.                  ...        9 min, 55.384 sec
     gradient                   ...        4 min, 31.952 sec
 * total energy  : -5104.0626010 Eh     change    :  -0.5903458E-05 Eh
   gradient norm :     0.0033819 Eh/a0  converged?    E=F G=F D=F
   time step     :     0.2500000 fs     power     :   0.2398905E-09
   step length   :     0.0034454 a0     speed     :   0.3333629E-03

........................................................................
.............................. CYCLE   23 ..............................
........................................................................

 iter      E             dE          RMSdq      gap      omega  full diag
   1  -5198.6156541 -0.519862E+04  0.262E-04    4.06       0.0  T
   2  -5198.6156541 -0.653290E-08  0.176E-04    4.05       9.1  T
   3  -5198.6156541  0.406408E-07  0.795E-05    4.05      20.2  T
     SCC iter.                  ...        9 min, 55.827 sec
     gradient                   ...        4 min, 33.280 sec
 * total energy  : -5104.0626059 Eh     change    :  -0.4853959E-05 Eh
   gradient norm :     0.0035559 Eh/a0  converged?    E=T G=F D=F
   time step     :     0.2500000 fs     power     :   0.2015145E-09
   step length   :     0.0033490 a0     speed     :   0.3240294E-03

........................................................................
.............................. CYCLE   24 ..............................
........................................................................

 iter      E             dE          RMSdq      gap      omega  full diag
   1  -5198.6141171 -0.519861E+04  0.246E-04    4.05       0.0  T
   2  -5198.6141171 -0.416185E-08  0.159E-04    4.05      10.1  T
   3  -5198.6141171  0.238306E-07  0.623E-05    4.05      25.8  T
     SCC iter.                  ...        9 min, 58.807 sec
     gradient                   ...        4 min, 33.594 sec
 * total energy  : -5104.0626104 Eh     change    :  -0.4588144E-05 Eh
   gradient norm :     0.0037057 Eh/a0  converged?    E=T G=F D=F
   time step     :     0.2500000 fs     power     :   0.2027106E-09
   step length   :     0.0032286 a0     speed     :   0.3123829E-03

........................................................................
.............................. CYCLE   25 ..............................
........................................................................

 iter      E             dE          RMSdq      gap      omega  full diag
   1  -5198.6127374 -0.519861E+04  0.236E-04    4.05       0.0  T
   2  -5198.6127374 -0.291402E-08  0.146E-04    4.05      11.0  T
   3  -5198.6127374  0.729506E-08  0.372E-05    4.05      43.2  T
     SCC iter.                  ...        9 min, 54.522 sec
     gradient                   ...        4 min, 33.815 sec
 * total energy  : -5104.0626153 Eh     change    :  -0.4880021E-05 Eh
   gradient norm :     0.0037733 Eh/a0  converged?    E=T G=F D=F
   time step     :     0.2500000 fs     power     :   0.2289083E-09
   step length   :     0.0031204 a0     speed     :   0.3019112E-03

........................................................................
.............................. CYCLE   26 ..............................
........................................................................

 iter      E             dE          RMSdq      gap      omega  full diag
   1  -5198.6114299 -0.519861E+04  0.255E-04    4.05       0.0  T
   2  -5198.6114299 -0.278942E-08  0.152E-04    4.05      10.6  T
   3  -5198.6114299  0.149157E-08  0.239E-05    4.05      67.3  T
     SCC iter.                  ...        9 min, 55.445 sec
     gradient                   ...        4 min, 33.029 sec
 * total energy  : -5104.0626214 Eh     change    :  -0.6045708E-05 Eh
   gradient norm :     0.0037348 Eh/a0  converged?    E=F G=F D=F
   time step     :     0.2750000 fs     power     :   0.2647702E-09
   step length   :     0.0033613 a0     speed     :   0.2956555E-03

........................................................................
.............................. CYCLE   27 ..............................
........................................................................

 iter      E             dE          RMSdq      gap      omega  full diag
   1  -5198.6102566 -0.519861E+04  0.282E-04    4.05       0.0  T
   2  -5198.6102566 -0.299133E-08  0.166E-04    4.05       9.7  T
   3  -5198.6102566  0.336968E-08  0.307E-05    4.05      52.3  T
     SCC iter.                  ...        9 min, 57.560 sec
     gradient                   ...        4 min, 32.705 sec
 * total energy  : -5104.0626288 Eh     change    :  -0.7397271E-05 Eh
   gradient norm :     0.0035776 Eh/a0  converged?    E=F G=F D=F
   time step     :     0.3025000 fs     power     :   0.2980432E-09
   step length   :     0.0036835 a0     speed     :   0.2945458E-03

........................................................................
.............................. CYCLE   28 ..............................
........................................................................

 iter      E             dE          RMSdq      gap      omega  full diag
   1  -5198.6092894 -0.519861E+04  0.319E-04    4.05       0.0  T
   2  -5198.6092894 -0.398177E-08  0.188E-04    4.05       8.5  T
   3  -5198.6092894  0.134669E-07  0.536E-05    4.05      30.0  T
     SCC iter.                  ...        9 min, 59.156 sec
     gradient                   ...        4 min, 34.042 sec
 * total energy  : -5104.0626375 Eh     change    :  -0.8689387E-05 Eh
   gradient norm :     0.0033138 Eh/a0  converged?    E=F G=F D=F
   time step     :     0.3327500 fs     power     :   0.3177298E-09
   step length   :     0.0041042 a0     speed     :   0.2983464E-03

........................................................................
.............................. CYCLE   29 ..............................
........................................................................

 iter      E             dE          RMSdq      gap      omega  full diag
   1  -5198.6086115 -0.519861E+04  0.365E-04    4.05       0.0  T
   2  -5198.6086116 -0.601176E-08  0.218E-04    4.05       7.4  T
   3  -5198.6086115  0.376494E-07  0.861E-05    4.05      18.7  T
     SCC iter.                  ...        9 min, 56.161 sec
     gradient                   ...        4 min, 33.916 sec
 * total energy  : -5104.0626472 Eh     change    :  -0.9695378E-05 Eh
   gradient norm :     0.0029861 Eh/a0  converged?    E=F G=F D=F
   time step     :     0.3660250 fs     power     :   0.3159541E-09
   step length   :     0.0046291 a0     speed     :   0.3059128E-03

........................................................................
.............................. CYCLE   30 ..............................
........................................................................

 iter      E             dE          RMSdq      gap      omega  full diag
   1  -5198.6083117 -0.519861E+04  0.413E-04    4.05       0.0  T
   2  -5198.6083117 -0.820637E-08  0.251E-04    4.06       6.4  T
   3  -5198.6083117  0.686432E-07  0.115E-04    4.06      14.0  T
     SCC iter.                  ...        9 min, 56.248 sec
     gradient                   ...        4 min, 33.364 sec
 * total energy  : -5104.0626572 Eh     change    :  -0.1007910E-04 Eh
   gradient norm :     0.0026742 Eh/a0  converged?    E=F G=F D=F
   time step     :     0.4026275 fs     power     :   0.2911903E-09
   step length   :     0.0052487 a0     speed     :   0.3153274E-03

........................................................................
.............................. CYCLE   31 ..............................
........................................................................

 iter      E             dE          RMSdq      gap      omega  full diag
   1  -5198.6084640 -0.519861E+04  0.456E-04    4.06       0.0  T
   2  -5198.6084641 -0.104610E-07  0.280E-04    4.06       5.8  T
   3  -5198.6084640  0.936288E-07  0.133E-04    4.06      12.1  T
     SCC iter.                  ...        9 min, 54.788 sec
     gradient                   ...        4 min, 34.685 sec
 * total energy  : -5104.0626672 Eh     change    :  -0.9928839E-05 Eh
   gradient norm :     0.0024698 Eh/a0  converged?    E=F G=F D=F
   time step     :     0.4428903 fs     power     :   0.2510692E-09
   step length   :     0.0059351 a0     speed     :   0.3241485E-03

........................................................................
.............................. CYCLE   32 ..............................
........................................................................

 iter      E             dE          RMSdq      gap      omega  full diag
   1  -5198.6090878 -0.519861E+04  0.486E-04    4.06       0.0  T
   2  -5198.6090878 -0.117643E-07  0.297E-04    4.06       5.4  T
   3  -5198.6090877  0.974242E-07  0.135E-04    4.06      11.9  T
     SCC iter.                  ...        9 min, 55.655 sec
     gradient                   ...        4 min, 35.760 sec
 * total energy  : -5104.0626766 Eh     change    :  -0.9384709E-05 Eh
   gradient norm :     0.0024052 Eh/a0  converged?    E=F G=F D=F
   time step     :     0.4871793 fs     power     :   0.2102458E-09
   step length   :     0.0066485 a0     speed     :   0.3301020E-03

........................................................................
.............................. CYCLE   33 ..............................
........................................................................

 iter      E             dE          RMSdq      gap      omega  full diag
   1  -5198.6101100 -0.519861E+04  0.497E-04    4.06       0.0  T
   2  -5198.6101101 -0.127466E-07  0.300E-04    4.06       5.4  T
   3  -5198.6101100  0.656573E-07  0.111E-04    4.06      14.5  T
     SCC iter.                  ...        9 min, 56.041 sec
     gradient                   ...        4 min, 35.203 sec
 * total energy  : -5104.0626857 Eh     change    :  -0.9152149E-05 Eh
   gradient norm :     0.0024398 Eh/a0  converged?    E=F G=F D=F
   time step     :     0.5358972 fs     power     :   0.1822577E-09
   step length   :     0.0073659 a0     speed     :   0.3324755E-03

........................................................................
.............................. CYCLE   34 ..............................
........................................................................

 iter      E             dE          RMSdq      gap      omega  full diag
   1  -5198.6113631 -0.519861E+04  0.487E-04    4.06       0.0  T
   2  -5198.6113631 -0.124946E-07  0.291E-04    4.06       5.5  T
   3  -5198.6113631  0.160726E-07  0.628E-05    4.06      25.6  T
     SCC iter.                  ...        9 min, 57.417 sec
     gradient                   ...        4 min, 35.106 sec
 * total energy  : -5104.0626952 Eh     change    :  -0.9461710E-05 Eh
   gradient norm :     0.0025189 Eh/a0  converged?    E=F G=F D=F
   time step     :     0.5894869 fs     power     :   0.1745550E-09
   step length   :     0.0081097 a0     speed     :   0.3327695E-03

........................................................................
.............................. CYCLE   35 ..............................
........................................................................

 iter      E             dE          RMSdq      gap      omega  full diag
   1  -5198.6126132 -0.519861E+04  0.462E-04    4.06       0.0  T
   2  -5198.6126132 -0.982891E-08  0.280E-04    4.06       5.7  T
   3  -5198.6126132  0.161099E-07  0.587E-05    4.06      27.4  T
     SCC iter.                  ...        9 min, 56.764 sec
     gradient                   ...        4 min, 33.559 sec
 * total energy  : -5104.0627059 Eh     change    :  -0.1071121E-04 Eh
   gradient norm :     0.0025413 Eh/a0  converged?    E=F G=F D=F
   time step     :     0.6484356 fs     power     :   0.1872387E-09
   step length   :     0.0089497 a0     speed     :   0.3338542E-03

........................................................................
.............................. CYCLE   36 ..............................
........................................................................

 iter      E             dE          RMSdq      gap      omega  full diag
   1  -5198.6135999 -0.519861E+04  0.445E-04    4.06       0.0  T
   2  -5198.6136000 -0.735145E-08  0.274E-04    4.06       5.9  T
   3  -5198.6135999  0.265327E-07  0.704E-05    4.06      22.9  T
     SCC iter.                  ...        9 min, 54.847 sec
     gradient                   ...        4 min, 33.785 sec
 * total energy  : -5104.0627186 Eh     change    :  -0.1275543E-04 Eh
   gradient norm :     0.0024065 Eh/a0  converged?    E=F G=F D=F
   time step     :     0.7132792 fs     power     :   0.2054826E-09
   step length   :     0.0099874 a0     speed     :   0.3386958E-03

........................................................................
.............................. CYCLE   37 ..............................
........................................................................

 iter      E             dE          RMSdq      gap      omega  full diag
   1  -5198.6140902 -0.519861E+04  0.444E-04    4.06       0.0  T
   2  -5198.6140902 -0.117680E-07  0.284E-04    4.06       5.7  T
   3  -5198.6140901  0.720611E-07  0.109E-04    4.06      14.7  T
     SCC iter.                  ...        9 min, 53.861 sec
     gradient                   ...        4 min, 33.823 sec
 * total energy  : -5104.0627332 Eh     change    :  -0.1455007E-04 Eh
   gradient norm :     0.0023035 Eh/a0  converged?    E=F G=F D=F
   time step     :     0.7846071 fs     power     :   0.2106509E-09
   step length   :     0.0112913 a0     speed     :   0.3481018E-03

........................................................................
.............................. CYCLE   38 ..............................
........................................................................

 iter      E             dE          RMSdq      gap      omega  full diag
   1  -5198.6139552 -0.519861E+04  0.472E-04    4.06       0.0  T
   2  -5198.6139552 -0.169239E-07  0.297E-04    4.06       5.4  T
   3  -5198.6139551  0.634609E-07  0.107E-04    4.06      15.0  T
     SCC iter.                  ...        9 min, 55.764 sec
     gradient                   ...        4 min, 34.825 sec
 * total energy  : -5104.0627498 Eh     change    :  -0.1660823E-04 Eh
   gradient norm :     0.0024313 Eh/a0  converged?    E=F G=F D=F
   time step     :     0.8630678 fs     power     :   0.2223486E-09
   step length   :     0.0128394 a0     speed     :   0.3598441E-03

........................................................................
.............................. CYCLE   39 ..............................
........................................................................

 iter      E             dE          RMSdq      gap      omega  full diag
   1  -5198.6133712 -0.519861E+04  0.546E-04    4.06       0.0  T
   2  -5198.6133712 -0.160235E-07  0.330E-04    4.06       4.9  T
   3  -5198.6133712  0.270202E-07  0.781E-05    4.06      20.6  T
     SCC iter.                  ...        9 min, 55.596 sec
     gradient                   ...        4 min, 32.350 sec
 * total energy  : -5104.0627705 Eh     change    :  -0.2073986E-04 Eh
   gradient norm :     0.0023789 Eh/a0  converged?    E=F G=F D=F
   time step     :     0.9493746 fs     power     :   0.2618256E-09
   step length   :     0.0147027 a0     speed     :   0.3746053E-03

........................................................................
.............................. CYCLE   40 ..............................
........................................................................

 iter      E             dE          RMSdq      gap      omega  full diag
   1  -5198.6129370 -0.519861E+04  0.632E-04    4.06       0.0  T
   2  -5198.6129370 -0.173077E-07  0.383E-04    4.06       4.2  T
   3  -5198.6129370  0.480177E-07  0.982E-05    4.06      16.4  T
     SCC iter.                  ...        9 min, 54.402 sec
     gradient                   ...        4 min, 33.614 sec
 * total energy  : -5104.0627956 Eh     change    :  -0.2511585E-04 Eh
   gradient norm :     0.0020912 Eh/a0  converged?    E=F G=F D=F
   time step     :     1.0443120 fs     power     :   0.2819287E-09
   step length   :     0.0171325 a0     speed     :   0.3968306E-03

........................................................................
.............................. CYCLE   41 ..............................
........................................................................

 iter      E             dE          RMSdq      gap      omega  full diag
   1  -5198.6135771 -0.519861E+04  0.675E-04    4.06       0.0  T
   2  -5198.6135771 -0.201044E-07  0.414E-04    4.06       3.9  T
   3  -5198.6135770  0.740856E-07  0.119E-04    4.06      13.5  T
     SCC iter.                  ...        9 min, 54.786 sec
     gradient                   ...        4 min, 32.790 sec
 * total energy  : -5104.0628229 Eh     change    :  -0.2724443E-04 Eh
   gradient norm :     0.0021838 Eh/a0  converged?    E=F G=F D=F
   time step     :     1.1487432 fs     power     :   0.2706216E-09
   step length   :     0.0201044 a0     speed     :   0.4233332E-03

........................................................................
.............................. CYCLE   42 ..............................
........................................................................

 iter      E             dE          RMSdq      gap      omega  full diag
   1  -5198.6154817 -0.519862E+04  0.725E-04    4.06       0.0  T
   2  -5198.6154817 -0.147411E-07  0.431E-04    4.06       3.7  T
   3  -5198.6154817  0.160862E-07  0.672E-05    4.06      23.9  T
     SCC iter.                  ...        9 min, 56.964 sec
     gradient                   ...        4 min, 32.522 sec
 * total energy  : -5104.0628549 Eh     change    :  -0.3199364E-04 Eh
   gradient norm :     0.0022964 Eh/a0  converged?    E=F G=F D=F
   time step     :     1.2500000 fs     power     :   0.3126155E-09
   step length   :     0.0231148 a0     speed     :   0.4472957E-03
 * RMSD in coord.:     0.0025701 a0     energy gain  -0.2675994E-03 Eh

........................................................................
.............................. CYCLE   43 ..............................
........................................................................

 iter      E             dE          RMSdq      gap      omega  full diag
   1  -5198.6158274 -0.519862E+04  0.142E-04    4.06       0.0  T
   2  -5198.6158274 -0.697582E-09  0.835E-05    4.06      19.3  T
   3  -5198.6158274  0.229284E-08  0.234E-05    4.06      68.7  T
     SCC iter.                  ...        9 min, 58.042 sec
     gradient                   ...        4 min, 32.855 sec
 * total energy  : -5104.0628614 Eh     change    :  -0.6566312E-05 Eh
   gradient norm :     0.0022252 Eh/a0  converged?    E=F G=F D=F
   time step     :     0.2500000 fs     power     :   0.3456606E-09
   step length   :     0.0045192 a0     speed     :   0.4372528E-03

........................................................................
.............................. CYCLE   44 ..............................
........................................................................

 iter      E             dE          RMSdq      gap      omega  full diag
   1  -5198.6161200 -0.519862E+04  0.150E-04    4.06       0.0  T
   2  -5198.6161200 -0.878572E-09  0.896E-05    4.06      17.9  T
   3  -5198.6161200  0.311411E-08  0.265E-05    4.06      60.8  T
     SCC iter.                  ...        9 min, 56.423 sec
     gradient                   ...        4 min, 34.428 sec
 * total energy  : -5104.0628685 Eh     change    :  -0.7025963E-05 Eh
   gradient norm :     0.0020288 Eh/a0  converged?    E=F G=F D=F
   time step     :     0.2500000 fs     power     :   0.3647027E-09
   step length   :     0.0044664 a0     speed     :   0.4321519E-03

........................................................................
.............................. CYCLE   45 ..............................
........................................................................

 iter      E             dE          RMSdq      gap      omega  full diag
   1  -5198.6163493 -0.519862E+04  0.166E-04    4.06       0.0  T
   2  -5198.6163493 -0.146065E-08  0.100E-04    4.06      16.0  T
   3  -5198.6163493  0.519321E-08  0.325E-05    4.06      49.6  T
     SCC iter.                  ...        9 min, 54.803 sec
     gradient                   ...        4 min, 34.492 sec
 * total energy  : -5104.0628756 Eh     change    :  -0.7109060E-05 Eh
   gradient norm :     0.0017803 Eh/a0  converged?    E=F G=F D=F
   time step     :     0.2500000 fs     power     :   0.3634236E-09
   step length   :     0.0044639 a0     speed     :   0.4319040E-03

........................................................................
.............................. CYCLE   46 ..............................
........................................................................

 iter      E             dE          RMSdq      gap      omega  full diag
   1  -5198.6165119 -0.519862E+04  0.180E-04    4.06       0.0  T
   2  -5198.6165119 -0.176351E-08  0.110E-04    4.06      14.7  T
   3  -5198.6165119  0.617638E-08  0.354E-05    4.06      45.4  T
     SCC iter.                  ...        9 min, 55.010 sec
     gradient                   ...        4 min, 33.667 sec
 * total energy  : -5104.0628824 Eh     change    :  -0.6840595E-05 Eh
   gradient norm :     0.0015841 Eh/a0  converged?    E=F G=F D=F
   time step     :     0.2500000 fs     power     :   0.3450957E-09
   step length   :     0.0045006 a0     speed     :   0.4354620E-03

........................................................................
.............................. CYCLE   47 ..............................
........................................................................

 iter      E             dE          RMSdq      gap      omega  full diag
   1  -5198.6166141 -0.519862E+04  0.185E-04    4.06       0.0  T
   2  -5198.6166141 -0.167074E-08  0.113E-04    4.06      14.3  T
   3  -5198.6166141  0.615910E-08  0.344E-05    4.06      46.8  T
     SCC iter.                  ...        9 min, 59.818 sec
     gradient                   ...        4 min, 35.784 sec
 * total energy  : -5104.0628888 Eh     change    :  -0.6369421E-05 Eh
   gradient norm :     0.0015260 Eh/a0  converged?    E=F G=F D=F
   time step     :     0.2500000 fs     power     :   0.3213762E-09
   step length   :     0.0045511 a0     speed     :   0.4403463E-03

........................................................................
.............................. CYCLE   48 ..............................
........................................................................

 iter      E             dE          RMSdq      gap      omega  full diag
   1  -5198.6166760 -0.519862E+04  0.196E-04    4.06       0.0  T
   2  -5198.6166760 -0.170076E-08  0.119E-04    4.06      13.6  T
   3  -5198.6166760  0.568252E-08  0.327E-05    4.06      49.3  T
     SCC iter.                  ...        9 min, 55.939 sec
     gradient                   ...        4 min, 33.688 sec
 * total energy  : -5104.0628954 Eh     change    :  -0.6616799E-05 Eh
   gradient norm :     0.0016024 Eh/a0  converged?    E=F G=F D=F
   time step     :     0.2750000 fs     power     :   0.3038346E-09
   step length   :     0.0050452 a0     speed     :   0.4437744E-03

........................................................................
.............................. CYCLE   49 ..............................
........................................................................

 iter      E             dE          RMSdq      gap      omega  full diag
   1  -5198.6167112 -0.519862E+04  0.195E-04    4.06       0.0  T
   2  -5198.6167112 -0.133787E-08  0.117E-04    4.06      13.8  T
   3  -5198.6167112  0.323598E-08  0.256E-05    4.06      62.9  T
     SCC iter.                  ...        9 min, 55.806 sec
     gradient                   ...        4 min, 34.411 sec
 * total energy  : -5104.0629025 Eh     change    :  -0.7135619E-05 Eh
   gradient norm :     0.0017269 Eh/a0  converged?    E=F G=F D=F
   time step     :     0.3025000 fs     power     :   0.3018939E-09
   step length   :     0.0055521 a0     speed     :   0.4439598E-03

........................................................................
.............................. CYCLE   50 ..............................
........................................................................

 iter      E             dE          RMSdq      gap      omega  full diag
   1  -5198.6167292 -0.519862E+04  0.189E-04    4.06       0.0  T
   2  -5198.6167292 -0.854925E-09  0.112E-04    4.06      14.4  T
   3  -5198.6167292  0.116688E-08  0.171E-05    4.06      93.8  T
     SCC iter.                  ...        9 min, 56.141 sec
     gradient                   ...        4 min, 33.840 sec
 * total energy  : -5104.0629106 Eh     change    :  -0.8017580E-05 Eh
   gradient norm :     0.0017946 Eh/a0  converged?    E=F G=F D=F
   time step     :     0.3327500 fs     power     :   0.3143375E-09
   step length   :     0.0060912 a0     speed     :   0.4427886E-03

........................................................................
.............................. CYCLE   51 ..............................
........................................................................

 iter      E             dE          RMSdq      gap      omega  full diag
   1  -5198.6167271 -0.519862E+04  0.190E-04    4.06       0.0  T
   2  -5198.6167271 -0.694854E-09  0.112E-04    4.06      14.3  T
   3  -5198.6167271  0.104046E-08  0.169E-05    4.06      95.3  T
     SCC iter.                  ...        9 min, 56.197 sec
     gradient                   ...        4 min, 34.827 sec
 * total energy  : -5104.0629198 Eh     change    :  -0.9262199E-05 Eh
   gradient norm :     0.0017475 Eh/a0  converged?    E=F G=F D=F
   time step     :     0.3660250 fs     power     :   0.3311324E-09
   step length   :     0.0067090 a0     speed     :   0.4433643E-03

........................................................................
.............................. CYCLE   52 ..............................
........................................................................

 iter      E             dE          RMSdq      gap      omega  full diag
   1  -5198.6166822 -0.519862E+04  0.206E-04    4.06       0.0  T
   2  -5198.6166822 -0.117689E-08  0.124E-04    4.06      13.0  T
   3  -5198.6166822  0.366890E-08  0.277E-05    4.06      58.1  T
     SCC iter.                  ...        9 min, 54.450 sec
     gradient                   ...        4 min, 34.599 sec
 * total energy  : -5104.0629304 Eh     change    :  -0.1055728E-04 Eh
   gradient norm :     0.0016050 Eh/a0  converged?    E=F G=F D=F
   time step     :     0.4026275 fs     power     :   0.3399323E-09
   step length   :     0.0074553 a0     speed     :   0.4478930E-03

........................................................................
.............................. CYCLE   53 ..............................
........................................................................

 iter      E             dE          RMSdq      gap      omega  full diag
   1  -5198.6165480 -0.519862E+04  0.236E-04    4.06       0.0  T
   2  -5198.6165480 -0.228829E-08  0.144E-04    4.06      11.2  T
   3  -5198.6165480  0.904492E-08  0.415E-05    4.06      38.7  T
     SCC iter.                  ...        9 min, 57.257 sec
     gradient                   ...        4 min, 32.335 sec
 * total energy  : -5104.0629420 Eh     change    :  -0.1160518E-04 Eh
   gradient norm :     0.0014878 Eh/a0  converged?    E=F G=F D=F
   time step     :     0.4428903 fs     power     :   0.3354315E-09
   step length   :     0.0083653 a0     speed     :   0.4568809E-03

........................................................................
.............................. CYCLE   54 ..............................
........................................................................

 iter      E             dE          RMSdq      gap      omega  full diag
   1  -5198.6162715 -0.519862E+04  0.264E-04    4.06       0.0  T
   2  -5198.6162715 -0.281489E-08  0.162E-04    4.06       9.9  T
   3  -5198.6162715  0.113278E-07  0.459E-05    4.06      35.0  T
     SCC iter.                  ...        9 min, 56.265 sec
     gradient                   ...        4 min, 35.867 sec
 * total energy  : -5104.0629545 Eh     change    :  -0.1252268E-04 Eh
   gradient norm :     0.0015105 Eh/a0  converged?    E=F G=F D=F
   time step     :     0.4871793 fs     power     :   0.3272997E-09
   step length   :     0.0094272 a0     speed     :   0.4680679E-03

........................................................................
.............................. CYCLE   55 ..............................
........................................................................

 iter      E             dE          RMSdq      gap      omega  full diag
   1  -5198.6158495 -0.519862E+04  0.283E-04    4.06       0.0  T
   2  -5198.6158495 -0.209729E-08  0.170E-04    4.06       9.5  T
   3  -5198.6158495  0.657019E-08  0.366E-05    4.06      44.0  T
     SCC iter.                  ...        9 min, 56.718 sec
     gradient                   ...        4 min, 34.173 sec
 * total energy  : -5104.0629682 Eh     change    :  -0.1368532E-04 Eh
   gradient norm :     0.0015921 Eh/a0  converged?    E=F G=F D=F
   time step     :     0.5358972 fs     power     :   0.3302018E-09
   step length   :     0.0105879 a0     speed     :   0.4779079E-03

........................................................................
.............................. CYCLE   56 ..............................
........................................................................

 iter      E             dE          RMSdq      gap      omega  full diag
   1  -5198.6153776 -0.519862E+04  0.298E-04    4.06       0.0  T
   2  -5198.6153776 -0.186537E-08  0.176E-04    4.06       9.1  T
   3  -5198.6153776  0.261934E-08  0.277E-05    4.06      58.1  T
     SCC iter.                  ...        9 min, 55.451 sec
     gradient                   ...        4 min, 33.596 sec
 * total energy  : -5104.0629838 Eh     change    :  -0.1558237E-04 Eh
   gradient norm :     0.0016113 Eh/a0  converged?    E=F G=F D=F
   time step     :     0.5894869 fs     power     :   0.3445177E-09
   step length   :     0.0118726 a0     speed     :   0.4871787E-03

........................................................................
.............................. CYCLE   57 ..............................
........................................................................

 iter      E             dE          RMSdq      gap      omega  full diag
   1  -5198.6150558 -0.519862E+04  0.326E-04    4.06       0.0  T
   2  -5198.6150558 -0.212913E-08  0.194E-04    4.06       8.3  T
   3  -5198.6150558  0.965429E-08  0.435E-05    4.06      37.0  T
     SCC iter.                  ...        9 min, 57.600 sec
     gradient                   ...        4 min, 33.106 sec
 * total energy  : -5104.0630016 Eh     change    :  -0.1784926E-04 Eh
   gradient norm :     0.0015348 Eh/a0  converged?    E=F G=F D=F
   time step     :     0.6484356 fs     power     :   0.3595696E-09
   step length   :     0.0133746 a0     speed     :   0.4989167E-03

........................................................................
.............................. CYCLE   58 ..............................
........................................................................

 iter      E             dE          RMSdq      gap      omega  full diag
   1  -5198.6151395 -0.519862E+04  0.374E-04    4.06       0.0  T
   2  -5198.6151395 -0.351429E-08  0.226E-04    4.06       7.1  T
   3  -5198.6151395  0.241780E-07  0.657E-05    4.06      24.5  T
     SCC iter.                  ...        9 min, 58.230 sec
     gradient                   ...        4 min, 33.878 sec
 * total energy  : -5104.0630218 Eh     change    :  -0.2019472E-04 Eh
   gradient norm :     0.0014491 Eh/a0  converged?    E=F G=F D=F
   time step     :     0.7132792 fs     power     :   0.3647506E-09
   step length   :     0.0151846 a0     speed     :   0.5149419E-03

........................................................................
.............................. CYCLE   59 ..............................
........................................................................

 iter      E             dE          RMSdq      gap      omega  full diag
   1  -5198.6157631 -0.519862E+04  0.415E-04    4.06       0.0  T
   2  -5198.6157631 -0.399723E-08  0.248E-04    4.06       6.5  T
   3  -5198.6157631  0.170676E-07  0.573E-05    4.06      28.1  T
     SCC iter.                  ...        9 min, 55.563 sec
     gradient                   ...        4 min, 34.806 sec
 * total energy  : -5104.0630442 Eh     change    :  -0.2235797E-04 Eh
   gradient norm :     0.0015210 Eh/a0  converged?    E=F G=F D=F
   time step     :     0.7846071 fs     power     :   0.3689594E-09
   step length   :     0.0173178 a0     speed     :   0.5338933E-03

........................................................................
.............................. CYCLE   60 ..............................
........................................................................

 iter      E             dE          RMSdq      gap      omega  full diag
   1  -5198.6166981 -0.519862E+04  0.445E-04    4.06       0.0  T
   2  -5198.6166981 -0.344153E-08  0.262E-04    4.06       6.1  T
   3  -5198.6166981  0.118207E-07  0.498E-05    4.06      32.3  T
     SCC iter.                  ...        9 min, 55.685 sec
     gradient                   ...        4 min, 34.717 sec
 * total energy  : -5104.0630698 Eh     change    :  -0.2564748E-04 Eh
   gradient norm :     0.0015198 Eh/a0  converged?    E=F G=F D=F
   time step     :     0.8630678 fs     power     :   0.3876132E-09
   step length   :     0.0196997 a0     speed     :   0.5521146E-03

........................................................................
.............................. CYCLE   61 ..............................
........................................................................

 iter      E             dE          RMSdq      gap      omega  full diag
   1  -5198.6174763 -0.519862E+04  0.505E-04    4.06       0.0  T
   2  -5198.6174763 -0.540604E-08  0.300E-04    4.06       5.4  T
   3  -5198.6174763  0.286327E-07  0.726E-05    4.06      22.2  T
     SCC iter.                  ...        9 min, 57.339 sec
     gradient                   ...        4 min, 34.933 sec
 * total energy  : -5104.0630992 Eh     change    :  -0.2935113E-04 Eh
   gradient norm :     0.0014275 Eh/a0  converged?    E=F G=F D=F
   time step     :     0.9493746 fs     power     :   0.4014268E-09
   step length   :     0.0225165 a0     speed     :   0.5736907E-03

........................................................................
.............................. CYCLE   62 ..............................
........................................................................

 iter      E             dE          RMSdq      gap      omega  full diag
   1  -5198.6176988 -0.519862E+04  0.567E-04    4.06       0.0  T
   2  -5198.6176988 -0.679120E-08  0.337E-04    4.06       4.8  T
   3  -5198.6176988  0.226719E-07  0.676E-05    4.06      23.8  T
     SCC iter.                  ...        9 min, 55.837 sec
     gradient                   ...        4 min, 33.117 sec
 * total energy  : -5104.0631324 Eh     change    :  -0.3318334E-04 Eh
   gradient norm :     0.0014961 Eh/a0  converged?    E=F G=F D=F
   time step     :     1.0443120 fs     power     :   0.4096938E-09
   step length   :     0.0258941 a0     speed     :   0.5997704E-03

........................................................................
.............................. CYCLE   63 ..............................
........................................................................

 iter      E             dE          RMSdq      gap      omega  full diag
   1  -5198.6174338 -0.519862E+04  0.619E-04    4.06       0.0  T
   2  -5198.6174338 -0.701857E-08  0.366E-04    4.06       4.4  T
   3  -5198.6174338  0.288201E-07  0.773E-05    4.06      20.8  T
     SCC iter.                  ...        9 min, 56.251 sec
     gradient                   ...        4 min, 34.117 sec
 * total energy  : -5104.0631706 Eh     change    :  -0.3820064E-04 Eh
   gradient norm :     0.0014612 Eh/a0  converged?    E=F G=F D=F
   time step     :     1.1487432 fs     power     :   0.4344890E-09
   step length   :     0.0297090 a0     speed     :   0.6255759E-03

........................................................................
.............................. CYCLE   64 ..............................
........................................................................

 iter      E             dE          RMSdq      gap      omega  full diag
   1  -5198.6171294 -0.519862E+04  0.714E-04    4.06       0.0  T
   2  -5198.6171294 -0.108867E-07  0.427E-04    4.06       3.8  T
   3  -5198.6171293  0.726395E-07  0.113E-04    4.06      14.3  T
     SCC iter.                  ...        9 min, 58.728 sec
     gradient                   ...        4 min, 34.876 sec
 * total energy  : -5104.0632139 Eh     change    :  -0.4328813E-04 Eh
   gradient norm :     0.0013938 Eh/a0  converged?    E=F G=F D=F
   time step     :     1.2500000 fs     power     :   0.4470118E-09
   step length   :     0.0339030 a0     speed     :   0.6560591E-03

........................................................................
.............................. CYCLE   65 ..............................
........................................................................

 iter      E             dE          RMSdq      gap      omega  full diag
   1  -5198.6174994 -0.519862E+04  0.735E-04    4.06       0.0  T
   2  -5198.6174994 -0.957698E-08  0.435E-04    4.06       3.7  T
   3  -5198.6174994  0.315486E-07  0.846E-05    4.06      19.0  T
     SCC iter.                  ...        9 min, 54.516 sec
     gradient                   ...        4 min, 36.230 sec
 * total energy  : -5104.0632584 Eh     change    :  -0.4456757E-04 Eh
   gradient norm :     0.0014599 Eh/a0  converged?    E=F G=F D=F
   time step     :     1.2500000 fs     power     :   0.4651278E-09
   step length   :     0.0354811 a0     speed     :   0.6865972E-03

........................................................................
.............................. CYCLE   66 ..............................
........................................................................

 iter      E             dE          RMSdq      gap      omega  full diag
   1  -5198.6181661 -0.519862E+04  0.773E-04    4.06       0.0  T
   2  -5198.6181661 -0.100927E-07  0.460E-04    4.06       3.5  T
   3  -5198.6181660  0.770970E-07  0.116E-04    4.06      13.9  T
     SCC iter.                  ...        9 min, 54.317 sec
     gradient                   ...        4 min, 33.537 sec
 * total energy  : -5104.0633049 Eh     change    :  -0.4649646E-04 Eh
   gradient norm :     0.0013738 Eh/a0  converged?    E=F G=F D=F
   time step     :     1.2500000 fs     power     :   0.4822897E-09
   step length   :     0.0369342 a0     speed     :   0.7147160E-03

........................................................................
.............................. CYCLE   67 ..............................
........................................................................

 iter      E             dE          RMSdq      gap      omega  full diag
   1  -5198.6183917 -0.519862E+04  0.786E-04    4.06       0.0  T
   2  -5198.6183917 -0.124974E-07  0.464E-04    4.06       3.5  T
   3  -5198.6183917  0.487526E-07  0.106E-04    4.06      15.1  T
     SCC iter.                  ...        9 min, 58.672 sec
     gradient                   ...        4 min, 37.224 sec
 * total energy  : -5104.0633523 Eh     change    :  -0.4737907E-04 Eh
   gradient norm :     0.0015432 Eh/a0  converged?    E=F G=F D=F
   time step     :     1.2500000 fs     power     :   0.4885890E-09
   step length   :     0.0384832 a0     speed     :   0.7446910E-03
 * RMSD in coord.:     0.0060692 a0     energy gain  -0.4974121E-03 Eh

........................................................................
.............................. CYCLE   68 ..............................
........................................................................

 iter      E             dE          RMSdq      gap      omega  full diag
   1  -5198.6184489 -0.519862E+04  0.155E-04    4.06       0.0  T
   2  -5198.6184489 -0.463842E-09  0.910E-05    4.06      17.7  T
   3  -5198.6184488  0.236196E-08  0.228E-05    4.06      70.6  T
     SCC iter.                  ...        9 min, 56.655 sec
     gradient                   ...        4 min, 35.104 sec
 * total energy  : -5104.0633620 Eh     change    :  -0.9660530E-05 Eh
   gradient norm :     0.0014501 Eh/a0  converged?    E=F G=F D=F
   time step     :     0.2500000 fs     power     :   0.5057832E-09
   step length   :     0.0076130 a0     speed     :   0.7365977E-03

........................................................................
.............................. CYCLE   69 ..............................
........................................................................

 iter      E             dE          RMSdq      gap      omega  full diag
   1  -5198.6185252 -0.519862E+04  0.164E-04    4.06       0.0  T
   2  -5198.6185252 -0.175260E-08  0.971E-05    4.06      16.6  T
   3  -5198.6185252  0.301407E-08  0.306E-05    4.06      52.5  T
     SCC iter.                  ...        9 min, 55.475 sec
     gradient                   ...        4 min, 34.409 sec
 * total energy  : -5104.0633716 Eh     change    :  -0.9646781E-05 Eh
   gradient norm :     0.0013288 Eh/a0  converged?    E=F G=F D=F
   time step     :     0.2500000 fs     power     :   0.5041414E-09
   step length   :     0.0075942 a0     speed     :   0.7347810E-03

........................................................................
.............................. CYCLE   70 ..............................
........................................................................

 iter      E             dE          RMSdq      gap      omega  full diag
   1  -5198.6186033 -0.519862E+04  0.167E-04    4.06       0.0  T
   2  -5198.6186033 -0.120235E-08  0.998E-05    4.06      16.1  T
   3  -5198.6186033  0.322507E-08  0.284E-05    4.06      56.6  T
     SCC iter.                  ...        9 min, 54.205 sec
     gradient                   ...        4 min, 33.996 sec
 * total energy  : -5104.0633811 Eh     change    :  -0.9512099E-05 Eh
   gradient norm :     0.0013446 Eh/a0  converged?    E=F G=F D=F
   time step     :     0.2500000 fs     power     :   0.4956826E-09
   step length   :     0.0076281 a0     speed     :   0.7380605E-03

........................................................................
[...]
  3615   6 C     3616   6 C                                       1.5321047
  3617   6 C     3618   6 C                                       1.3901279
  3618   6 C     3619   6 C                                       1.3825050
  3619   6 C     3620   6 C                                       1.3846554
  3620   6 C     3621   6 C                                       1.3837755
  3617   6 C     3622   6 C                                       1.3887103
  3621   6 C     3622   6 C                                       1.3835631
  3616   6 C     3623   6 C                                       1.5373007
  3623   6 C     3624   6 C                                       1.5342702
  3625   6 C     3626   6 C                                       1.3909087
  3626   6 C     3627   6 C                                       1.3831828
  3627   6 C     3628   6 C                                       1.3845108
  3628   6 C     3629   6 C                                       1.3837424
  3625   6 C     3630   6 C                                       1.3888085
  3629   6 C     3630   6 C                                       1.3843380
  3624   6 C     3631   6 C                                       1.5356528
  3631   6 C     3632   6 C                                       1.5325169
  3633   6 C     3634   6 C                                       1.3887384
  3634   6 C     3635   6 C                                       1.3841152
  3635   6 C     3636   6 C                                       1.3837695
  3636   6 C     3637   6 C                                       1.3847583
  3633   6 C     3638   6 C                                       1.3914529
  3637   6 C     3638   6 C                                       1.3832361
  3632   6 C     3639   6 C                                       1.5359329
  3641   6 C     3642   6 C                                       1.3903439
  3642   6 C     3643   6 C                                       1.3832652
  3643   6 C     3644   6 C                                       1.3838363
  3644   6 C     3645   6 C                                       1.3838571
  3641   6 C     3646   6 C                                       1.3898891
  3645   6 C     3646   6 C                                       1.3831184
  3640   6 C     3647   6 C                                       1.5327044
  3647   6 C     3648   6 C                                       1.5365833
  3649   6 C     3650   6 C                                       1.3905288
  3650   6 C     3651   6 C                                       1.3833741
  3651   6 C     3652   6 C                                       1.3844413
  3652   6 C     3653   6 C                                       1.3844033
  3649   6 C     3654   6 C                                       1.3895157
  3653   6 C     3654   6 C                                       1.3843727
  3648   6 C     3655   6 C                                       1.5378174
  3655   6 C     3656   6 C                                       1.5384353
  3657   6 C     3658   6 C                                       1.3899279
  3658   6 C     3659   6 C                                       1.3834297
  3659   6 C     3660   6 C                                       1.3843961
  3660   6 C     3661   6 C                                       1.3841912
  3657   6 C     3662   6 C                                       1.3893314
  3661   6 C     3662   6 C                                       1.3837696
  3656   6 C     3663   6 C                                       1.5337385
  3663   6 C     3664   6 C                                       1.5352730
  3665   6 C     3666   6 C                                       1.3890909
  3666   6 C     3667   6 C                                       1.3842387
  3667   6 C     3668   6 C                                       1.3841462
  3668   6 C     3669   6 C                                       1.3851413
  3665   6 C     3670   6 C                                       1.3903412
  3669   6 C     3670   6 C                                       1.3833812
  3671   6 C     3672   6 C                                       1.5347240
  3673   6 C     3674   6 C                                       1.3909619
  3674   6 C     3675   6 C                                       1.3828185
  3675   6 C     3676   6 C                                       1.3847981
  3676   6 C     3677   6 C                                       1.3835365
  3673   6 C     3678   6 C                                       1.3893623
  3677   6 C     3678   6 C                                       1.3848618
  3672   6 C     3679   6 C                                       1.5390768
  3679   6 C     3680   6 C                                       1.5363048
  3681   6 C     3682   6 C                                       1.3903651
  3682   6 C     3683   6 C                                       1.3830299
  3683   6 C     3684   6 C                                       1.3843068
  3684   6 C     3685   6 C                                       1.3830646
  3681   6 C     3686   6 C                                       1.3894163
  3685   6 C     3686   6 C                                       1.3836411
  3680   6 C     3687   6 C                                       1.5348434
  3687   6 C     3688   6 C                                       1.5353873
  3549   6 C     3689   1 H                                       1.0938723
  3551   6 C     3690   1 H                                       1.0928422
  3551   6 C     3691   1 H                                       1.0921602
  3552   6 C     3692   1 H                                       1.0938874
  3559   6 C     3693   1 H                                       1.0908693
  3559   6 C     3694   1 H                                       1.0898272
  3560   6 C     3695   1 H                                       1.0953302
  3567   6 C     3696   1 H                                       1.0921621
  3567   6 C     3697   1 H                                       1.0923890
  3568   6 C     3698   1 H                                       1.0951631
  3575   6 C     3699   1 H                                       1.0915440
  3576   6 C     3700   1 H                                       1.0962579
  3583   6 C     3701   1 H                                       1.0902337
  3583   6 C     3702   1 H                                       1.0910227
  3584   6 C     3703   1 H                                       1.0938714
  3591   6 C     3704   1 H                                       1.0911044
  3591   6 C     3705   1 H                                       1.0925980
  3592   6 C     3706   1 H                                       1.0956730
  3599   6 C     3707   1 H                                       1.0923205
  3599   6 C     3708   1 H                                       1.0910170
  3600   6 C     3709   1 H                                       1.0911777
  3608   6 C     3710   1 H                                       1.0953193
  3615   6 C     3711   1 H                                       1.0889332
  3615   6 C     3712   1 H                                       1.0929021
  3616   6 C     3713   1 H                                       1.0946210
  3623   6 C     3714   1 H                                       1.0924379
  3623   6 C     3715   1 H                                       1.0921867
  3624   6 C     3716   1 H                                       1.0955493
  3631   6 C     3717   1 H                                       1.0904707
  3631   6 C     3718   1 H                                       1.0901022
  3632   6 C     3719   1 H                                       1.0951637
  3639   6 C     3720   1 H                                       1.0916997
  3639   6 C     3721   1 H                                       1.0941561
  3640   6 C     3722   1 H                                       1.0952206
  3647   6 C     3723   1 H                                       1.0917417
  3647   6 C     3724   1 H                                       1.0922124
  3648   6 C     3725   1 H                                       1.0944915
  3655   6 C     3726   1 H                                       1.0927855
  3655   6 C     3727   1 H                                       1.0922834
  3656   6 C     3728   1 H                                       1.0948870
  3663   6 C     3729   1 H                                       1.0909777
  3663   6 C     3730   1 H                                       1.0924650
  3664   6 C     3731   1 H                                       1.0956843
  3671   6 C     3732   1 H                                       1.0907110
  3671   6 C     3733   1 H                                       1.0911657
  3672   6 C     3734   1 H                                       1.0951295
  3679   6 C     3735   1 H                                       1.0925999
  3679   6 C     3736   1 H                                       1.0918340
  3543   6 C     3737   1 H                                       1.0799697
  3548   6 C     3738   1 H                                       1.0803108
  3547   6 C     3739   1 H                                       1.0800954
  3546   6 C     3740   1 H                                       1.0806134
  3545   6 C     3741   1 H                                       1.0802847
  3554   6 C     3742   1 H                                       1.0809483
  3555   6 C     3743   1 H                                       1.0802148
  3556   6 C     3744   1 H                                       1.0801919
  3557   6 C     3745   1 H                                       1.0804003
  3558   6 C     3746   1 H                                       1.0813621
  3562   6 C     3747   1 H                                       1.0804328
  3563   6 C     3748   1 H                                       1.0797909
  3564   6 C     3749   1 H                                       1.0800167
  3565   6 C     3750   1 H                                       1.0814825
  3566   6 C     3751   1 H                                       1.0797420
  3570   6 C     3752   1 H                                       1.0804237
  3571   6 C     3753   1 H                                       1.0793367
  3572   6 C     3754   1 H                                       1.0803286
  3573   6 C     3755   1 H                                       1.0795935
  3574   6 C     3756   1 H                                       1.0807039
  3575   6 C     3757   1 H                                       1.0914777
  3578   6 C     3758   1 H                                       1.0798819
  3579   6 C     3759   1 H                                       1.0805729
  3580   6 C     3760   1 H                                       1.0804717
  3581   6 C     3761   1 H                                       1.0807905
  3582   6 C     3762   1 H                                       1.0813662
  3586   6 C     3763   1 H                                       1.0815095
  3587   6 C     3764   1 H                                       1.0801349
  3588   6 C     3765   1 H                                       1.0802472
  3589   6 C     3766   1 H                                       1.0806019
  3590   6 C     3767   1 H                                       1.0801452
  3594   6 C     3768   1 H                                       1.0804704
  3595   6 C     3769   1 H                                       1.0797303
  3596   6 C     3770   1 H                                       1.0799404
  3597   6 C     3771   1 H                                       1.0809206
  3598   6 C     3772   1 H                                       1.0817166
  3602   6 C     3773   1 H                                       1.0795735
  3603   6 C     3774   1 H                                       1.0808599
  3604   6 C     3775   1 H                                       1.0800995
  3605   6 C     3776   1 H                                       1.0801475
  3606   6 C     3777   1 H                                       1.0814260
  3607   6 C     3778   1 H                                       1.0920865
  3607   6 C     3779   1 H                                       1.0918567
  3610   6 C     3780   1 H                                       1.0793196
  3611   6 C     3781   1 H                                       1.0812212
  3612   6 C     3782   1 H                                       1.0805439
  3613   6 C     3783   1 H                                       1.0805277
  3614   6 C     3784   1 H                                       1.0810221
  3618   6 C     3785   1 H                                       1.0799221
  3619   6 C     3786   1 H                                       1.0805785
  3620   6 C     3787   1 H                                       1.0803114
  3621   6 C     3788   1 H                                       1.0804329
  3622   6 C     3789   1 H                                       1.0803231
  3626   6 C     3790   1 H                                       1.0807778
  3627   6 C     3791   1 H                                       1.0807548
  3628   6 C     3792   1 H                                       1.0802712
  3629   6 C     3793   1 H                                       1.0803500
  3630   6 C     3794   1 H                                       1.0813202
  3634   6 C     3795   1 H                                       1.0814396
  3635   6 C     3796   1 H                                       1.0804759
  3636   6 C     3797   1 H                                       1.0801777
  3637   6 C     3798   1 H                                       1.0804945
  3638   6 C     3799   1 H                                       1.0807028
  3642   6 C     3800   1 H                                       1.0815459
  3643   6 C     3801   1 H                                       1.0801195
  3644   6 C     3802   1 H                                       1.0806550
  3645   6 C     3803   1 H                                       1.0795734
  3646   6 C     3804   1 H                                       1.0801132
  3650   6 C     3805   1 H                                       1.0784881
  3651   6 C     3806   1 H                                       1.0805769
  3652   6 C     3807   1 H                                       1.0806580
  3653   6 C     3808   1 H                                       1.0812648
  3654   6 C     3809   1 H                                       1.0813598
  3658   6 C     3810   1 H                                       1.0792470
  3659   6 C     3811   1 H                                       1.0806625
  3660   6 C     3812   1 H                                       1.0802259
  3661   6 C     3813   1 H                                       1.0805655
  3662   6 C     3814   1 H                                       1.0813262
  3666   6 C     3815   1 H                                       1.0813714
  3667   6 C     3816   1 H                                       1.0805072
  3668   6 C     3817   1 H                                       1.0804710
  3669   6 C     3818   1 H                                       1.0805379
  3670   6 C     3819   1 H                                       1.0801972
  3674   6 C     3820   1 H                                       1.0795978
  3675   6 C     3821   1 H                                       1.0804396
  3676   6 C     3822   1 H                                       1.0805253
  3677   6 C     3823   1 H                                       1.0804652
  3678   6 C     3824   1 H                                       1.0812705
  3686   6 C     3825   1 H                                       1.0810473
  3685   6 C     3826   1 H                                       1.0795202
  3684   6 C     3827   1 H                                       1.0791824
  3683   6 C     3828   1 H                                       1.0802434
  3682   6 C     3829   1 H                                       1.0802410
  3550   6 C     3830   1 H                                       1.0888920
  3550   6 C     3831   1 H                                       1.0872884
  3550   6 C     3832   1 H                                       1.0875349
  3680   6 C     3833   1 H                                       1.0937440
  3687   6 C     3834   1 H                                       1.0897400
  3687   6 C     3835   1 H                                       1.0920688
  3688   6 C     3836   6 C                                       1.5348903
  3837   6 C     3838   6 C                                       1.3903187
  3838   6 C     3839   6 C                                       1.3839199
  3839   6 C     3840   6 C                                       1.3842385
  3840   6 C     3841   6 C                                       1.3843773
  3837   6 C     3842   6 C                                       1.3905877
  3841   6 C     3842   6 C                                       1.3835627
  3838   6 C     3843   1 H                                       1.0814622
  3839   6 C     3844   1 H                                       1.0808434
  3840   6 C     3845   1 H                                       1.0802287
  3841   6 C     3846   1 H                                       1.0795925
  3842   6 C     3847   1 H                                       1.0802119
  3836   6 C     3848   6 C                                       1.5326002
  3836   6 C     3849   1 H                                       1.0921524
  3836   6 C     3850   1 H                                       1.0928403
  3851   6 C     3852   6 C                                       1.3889109
  3852   6 C     3853   6 C                                       1.3834367
  3853   6 C     3854   6 C                                       1.3842201
  3854   6 C     3855   6 C                                       1.3845165
  3851   6 C     3856   6 C                                       1.3891415
  3855   6 C     3856   6 C                                       1.3832466
  3852   6 C     3857   1 H                                       1.0811867
  3853   6 C     3858   1 H                                       1.0805390
  3854   6 C     3859   1 H                                       1.0801032
  3855   6 C     3860   1 H                                       1.0805235
  3856   6 C     3861   1 H                                       1.0811091
  3688   6 C     3862   1 H                                       1.0962182
  3848   6 C     3863   1 H                                       1.0922630
  3848   6 C     3864   1 H                                       1.0920719

 * 2 distinct bonds (by element types)

   Z      Z             #   av. dist./Å        max./Å        min./Å
   1 H    6 C        1944     1.0851075     1.0996288     1.0773876
   6 C    6 C        1856     1.4192740     1.5407871     1.3801734


optimized geometry written to: xtbopt.xyz


           -------------------------------------------------
          | TOTAL ENERGY            -5104.070908800883 Eh   |
          | GRADIENT NORM               0.000758385627 Eh/α |
          | HOMO-LUMO GAP               4.050282607861 eV   |
           -------------------------------------------------

------------------------------------------------------------------------
 * finished run on 2024/10/09 at 03:25:52.359     
------------------------------------------------------------------------
 total:
 * wall-time:     4 d,  7 h, 34 min, 14.050 sec
 *  cpu-time:    28 d,  8 h,  1 min, 51.964 sec
 * ratio c/w:     6.566 speedup
 SCF:
 * wall-time:     0 d,  0 h, 44 min, 50.877 sec
 *  cpu-time:     0 d,  5 h, 29 min, 53.020 sec
 * ratio c/w:     7.356 speedup
 ANC optimizer:
 * wall-time:     4 d,  6 h, 48 min, 11.964 sec
 *  cpu-time:    28 d,  2 h, 30 min, 26.412 sec
 * ratio c/w:     6.561 speedup

