3258
 energy: -3427.452875922057 gnorm: 0.000683151835 xtb: 6.6.1 (8d0f1dd)
C          112.63381887981619      113.13834156436180      127.22594919839064
C          112.79280837973789      111.91162537097635      126.33725651811078
C          111.76085977413203      110.83159204034911      126.65090567145378
C          111.97955858957813      109.57286440854264      125.81531162204250
C          110.92523982420765      108.50408884898056      126.09617971300320
C          111.23713763792649      107.16235114108410      125.43081596323043
C          112.35601157631373      106.40062988827184      126.13903179067330
C          112.62843462054403      105.03926050904515      125.50463036928565
C          113.67126127524969      104.24644732809404      126.29052548220128
C          113.92314658212163      102.86343813533614      125.69328278422749
C          114.79136598368807      101.96911752884117      126.58053393849100
C          116.25058948921408      102.40888734720502      126.71986193238151
C          117.05762858917474      102.21792118756906      125.43825208971649
C          118.54092623361011      102.52377284634116      125.63171639115109
C          119.34312925271536      102.22153463832900      124.36749522212723
C          120.83012561644418      102.56029531682367      124.49061566290717
C          121.13549900108977      104.05996184189402      124.47525067020231
C          120.93402680661978      104.69441110911175      123.10136862678573
C          121.17457333824865      106.20178790371119      123.11630765669314
C          120.86032878996831      106.83598652031311      121.76383806530804
C          121.11357578598357      108.34260027314082      121.76031518137658
C          120.54453180578557      109.04201176016515      120.52590051544487
C          121.19184932396789      108.57966890674909      119.22294198841006
C          120.69466559240379      109.34330372764039      117.99438457110759
C          119.18539412056342      109.25655656533586      117.76206549100476
C          118.66822160626172      107.82335938914132      117.65773194276635
C          117.22257397346493      107.74143940985294      117.16288894946609
C          116.21578894535097      108.53325032861945      117.99761008567226
C          116.10313924406591      108.04168020778847      119.43778683820082
C          115.15298047702983      108.88294178500439      120.28925366644143
C          115.71320811017266      110.26004656091180      120.63662983471912
C          114.81035856086740      111.02009300496958      121.60416752611120
C          115.33359207908707      112.42328027159417      121.89743257220617
C          114.54579524280292      113.11533541700956      123.00777217615116
C          114.95097148760229      114.57853913065370      123.20371675553949
C          114.32733690762639      115.50143448847005      122.15902462329450
C          114.91282150288990      116.91120727464512      122.18808314564345
C          114.29082831260597      117.79579939044342      121.11087262930118
C          114.88317982492234      119.20184789408687      121.06928512159723
C          114.26120467603893      120.02894568208519      119.94680038691365
C          114.87090614396233      121.42459611903317      119.83150882091358
C          114.37288132969080      122.18771191461448      118.60060800853245
C          114.99354260506362      121.66497507393565      117.30686708325791
C          114.42476581551455      122.32362873817500      116.05242034376568
C          114.96749356734819      121.65502781369082      114.79125882677756
C          114.35161484725583      122.19783814842208      113.50482693417145
C          114.75407514530880      121.36167834285600      112.29096439083048
C          114.06381331985392      121.84635392306899      111.01970556469114
C          114.40962616615653      121.02837174527437      109.77588674555038
C          113.92015342214916      119.58164708011752      109.84073997612498
C          113.92644367727380      118.92689182514904      108.46164962317172
C          113.50972168235805      117.45883937983317      108.50840106631648
C          113.39637066998105      116.84518368070164      107.11348732206864
C          113.15988145175761      115.33868657346156      107.17397207370198
C          113.17908990123105      114.64841157270261      105.81024350519046
C          111.95195361477502      114.95629194722243      104.95697879967398
C          111.93861989088191      114.20134549710423      103.62676242674623
C          111.76438773139546      112.69195053186070      103.78715169258228
C          111.49431948360535      111.97061192469582      102.46704881469226
C          112.68350184873748      111.98511459122203      101.51196869648389
C          112.38486768941803      111.24017897592064      100.21442309995510
C          113.53902252444416      111.33832436800093       99.22150329287281
C          113.18167697935388      110.74969134665483       97.86130375222366
C          114.32361816869606      110.89516829839681       96.85819947301147
C          113.93187755461977      110.43687961679460       95.45392624592148
C          113.06479000940314      111.45719553243025       94.71953043797708
C          112.56503246262898      110.94908892689240       93.36754247561119
C          111.41190043129541      109.95672260347423       93.49448972462689
C          110.99851517292460      109.39324080917575       92.13699028537239
C          109.63409255567954      108.70370494417639       92.15197379217328
C          109.49389989844896      107.57355530000886       93.17085452574166
C          110.49625452837560      106.44097467175708       92.96063130593565
C          110.12590366249459      105.16681778911476       93.72044894460419
C          109.96167601194210      105.34843289193623       95.22918391150350
C          111.23269342493204      105.82529396869269       95.92576130794083
C          111.08801755960982      105.91574371846126       97.44534520572695
C          110.15007721914188      107.03929163065416       97.87998192786391
C          110.11274929375760      107.23294613370570       99.39372793546387
C          109.16975573980280      108.36909919063000       99.77974516868470
C          109.13134168889157      108.63153963176515      101.28154237006423
C          108.20802216973395      109.79719214749569      101.62327638154029
C          108.13025162364796      110.07666832174642      103.12109178852700
C          107.24973769969071      111.28543254862345      103.42552897208142
C          107.17479314925495      111.58513808839366      104.91916208095651
C          106.30107352610985      112.79789225813013      105.22763422621807
C          106.20298821196275      113.06321281728285      106.72687288135390
C          105.35619137032545      114.29059848898287      107.04682912793534
C          105.34578680436209      114.63890084659479      108.53514921085170
C          104.50112853466024      113.69341159901585      109.38515293738931
C          104.46939870371111      114.13004257116505      110.84841395164210
C          103.54665176938938      113.25103577168392      111.68786836429453
C          103.58233726213550      113.57230162731595      113.18235630394985
C          103.05187078898125      114.96475955820816      113.51753179978334
C          102.89400049919873      115.16794520426414      115.02227655756344
C          102.30153708657024      116.53035408272711      115.38823775414450
C          103.26249448549399      117.71333772586976      115.26267183489914
C          104.31479747580724      117.76058033227085      116.36744539805893
C          105.19661862777892      119.00188810770170      116.25188749741260
C          106.28026731593998      119.08296549147725      117.32833524242426
C          107.38089193475902      118.04454023318394      117.13824248457055
C          108.48734825254638      118.15123622907797      118.18221355403560
C          109.53035153123815      117.05122833422982      118.00815698628207
C          110.61360350727057      117.09274854112576      119.08149983415302
C          111.59250257098593      115.92161082377353      118.99138028512147
C          110.97450461991797      114.53805000020631      119.20253558364384
C          110.30074692974499      114.36412165182972      120.56181570117872
C          109.76054276323651      112.94937095737527      120.77741245205290
C          110.85641476971492      111.90758119360967      120.98217538205928
C          110.29185300467384      110.49581054573345      121.11087141605749
C          111.38885572684190      109.43502393687228      121.14947478755452
C          110.82264623505438      108.02270545238400      121.24405700173570
C          111.90635058038194      106.94851948193930      121.22537561219288
C          111.31818875277266      105.54363501283066      121.33670508427002
C          112.40045579932935      104.46942748435403      121.28793140208704
C          111.85123704286437      103.04407160634557      121.27902031685603
C          111.15849386503325      102.64770182154076      122.58061899493586
C          110.80381604878728      101.16354475254460      122.59662386007470
C          110.09843859150757      100.73946336724066      123.88131461643511
C          109.75173480641769       99.25284460967426      123.87428074868859
C          109.04001164922472       98.81774278373608      125.14918139798991
H          109.11570190126402       99.03556188705264      123.01226737475702
H          110.67051484775453       98.67222201571711      123.75881521201069
H          110.74070405643242      100.95565997563652      124.73955648765552
H          109.18292281368902      101.32364957137023      124.00266654332195
H          110.15656903347127      100.94016649131939      121.74530388500723
H          111.71603072515521      100.57333675967149      122.47761809014737
H          111.82018457261101      102.86897746753338      123.42077138870556
H          110.24731523778071      103.23444144958695      122.71163016882960
H          111.15131345300870      102.93014290155082      120.44715212679888
H          112.68261195593392      102.35505832988859      121.10572239312027
H          112.99664455610277      104.61832542370867      120.38388444775458
H          113.06712342674734      104.58817064541705      122.14553973252529
H          110.76133489823556      105.46370938147298      122.27219448044272
H          110.61675838863086      105.38236997908513      120.51307623095258
H          112.47866371005597      107.02831148694094      120.29815287604055
H          112.60007104252048      107.11642492733975      122.05398181661489
H          110.24144201936768      107.93446465750829      122.16401703999482
H          110.14295624104402      107.85406862756867      120.40431267225111
H          111.99488635063788      109.51605578711117      120.24383119631678
H          112.04557504604804      109.61805403922367      122.00364099852392
H          109.68201058442030      110.42666160258230      122.01467990499933
H          109.63547328652092      110.29842970742388      120.25972538634248
H          111.54374520831830      111.93305045422521      120.13463890058112
H          111.42894590797728      112.15639425309490      121.87987816997320
H          109.10924137064212      112.94643346370023      121.65518234801702
H          109.15159230287283      112.66601426541129      119.91495525372443
H          111.01232005640897      114.60721007740003      121.35533965390236
H          109.46476949084068      115.06244292147124      120.64058043629585
H          110.24972209148463      114.32756439995264      118.41317133211795
H          111.77714033659196      113.80603232734494      119.10758994517639
H          112.06975240249881      115.94104465279345      118.00729401730742
H          112.37500555455767      116.06735355547984      119.73892458326034
H          111.17838233828975      118.02507746219057      118.98581873818362
H          110.14718363574801      117.09987805155353      120.06873699822889
H          109.02159194207665      116.08676471811550      118.05111516474224
H          109.99702088371080      117.13923029391016      117.02361486675903
H          108.96665875009334      119.13046298413143      118.11111394670245
H          108.04753419747695      118.06847990148420      119.17747694133018
H          106.94608067902979      117.04532056472343      117.18985718714079
H          107.81496482212444      118.16603060946548      116.14332084997031
H          106.72754138404395      120.08164399262893      117.30684047556267
H          105.82294230717345      118.94791363489871      118.31264239984330
H          105.66893342113728      119.01943512274924      115.26639783025881
H          104.55743549482860      119.88701360901879      116.32259137164810
H          103.81388681993964      117.76570061120762      117.33938659858818
H          104.93561138869042      116.86577782785714      116.32097535790709
H          103.75679918561582      117.68478220469538      114.28974535545139
H          102.67980771921496      118.63842461645834      115.30023199385460
H          101.43987483985575      116.71256220669495      114.74249499300971
H          101.93837528116229      116.49209732968122      116.41800986246130
H          102.23246855188329      114.38792862561115      115.40985296281042
H          103.86112298510245      115.03868713025332      115.51186095358509
H          103.72764290131751      115.71963452242854      113.11448572465238
H          102.07751108162198      115.09757477135204      113.04097790589809
H          102.97545178342065      112.82941521088222      113.70861563946093
H          104.60662856433885      113.47722681326954      113.55179663488848
H          102.52202324876529      113.35721296922937      111.32272050970786
H          103.83458223082648      112.20596890459406      111.54737376965330
H          105.48248638890772      114.08548220303339      111.25761865964856
H          104.13427301216954      115.16802872486508      110.90341714030609
H          103.47997817472496      113.67177242208074      108.99367587444480
H          104.90095869012596      112.67943592120994      109.32171165025770
H          106.37283786369969      114.64383252498267      108.90910796619927
H          104.95071016128662      115.65152573161876      108.65548409959564
H          105.75332161199117      115.14226101976887      106.48872038767999
H          104.33104781922671      114.12474757050282      106.70544201943424
H          105.77196448429693      112.18620738356140      107.21279525527004
H          107.20845671559798      113.21167914094100      107.13059950651314
H          106.71391512730925      113.67977133977412      104.73040388664941
H          105.29889165178884      112.63377454823255      104.82365236507964
H          106.77411776993171      110.71381447964538      105.44185217300759
H          108.18451229964495      111.76125857867979      105.29833620129148
H          107.64801969057355      112.15881614453811      102.90136302741082
H          106.24301653080586      111.10359015425911      103.04163945984939
H          107.72942384205697      109.19914276592958      103.63325482837952
H          109.13467864942993      110.25922035619212      103.51078375234464
H          108.56408936591667      110.69453212593493      101.11065274722816
H          107.20471952824536      109.57948091444021      101.24861649621562
H          108.79218293841153      107.73228056254560      101.80008263238798
H          110.14184176026136      108.85600453258583      101.63002102457320
H          109.48600351472967      109.28158891524610       99.26672880743057
H          108.16149494238289      108.13011935238296       99.43067849823467
H          109.78440831703604      106.30715595100190       99.87281883713645
H          111.11918616523248      107.45674473510863       99.75744967204555
H          110.47219548152655      107.97385092077781       97.41140925152635
H          109.13737989473350      106.82832159319037       97.52914334044898
H          110.72262392375178      104.96226303743795       97.83428900390544
H          112.07536210620684      106.09277217062223       97.88058129524080
H          112.04207418135790      105.13062369527439       95.68439480065254
H          111.51758596177642      106.80746393781037       95.54315269750741
H          109.14868016505582      106.05057013126626       95.41680574447381
H          109.66935994222730      104.38538563828837       95.65842729839105
H          109.18249446720392      104.78206454038562       93.32064493139750
H          110.89208021303058      104.41074835384588       93.53029666199738
H          110.54205914815923      106.19806676790962       91.89563750791989
H          111.49366103503057      106.76635312236944       93.25755691662482
H          109.60392893924912      107.98230629088111       94.17604450372544
H          108.48169941311244      107.16857989782827       93.08967882696041
H          108.86593111718628      109.45216938554773       92.36294021881086
H          109.43449984565532      108.30801089937283       91.15230483498944
H          110.95230129895195      110.21262420062678       91.41441704932188
H          111.76176046864165      108.69528872215604       91.78573362609340
H          111.70574393091555      109.13881318140740       94.15330483190760
H          110.55911237489705      110.46144142743658       93.95299365674575
H          112.22712073429845      111.80190361705641       92.77313389451761
H          113.38988103400615      110.48114485286433       92.82753751037259
H          112.20335189187794      111.72639022771777       95.33368231140319
H          113.65523620581720      112.36435300957446       94.56601031769540
H          114.83740202145493      110.26617209785262       94.86474903625903
H          113.40801120725776      109.48168600812254       95.52790140094244
H          114.64165182467872      111.94083506360892       96.81825004215044
H          115.17547876413201      110.30483476899599       97.20562312732282
H          112.93155678880917      109.69133535576414       97.97351999856939
H          112.29293665419702      111.25852735765800       97.48213354152054
H          113.80569424259575      112.38940924129973       99.09010983663141
H          114.41620093525076      110.82375285505870       99.62354583929289
H          112.17592144536022      110.18909391916495      100.43006524017380
H          111.48793216782576      111.66468873014733       99.75873114739096
H          112.94960860574258      113.01588737718373      101.27030255545000
H          113.54423667631423      111.52488733720847      102.00333438662507
H          111.23741086135176      110.93065200362635      102.68452887209983
H          110.62906537395928      112.42514361962418      101.97668368893231
H          112.65638531520423      112.26103030395899      104.24581325096841
H          110.92115617801092      112.50898743528531      104.45882271891439
H          111.10933918970711      114.58050534731224      103.02270512531295
H          112.86556938985096      114.41308231741299      103.09013450589394
H          111.05100488495363      114.70556620064269      105.52270511016764
H          111.92244773964678      116.02777231881986      104.74736246406360
H          114.08132881614796      114.94478187092737      105.26736451301335
H          113.23066774051830      113.57099911159003      105.97889563036929
H          113.94388325995509      114.89791038269496      107.79516857588885
H          112.20382718720798      115.13784496197660      107.66318863799886
H          112.58381505624337      117.33249572984417      106.57044514745212
H          114.32042339048195      117.03740830036918      106.56144502478125
H          114.24181899653919      116.89484796744100      109.09296470471273
H          112.55052080602803      117.37298412002794      109.02531212585669
H          113.24423170265790      119.47622553488347      107.80920457082645
H          114.92811203850091      119.00686578328133      108.02962547864603
H          114.55404244790098      119.00449731142635      110.51690008842353
H          112.90358096544809      119.56291983293195      110.24116817044880
H          113.94633716756144      121.51287745904517      108.91227835782499
H          115.49069686249237      121.04067920973559      109.61653880232087
H          112.98313483846677      121.81499984805072      111.17237378996913
H          114.34056330237927      122.88971874406437      110.84409967112508
H          115.83839188019648      121.40268198263941      112.16053577005205
H          114.48068960901936      120.32083855703472      112.47517579284614
H          113.26213826026876      122.18759545861610      113.59465848086600
H          114.65707535035202      123.23644024159243      113.35588129448631
H          116.05336805090974      121.77345718803987      114.75371364803995
H          114.75807994973391      120.58533693635351      114.85194222408096
H          113.33581530075064      122.23174002841405      116.06509477039529
H          114.66663352542582      123.38935255895268      116.04503689989200
H          116.07497881478301      121.82171254547998      117.33933151048141
H          114.81884156528137      120.59119125529155      117.23434881660904
H          113.28468361299446      122.10355810422465      118.54254065189500
H          114.61612350194183      123.24778754667339      118.70966480872656
H          114.62579948821393      121.99134506314087      120.73220783039983
H          115.95960640053049      121.34203623573049      119.78177832209727
H          114.39896585995631      119.49118838689058      119.00715331728151
H          113.18583902710029      120.12016592379301      120.11926072624212
H          114.71825509612123      119.70030461121966      122.02653658563833
H          115.96282414872218      119.13526220485437      120.91166401837194
H          114.44232826900299      117.32374118540699      120.13646678646286
H          113.21459471895120      117.86688248792905      121.28405553699909
H          114.74595756076080      117.35731643029941      123.17180416649228
H          115.99358194643462      116.85694794885586      122.03125187294445
H          114.48206237871486      115.07951153446982      121.16442513235157
H          113.24869192554605      115.55474464771579      122.32583849549334
H          114.64331068567637      114.91179014752832      124.19842328303118
H          116.04066813159739      114.65877252965257      123.15949830038488
H          113.47765130872365      113.07052327533566      122.78004762948262
H          114.70690133904040      112.56965862695840      123.94107645121044
H          116.38311644170696      112.36223387602699      122.19183174854764
H          115.28334977304958      113.01488633117862      120.98283054118144
H          113.80811204637594      111.09399623303055      121.17925532199249
H          114.72913758556051      110.45879306120256      122.53948114473106
H          116.70283441522344      110.14301543549452      121.08714328134720
H          115.82970177730640      110.85196375571671      119.72741994584048
H          114.20359085293845      109.00245857949844      119.76307543273219
H          114.94729535713537      108.34712624093792      121.21901204162063
H          115.75220525011579      107.00620211002693      119.42750829882152
H          117.08851078228366      108.04928563293663      119.90724815125343
H          116.49342821030386      109.58782205702563      117.98825594642106
H          115.23499753052663      108.44876783798179      117.52073446684564
H          117.18125282087925      108.11499723614314      116.13703070157692
H          116.92041133330331      106.69062371399423      117.14271594437177
H          119.30167817536977      107.26999735521707      116.96022875863638
H          118.74817686661164      107.32860212362205      118.62646182235845
H          118.67302873362735      109.77990093798786      118.56987561800639
H          118.95288283981705      109.78419347659423      116.83441153960561
H          120.96979894234592      110.39742884550652      118.09437075461051
H          121.21334878319466      108.95131295014158      117.11530437963498
H          122.27473077646899      108.71498800526210      119.30053565929380
H          121.00544505133865      107.51535980834669      119.07870372770788
H          119.47028516443963      108.85317747995686      120.48803321365199
H          120.68742356598031      110.12066231720253      120.63053735401905
H          120.64865010477288      108.77659595517412      122.64984714757438
H          122.18822016195739      108.53157707405944      121.82760133412998
H          121.47057774183338      106.35471355339095      120.99741122239217
H          119.81197813711250      106.64726344133261      121.52091188008036
H          120.54313336278730      106.65974812520402      123.88266271763030
H          122.21461952427373      106.40429781101386      123.38479728894031
H          121.61206402587300      104.22484293734641      122.38392923547268
H          119.91449003148463      104.51028258430048      122.75817766048802
H          120.50498794512492      104.57065037290901      125.20565596356849
H          122.17369329879226      104.21038497351360      124.78263940619402
H          121.20999692169498      102.12899509505733      125.42027214752382
H          121.37034389073125      102.08851885047768      123.66558445765368
H          119.24672260122769      101.15575492662055      124.14281974685852
H          118.90926938472428      102.77029747810950      123.53054955236576
H          118.65417050782561      103.57483390331049      125.90385458741069
H          118.93366050782913      101.92545956814182      126.45826016052941
H          116.94536152208853      101.18582552506722      125.09603200976304
H          116.66799352423200      102.87040290654787      124.65664521292126
H          116.29661577002939      103.45398615981486      127.03115586398533
H          116.71145172682530      101.81412787117115      127.51349977732340
H          114.34036861223858      101.93169428349634      127.57596219217785
H          114.77531013170275      100.95277930418342      126.17727052480330
H          112.95926068595625      102.36534560616796      125.55574750112059
H          114.37847311559675      102.96619262092219      124.70675833176283
H          114.60380433155881      104.81422244078293      126.31970857694165
H          113.32624296354352      104.13009289892157      127.32171384818483
H          111.69706919861332      104.46850582091452      125.46582842414598
H          112.97331050654722      105.18080279638004      124.47784240117753
H          113.27602777711886      106.98854271583133      126.12180856044878
H          112.07815112120444      106.25566743265719      127.18693945323514
H          110.33610886019255      106.54351299177659      125.44194641440181
H          111.51152361387356      107.32882217539787      124.38726487125439
H          110.84299685879674      108.35267754819911      127.17612079172058
H          109.95630394860103      108.86635514923533      125.74457011202811
H          111.95456092892670      109.83250801837491      124.75388512389937
H          112.97329434499474      109.17671094561440      126.03397247744356
H          111.82280651032052      110.57265888691613      127.71203920941079
H          110.75954766072289      111.22439155644933      126.46326980220728
H          112.69221846449652      112.20926972902051      125.29138471846754
H          113.79675092935362      111.49901833600923      126.46951431478396
H          112.73980384786131      112.86959374431696      128.27554043330886
H          113.38676532660331      113.88629235615986      126.98660372808497
H          111.65251365566841      113.58455676188076      127.08370138655145
H          108.09881045092966       99.35118010334644      125.26617987170732
H          108.82610435170508       97.75132889155398      125.12503070618425
H          109.65709757194021       99.02415451628411      126.02142350151455
C          109.66610014448612      113.65157658214120       98.54573633001033
C          108.67375802720444      112.49815408161311       98.47768031856145
C          107.92483770704399      112.42254529219937       97.14744955573157
C          108.80588813571958      111.97925313644275       95.98100182905070
C          108.07714174299122      112.02075517041048       94.63639784166986
C          107.01653246422319      110.93117451244048       94.50310632433286
C          106.23031667862062      111.04435798558396       93.19916172575880
C          105.17907326457519      109.94552341348565       93.03396613841146
C          104.14948534623862      109.94468558021002       94.16267723057956
C          102.94754470291166      109.04955517437354       93.86947903314716
C          102.08468136597028      108.79567559542191       95.10765179821948
C          101.56627552213685      110.07376177889054       95.76549729803362
C          100.57994868458806      109.77727079048817       96.89329903664149
C          100.17231729753193      111.04006738796103       97.65024037808465
C           99.12950766408025      110.75177517943082       98.72773444924113
C           98.83268285792737      111.96927072288449       99.60027668370223
C           97.85527514852674      111.63430269963278      100.72470486531630
C           97.69679571246154      112.77754296381219      101.72480333115637
C           96.89505074030671      112.35285894486988      102.95294363309684
C           96.83461466235133      113.44413079276129      104.01965650366728
C           96.20167023067161      112.93947538498284      105.31455973511007