3864
 energy: -5104.081480465752 gnorm: 0.000750076782 xtb: 6.6.1 (8d0f1dd)
C           33.73766383734106       58.42575699831162       49.62924021685175
C           34.46868379730511       57.39689455523416       49.04972986838879
C           34.10132353679243       56.08624215225840       49.33155359445659
C           33.05456578049871       55.81034756990640       50.19295524177354
C           32.33207057618466       56.84277686048111       50.76514190285098
C           32.67332377118934       58.15111562859403       50.46966608557867
C           35.65215078066912       57.70873712534716       48.16859592737719
C           36.92920886552501       57.10423223801094       48.76141411521349
C           35.44506511318991       57.21470863931972       46.73018956931043
C           34.19546276093896       57.79926318590091       46.05590555250727
C           34.12482195573737       59.30070994604207       46.19941000932226
C           35.18297361007835       60.12348158289289       45.83210091376346
C           35.11358652930716       61.49411395681809       46.00586744760288
C           33.97345563413975       62.06945785138541       46.54000075919148
C           32.90093253986088       61.26447568986451       46.88319956746521
C           32.97756460048828       59.89335908121226       46.71247911833519
C           34.14484822796504       57.41451300088098       44.56625827954384
C           33.84794849950211       55.92176355755608       44.32576562030138
C           34.85415622376590       55.25352791385890       43.41977293760340
C           35.44185686652828       54.05154168727467       43.79919304516896
C           36.31410810861485       53.38643719286880       42.95477981308299
C           36.61616014300103       53.92070969765911       41.71366476937590
C           36.04573992431393       55.12166174152668       41.32573240015716
C           35.16917316011614       55.77770856361391       42.17152513395855
C           32.44706238856355       55.69994646502459       43.72734075868063
C           31.27796564613879       55.87713744921277       44.71207741724514
C           29.98500809337321       55.75295906530444       43.94601908481208
C           29.12104719377880       56.83583225591588       43.85156405286640
C           27.94802307271435       56.74726114021503       43.12357762312881
C           27.62162922428549       55.57026958879988       42.47298710153429
C           28.47550447433678       54.48369699719406       42.55805940625887
C           29.64535897003985       54.57588940284539       43.28903389157809
C           31.38922804663691       54.84814163747544       45.84120765577476
C           30.19050348665772       54.73172894986124       46.79470994140096
C           29.65424476968469       56.06296329636468       47.24502644373928
C           28.31890579618033       56.37778641991908       47.02481641700616
C           27.79407710756995       57.58377297798947       47.45242903489363
C           28.60138265999420       58.50046488011813       48.10358219078368
C           29.93519522862922       58.20067282406448       48.31865146732586
C           30.45680708281319       56.99140513375061       47.89483548563966
C           30.65822191487195       53.87082078487071       47.98146974222092
C           29.67901961995271       53.74080447203482       49.15572772914990
C           28.27051176640800       53.46007330914392       48.70535127662345
C           27.99343648782233       52.47496802085480       47.76434056171028
C           26.69535433806608       52.23362600019536       47.35191551220866
C           25.64764661080897       52.96248855073697       47.88799125502864
C           25.90943542496244       53.93829460445154       48.83381824022234
C           27.21063262355312       54.18588680903453       49.23313868482035
C           30.18745695941701       52.61501768447732       50.07420047169140
C           29.44944816984954       52.53919119921277       51.41373243677236
C           29.83842768311591       53.65916671241801       52.34948054239859
C           28.87149978600115       54.47597284340475       52.92159353684828
C           29.20971226496327       55.42257185806783       53.87376021461093
C           30.52728319180136       55.56493890471280       54.27239535536783
C           31.50746984481348       54.78273498053008       53.68527136940495
C           31.16347087090442       53.84029546413229       52.73320014142070
C           29.71348046373415       51.21415703157668       52.15443971935291
C           29.24411626303181       49.96011266740223       51.39363775028598
C           28.41919822191299       49.04828923357387       52.26799949772550
C           28.82780455936725       48.71659155754271       53.55425581013398
C           28.06192357143443       47.87691705221752       54.34140009482007
C           26.88775187826191       47.33431808295687       53.84842626138553
C           26.47885379961297       47.64549554710936       52.56348626996878
C           27.23625349868919       48.50236244205308       51.78496463551349
C           30.43847115762405       49.17048123539091       50.82235432115598
C           30.02022244874124       48.17907879586654       49.72373999646568
C           31.08035365973488       47.12576744628610       49.51347212518861
C           30.83472038938101       45.80898009810672       49.88458480904385
C           31.77527480057906       44.81794685486881       49.66345820243235
C           32.98123944074228       45.12909288826054       49.05889477427025
C           33.24701005825370       46.44022974638158       48.70273442654315
C           32.30887964228139       47.42974112692470       48.93661182448547
C           29.72280381192642       48.91161960036381       48.40884760658131
C           29.08554303537836       47.99339731499963       47.36060766457683
C           27.74650549714335       47.49846163181866       47.84885579526961
C           27.54196267859105       46.14421298629079       48.08011030505856
C           26.32443591580451       45.67732232413605       48.54235902919864
C           25.28587044459113       46.56141862292841       48.77637501135687
C           25.47525319617170       47.91295624858022       48.54489475327859
C           26.69587858725433       48.37676634965010       48.08763077028730
C           28.93985133144540       48.69649516754365       45.99970211767643
C           30.26797229816367       48.79645210046688       45.21911998027668
C           30.05644563922345       48.40540729893372       43.77636051327291
C           29.15700194038302       49.10305794069450       42.97688240374698
C           28.97090429881106       48.75555671329732       41.65202846231325
C           29.68741607603687       47.70576961664379       41.09963191521518
C           30.57982894911345       47.00051657392300       41.88663741590782
C           30.75751110631601       47.34663337361348       43.21590303884541
C           30.90198342436917       50.19750547186707       45.26878532441022
C           32.35223449069852       50.17654487912434       44.72899717212105
C           33.34473398781291       50.36209578679079       45.85094480379099
C           34.10405267437959       49.29601592829787       46.31561871003215
C           35.07685223284589       49.48200880796794       47.28375014066177
C           35.29491840352104       50.74175708798113       47.81222408010791
C           34.52593354960986       51.80705363014815       47.37587492753990
C           33.55682384942084       51.61755397033107       46.40946862759436
C           32.60971831754128       51.21737613487765       43.61671341880324
C           32.75427178888221       50.61214394239811       42.20919500528181
C           32.24951939622068       51.59551412562455       41.17866339767607
C           31.24960691317532       51.24103456563810       40.28355879844524
C           30.79124987439705       52.14308012469439       39.33808587523747
C           31.32992583355770       53.41602106221708       39.27058929590788
C           32.33143614662820       53.77873161612268       40.15458435752516
C           32.78589836275739       52.87714493164103       41.09963039907066
C           34.21236912607488       50.27682757843883       41.85200215309597
C           34.93031648921490       49.26164898223581       42.75846824064662
C           36.42030266742837       49.47640062473420       42.67311332555222
C           37.17852802722872       49.59367564954970       43.83243506425775
C           38.54317531466872       49.81920309985198       43.76918173919812
C           39.16980512539861       49.94448611219663       42.54176110350464
C           38.42071063513948       49.84735102279270       41.38168337624798
C           37.06129644121471       49.60673617185473       41.44610716758322
C           34.53449768972882       47.82332974578681       42.39022979998064
C           35.10987570876656       46.74708738211277       43.33668252438439
C           34.05969096152212       45.70332404597252       43.62810715321840
C           33.53584121237260       44.91393538182951       42.60978563567195
C           32.55204224018352       43.97937497300556       42.87751529150473
C           32.07125887892173       43.81637967586743       44.16610231355368
C           32.58665470197854       44.59277028734784       45.18912149160882
C           33.57252248640694       45.52609499019899       44.91746371655719
C           36.37626085286858       46.09301212226433       42.76341531237130
C           36.96450320709487       45.05149727350148       43.72757896540726
C           37.35348326727956       45.68314576274300       45.04065665083398
C           36.75357542716848       45.28192148803273       46.22796996865081
C           37.12255286546643       45.84746278506940       47.43585465409428
C           38.11568888419386       46.81127353565785       47.47840076484773
C           38.73783776639342       47.19910521929532       46.30465684248327
C           38.35039655016596       46.64947118976588       45.09662262088506
C           38.17592680500852       44.31511902590956       43.11382208959904
C           37.84204574096951       42.87995871173786       42.68511680599596
C           36.90160740676632       42.86091130681812       41.50675941435512
C           37.30892517255047       43.32404283247822       40.25939505428549
C           36.47287978951411       43.24176022957455       39.16176745952415
C           35.20553067721735       42.70172575489746       39.29689816327019
C           34.77848282739093       42.26022974499233       40.53650899188106
C           35.62050915916731       42.34052412540429       41.63233774781901
C           39.11711896377644       42.08611113929275       42.35807484605667
C           38.79364205202501       40.61251410549482       42.07763474971713
C           38.26148927557222       39.94174505596818       43.32253092115114
C           39.03424838846087       39.83980461638557       44.47325192941176
C           38.53378610673548       39.24396140442521       45.61638118396930
C           37.25022005717128       38.72584813978553       45.62454341021651
C           36.47500906648369       38.80662749707840       44.48063055846151
C           36.97782063228432       39.41062083270074       43.34138601415387
C           39.99835382368543       39.81615904635527       41.55208549386426
C           40.61541776455001       40.31839465275322       40.23557236919300
H           35.76988160098270       58.79735206305457       48.14087099434094
H           36.32840679324843       57.47153610904650       46.14196470270858
H           35.37278449223997       56.12502673464314       46.73139254329328
H           33.31212737980032       57.38281912764163       46.55144599602639
H           33.37675422144110       58.02216650275133       44.08100886767787
H           35.10193101099613       57.67412372213025       44.10934011399891
H           33.89454850864169       55.39765890985330       45.28218541687480
H           32.30344335636521       56.39065761368288       42.89434668065493
H           32.40116824484180       54.68813720480040       43.31787832523165
H           31.32133573952242       56.88129662310480       45.14559229519330
H           32.26726003465740       55.09613757418381       46.44051806241788
H           29.38007487092758       54.21218518903554       46.27331360473117
H           30.89822475910164       52.87444003649760       47.60063383158457
H           31.58262530247605       54.29620318039729       48.37828368347671
H           29.68057740878926       54.68122471026217       49.71783057276595
H           30.06791411854279       51.67073213318352       49.54347447219762
H           31.25427372414286       52.75995139011071       50.25383549249736
H           28.37351992668681       52.60416327147674       51.21572209783531
H           30.77842356988257       51.13378920814038       52.37217727394845
H           29.19426104343915       51.27130095107434       53.11350369140040
H           28.60277454315269       50.28083131280317       50.56722900080983
H           29.10622241520480       47.67689122444521       50.05831135755921
H           29.04189735974549       49.74152016788842       48.60209743566230
H           30.65214128894552       49.32114534933648       48.01185175961081
H           29.73620699828037       47.12196697558777       47.22337337723764
H           28.22853337520343       48.11894728762202       45.40377815366715
H           28.51283198395368       49.69037028538840       46.14203122034858
H           30.97684959265965       48.08931554197312       45.66451648814881
H           30.28833956528320       50.88114537423438       44.67936992487814
H           30.90298026048988       50.56615805173180       46.29659586818785
H           32.51607825152534       49.18452145300592       44.30146986080832
H           31.78608986242082       51.93482402065813       43.59659883198369
H           33.51876199579849       51.77970883703674       43.83899346094851
H           32.14235401899386       49.70721573300700       42.14440940853333
H           34.22499465855368       49.90721766910823       40.82390456013823
H           34.78348732280816       51.20857782090845       41.87061028859847
H           34.64294927908399       49.44652623879814       43.79436546537356
H           33.44348037112238       47.76432674991451       42.40788863342522
H           34.85203557370971       47.61413533845172       41.36866621955904
H           35.38701229634884       47.22640744275986       44.28183098500405
H           36.14178062268986       45.59882894348345       41.81770581219983
H           37.11376380699487       46.87348825109315       42.56431687796663
H           36.18093928064055       44.31310905705431       43.92780331728240
H           38.55315275832713       44.87251362303321       42.25479107939645
H           38.97576959230438       44.26731059942627       43.85688808946942
H           37.35251155844568       42.38299011060575       43.53095778287902
H           39.60756359032714       42.52770993561231       41.49103011962494
H           39.80684627589405       42.15022389106449       43.20082482536924
H           34.00548951443632       59.45249451834626       49.42395075505327
H           32.11616549273942       58.96800808952911       50.90336621407758
H           31.51509413780647       56.62121225216547       51.43586714063250
H           32.80245989296824       54.78820019934626       50.43109132808192
H           34.64454996134160       55.26895781137791       48.87834621148183
H           36.08294293223778       59.70050863872526       45.41704748590958
H           35.95673060537334       62.10992471233882       45.72598228386975
H           33.91993998175480       63.13847834671272       46.68623959517168
H           32.00223335268180       61.70397086868500       47.29156091706227
H           32.13687770986895       59.27300753212499       46.98818000644010
H           35.21164740436490       53.62398987148503       44.76607504460462
H           36.75813540383070       52.45040404975767       43.26362747616196
H           37.29681893131693       53.40604511327648       41.05241247507918
H           36.28437831641990       55.54028932815651       40.35797526441495
H           34.71720089026383       56.70643878746333       41.85626901060245
H           29.36852521899256       57.75940433500894       44.35577216189977
H           27.28968471634101       57.60126445610376       43.06096689123193
H           26.70846199809731       55.50027247738942       41.90016779728180
H           28.23475673000357       53.56191896094963       42.04752659355975
H           30.30129776850693       53.71861076491056       43.33543511808742
H           31.55460038694777       53.86399460272859       45.39707985560683
H           27.68254018000294       55.66865558917893       46.51427103710311
H           26.75184784872414       57.80787778631452       47.27757129130591
H           28.19376482963262       59.44085297530467       48.44480639189933
H           30.57534994276273       58.91100785372142       48.82196988551980
H           31.49677126220712       56.77036447071071       48.08343595095632
H           28.80134399119747       51.89799464388397       47.33750668098034
H           26.49623235253741       51.47984254626109       46.60215533695720
H           24.63423223909053       52.77267177752451       47.56633347631500
H           25.09785699338528       54.51299730713151       49.25602360888820
H           27.41284388693978       54.95802049344729       49.96210792101910
H           27.83710621710068       54.35802326433645       52.62991684952433
H           28.44158009932778       56.04462250415092       54.30985830446770
H           30.79610787059657       56.27233473868983       55.04120367008342
H           32.54170819498442       54.90177608065033       53.97574137063319
H           31.94455811247933       53.22907405950787       52.30368423974083
H           29.74475670024626       49.12162654505210       53.95661280035887
H           28.38992309336419       47.65091257859079       55.34445358436134
H           26.29272154453899       46.67438647371021       54.46299391910399
H           25.56651420621443       47.22632976954571       52.16419973283694
H           26.89893534712530       48.74948564986345       50.78793840410282
H           31.18081871102509       49.86048292739044       50.41499403594070
H           30.90836285716298       48.62053772198261       51.64231435545959
H           29.88825333990954       45.55865648527354       50.34385367390652
H           31.56191382012194       43.79914616125456       49.95446625640791
H           33.70878904814333       44.35404767381588       48.86218778034760
H           34.18894297063901       46.69504588394495       48.23938533727718
H           32.54260854643454       48.44606359529530       48.65237459444015
H           28.34969119591884       45.44860842166898       47.89883697533529
H           26.18578484667611       44.62057471387506       48.71990825357299
H           24.33389306191489       46.19948066166220       49.13601038740632
H           24.67037927226434       48.61115899856564       48.72607266603758
H           26.82742042493367       49.43604609716645       47.92148794471802
H           28.59023218040561       49.92244278115115       43.39482485957173
H           28.26529974982363       49.30631224739246       41.04644843985800
H           29.54678790328181       47.43831258509757       40.06234275980172
H           31.14094353482763       46.17560124616914       41.47242605938566
H           31.44640544432678       46.77851034805447       43.82434382762403
H           33.93673257476805       48.31178698852589       45.90239642674916
H           35.67979101090534       48.64905626260863       47.61741444489144
H           36.06455543018527       50.89350936085903       48.55130638101740
H           34.69695290371144       52.79588460021855       47.77789023151355
H           32.96745472586056       52.45633659013048       46.07258652372933
H           30.82468450564936       50.24825093182120       40.33183257261436
H           30.01160396181654       51.84936349957750       38.64991656619573
H           30.97366219299674       54.12227450814094       38.53512633281961
H           32.76800602735798       54.76565205655257       40.10532684446998
H           33.57266838932838       53.17611482363696       41.77690678492075
H           36.69669191655124       49.51135589386404       44.79744094097133
H           39.11523504283780       49.91062291662930       44.68098230463561
H           40.23345264975439       50.12681507980256       42.48888509028615
H           38.89573638128144       49.96744825505795       40.42034623523397
H           36.49251190449917       49.54139841443825       40.53062923920977
H           33.90199071581370       45.02721948529510       41.59987897251324
H           32.15378203482418       43.37650065608608       42.07445609611505
H           31.29883363180482       43.08986175420916       44.37093464898896
H           32.22052142366625       44.48003896044231       46.20016620887374
H           33.97029259433274       46.12206012270830       45.72661173007703
H           35.98761660138491       44.51886963479825       46.20204473779427
H           36.64477466802484       45.53280296750120       48.35200365550515
H           38.39752542321823       47.25324025111593       48.42342405922368
H           39.53867767895291       47.92477617304024       46.32651689688641
H           38.83293626890117       46.97638520682248       44.18853852722529
H           38.29672288374469       43.74447122549082       40.13341362467001
H           36.81326345887104       43.58920432176028       38.19810156570313
H           34.55794582084784       42.62769402393028       38.43653507595673
H           33.78993895662796       41.83948025300817       40.65114047083181
H           35.28183358825454       41.98516754229200       42.59577970325151
H           36.36438480845852       39.47483328602244       42.45319481992047
H           35.47383261061559       38.39990731369370       44.47571859716825
H           36.85578340770287       38.25819188733221       46.51506094248168
H           39.15155620562881       39.19008247816931       46.50129153340372
H           40.04115731969247       40.22890619356367       44.48839823545835
H           37.80361140904592       57.43836339264757       48.20567736534441
H           37.04244148434982       57.40472096278197       49.80126417686397
H           36.90032540150311       56.01724698178496       48.72623765174021
H           38.00510631884693       40.57790384533256       41.31979515242797
H           40.78690806677207       39.80890257050557       42.30858203922198
H           39.66628215369700       38.78399353130096       41.42548843124790
C           39.57703522038899       40.60357743898047       39.13941557843935
C           41.62521609677835       39.31968185042213       39.71605096884837
C           41.27596270282748       37.99402489701249       39.48236042704470
C           42.19762815345257       37.09364140357899       38.97910057981454
C           43.48269856740697       37.50878582711186       38.67440958784343
C           43.83582830952022       38.83073017876234       38.87632592364763
C           42.91806587260223       39.72089899309355       39.40415863497715
H           40.27121595099880       37.65426865184426       39.68839996650454
H           41.90695117423915       36.06604359681794       38.81332114815305
H           44.19913720226734       36.81051859726517       38.26783414087027
H           44.82680181120773       39.17270076912597       38.62150693280402
H           43.21201226171416       40.74784032055923       39.56408583621799
C           40.26338954464681       41.11458563799362       37.86936909777149
H           39.01460304549708       39.69357862224059       38.92658281388167
H           38.87402460976971       41.36397924730741       39.48069565830831
C           39.33139371946454       41.76770403335788       36.88865484946664
C           38.11192995542965       41.19706541307961       36.54544188845212
C           37.28821526031772       41.79803902197367       35.61040818130973
C           37.67464769842245       42.97545811193446       34.99395299700004
C           38.88423106953042       43.55692430231785       35.33183187136439
C           39.70000010091542       42.95832335841398       36.27453162954191
H           37.80309751269636       40.27183709970514       37.00802937694902
H           36.34332075901523       41.33971560615851       35.35629467968631
H           37.03854695508002       43.43670414191632       34.25231317108938
H           39.20039793699415       44.47353702628737       34.85562084467237
H           40.64063081969395       43.42267657632128       36.53758803200255
H           41.14525644151391       41.25590351224440       40.43811355833204
H           41.03219799179005       41.83892363474021       38.15247815768046
H           40.76761741880563       40.28033016693708       37.37305250999644
C           50.86282307421772       68.37383330527919       45.39384696826825
C           50.61131492074859       67.35774093812181       44.48137844393953
C           51.61673812336097       66.43034930100488       44.23289244622843
C           52.84145286081833       66.51762354266840       44.86929627055742
C           53.08086216105814       67.53916792802721       45.77251040185697
C           52.08616576585953       68.46480094817170       46.03593963733640
C           49.29284142181763       67.28616755624954       43.75054086760252
C           49.52147555467310       67.43236247675179       42.24257931270491
C           48.54326880178331       65.98128803353337       44.04826779947510
C           47.99075425448718       65.91334382168966       45.48183628850946
C           46.93028743155544       66.96261882743164       45.68869191024711
C           47.14837031919954       68.01337594083199       46.57040474825714
C           46.18809331182059       68.99122766844651       46.76144252900691
C           44.98911037407103       68.92979403634386       46.07299732518701
C           44.75890788975301       67.88454520450121       45.19478520618995
C           45.72193263017549       66.91080562647966       45.00281288363878
C           47.45193489985573       64.50124023916574       45.74342637470576
C           46.72451555385577       64.32189711535733       47.08474570658544
C           47.60685011097614       64.66268083208094       48.25669989599096
C           48.73490671337197       63.91191133187502       48.56296447232212
C           49.51878084629882       64.22379495838481       49.65930831495677
C           49.19161393774804       65.30084396256882       50.46349838397949
C           48.07188162150032       66.05870206079214       50.16791875176129
C           47.28551756302517       65.73818738373198       49.07618248711487
C           46.21163181451465       62.87485430333155       47.14042100007804
C           45.66570731304072       62.42169443491103       48.49903600923936
C           44.52037689326151       63.28786556399952       48.95279158645379
C           43.33752201808397       63.37248290911953       48.22812072626802
C           42.29931569303928       64.17630629318717       48.66303429516509
C           42.42394188799246       64.90841893195761       49.83116504623409
C           43.59544594635894       64.82747462605417       50.56370898738218
C           44.63252531982368       64.02496982945630       50.12418094749746
C           45.24935210160527       60.94876599750033       48.38955832719202
C           44.75491736745674       60.35467751112800       49.71436200273677
C           45.82735858077414       60.37136362200517       50.77274795359787
C           47.02271862364857       59.68424225287814       50.59428830149294
C           47.99946260730514       59.68856265375117       51.57265161069147
C           47.79800343225653       60.38406932875178       52.75174877327061
C           46.61437478014915       61.07493802364574       52.94213502800558
C           45.63802336682714       61.06732435571994       51.96028468393153
C           44.24974952682020       58.92884614962486       49.45941510931961
C           43.51405650901910       58.32130722688323       50.65654032823127
C           42.31619734881790       59.15293909305072       51.04661944207979
C           41.29099247258011       59.40139160008133       50.14046559057297
C           40.17827967001571       60.13006702150173       50.51567145620445
C           40.06656036652489       60.62461299805759       51.80278081148285
C           41.08158853721226       60.38997672389244       52.71277102440478
C           42.19245628731489       59.65590375797870       52.33484835634309
C           43.03388725473418       56.89896317123620       50.31903488908252
C           44.11784204739662       55.80929439419511       50.40584074269918
C           44.10607720898079       54.87048027224154       49.22255874032883
C           42.91817701624446       54.41747746767614       48.66109371765767
C           42.92388995993726       53.49615500099984       47.62862322161629
C           44.12274366707170       52.98760807881083       47.15981600660128
C           45.31300333740909       53.41079883592989       47.72707835134222
C           45.30322818861755       54.35244081065814       48.74051630589436
C           43.92551205792999       54.93136531856961       51.65692516588260
C           44.42499619710708       55.56789451809861       52.95422655775010
C           45.93046142062221       55.67741313584612       53.02223088354985
C           46.51561420150339       56.80434790342572       53.58914995388150
C           47.88611406715313       56.89298860559723       53.75298930732776