      -----------------------------------------------------------      
     |                   =====================                   |     
     |                           x T B                           |     
     |                   =====================                   |     
     |                         S. Grimme                         |     
     |          Mulliken Center for Theoretical Chemistry        |     
     |                    University of Bonn                     |     
      -----------------------------------------------------------      

   * xtb version 6.6.1 (8d0f1dd) compiled by 'stahn@M-Bot' on 2023-08-01

   xtb is free software: you can redistribute it and/or modify it under
   the terms of the GNU Lesser General Public License as published by
   the Free Software Foundation, either version 3 of the License, or
   (at your option) any later version.
   
   xtb is distributed in the hope that it will be useful,
   but WITHOUT ANY WARRANTY; without even the implied warranty of
   MERCHANTABILITY or FITNESS FOR A PARTICULAR PURPOSE.  See the
   GNU Lesser General Public License for more details.
   
   Cite this work as:
   * C. Bannwarth, E. Caldeweyher, S. Ehlert, A. Hansen, P. Pracht,
     J. Seibert, S. Spicher, S. Grimme, WIREs Comput. Mol. Sci., 2020, 11,
     e01493. DOI: 10.1002/wcms.1493
   
   for GFN2-xTB:
   * C. Bannwarth, S. Ehlert and S. Grimme., J. Chem. Theory Comput., 2019,
     15, 1652-1671. DOI: 10.1021/acs.jctc.8b01176
   for GFN1-xTB:
   * S. Grimme, C. Bannwarth, P. Shushkov, J. Chem. Theory Comput., 2017,
     13, 1989-2009. DOI: 10.1021/acs.jctc.7b00118
   for GFN0-xTB:
   * P. Pracht, E. Caldeweyher, S. Ehlert, S. Grimme, ChemRxiv, 2019, preprint.
     DOI: 10.26434/chemrxiv.8326202.v1
   for GFN-FF:
   * S. Spicher and S. Grimme, Angew. Chem. Int. Ed., 2020, 59, 15665-15673.
     DOI: 10.1002/anie.202004239
   
   for ALPB and GBSA implicit solvation:
   * S. Ehlert, M. Stahn, S. Spicher, S. Grimme, J. Chem. Theory Comput.,
     2021, 17, 4250-4261. DOI: 10.1021/acs.jctc.1c00471
   
   for DFT-D4:
   * E. Caldeweyher, C. Bannwarth and S. Grimme, J. Chem. Phys., 2017,
     147, 034112. DOI: 10.1063/1.4993215
   * E. Caldeweyher, S. Ehlert, A. Hansen, H. Neugebauer, S. Spicher,
     C. Bannwarth and S. Grimme, J. Chem. Phys., 2019, 150, 154122.
     DOI: 10.1063/1.5090222
   * E. Caldeweyher, J.-M. Mewes, S. Ehlert and S. Grimme, Phys. Chem. Chem. Phys.
     2020, 22, 8499-8512. DOI: 10.1039/D0CP00502A
   
   for sTDA-xTB:
   * S. Grimme and C. Bannwarth, J. Chem. Phys., 2016, 145, 054103.
     DOI: 10.1063/1.4959605
   
   in the mass-spec context:
   * V. Asgeirsson, C. Bauer and S. Grimme, Chem. Sci., 2017, 8, 4879.
     DOI: 10.1039/c7sc00601b
   * J. Koopman and S. Grimme, ACS Omega 2019, 4, 12, 15120-15133.
     DOI: 10.1021/acsomega.9b02011
   
   for metadynamics refer to:
   * S. Grimme, J. Chem. Theory Comput., 2019, 155, 2847-2862
     DOI: 10.1021/acs.jctc.9b00143
   
   for SPH calculations refer to:
   * S. Spicher and S. Grimme, J. Chem. Theory Comput., 2021, 17, 1701-1714
     DOI: 10.1021/acs.jctc.0c01306
   
   with help from (in alphabetical order)
   P. Atkinson, C. Bannwarth, F. Bohle, G. Brandenburg, E. Caldeweyher
   M. Checinski, S. Dohm, S. Ehlert, S. Ehrlich, I. Gerasimov, C. Hölzer
   A. Katbashev, J. Koopman, C. Lavigne, S. Lehtola, F. März, M. Müller,
   F. Musil, H. Neugebauer, J. Pisarek, C. Plett, P. Pracht, F. Pultar,
   J. Seibert, P. Shushkov, S. Spicher, M. Stahn, M. Steiner, T. Strunk,
   J. Stückrath, T. Rose, and J. Unsleber
   
 * started run on 2024/06/17 at 15:18:47.511     

           -------------------------------------------------
          |                Calculation Setup                |
           -------------------------------------------------

          program call               : /home/abt-grimme/AK-bin/xtb input.xyz --input input.inp --opt --gbsa water
          hostname                   : boar002.thch.uni-bonn.de
          coordinate file            : input.xyz
          omp threads                :                     8

   ID    Z sym.   atoms
    1    6 C      1-120, 363-482, 725-844, 1087-1206, 1449-1568, 1811-1930,
                  2173-2292, 2535-2654, 2897-3016
    2    1 H      121-362, 483-724, 845-1086, 1207-1448, 1569-1810,
                  1931-2172, 2293-2534, 2655-2896, 3017-3258

molecular fragmentation (1/2 indicates fragments):
111111111111111111111111111111111111111111111111111111111111111111111111
111111111111111111111111111111111111111111111111111111111111111111111111
111111111111111111111111111111111111111111111111111111111111111111111111
111111111111111111111111111111111111111111111111111111111111111111111111
111111111111111111111111111111111111111111111111111111111111111111111111
112222222222222222222222222222222222222222222222222222222222222222222222
222222222222222222222222222222222222222222222222222222222222222222222222
222222222222222222222222222222222222222222222222222222222222222222222222
222222222222222222222222222222222222222222222222222222222222222222222222
222222222222222222222222222222222222222222222222222222222222222222222222
222222222222222222222222222222222222222222222222222222222222222222222222
222222222222222222222222222222222222222222222222222222222222222222222222
222222222222222222222222222222222222222222222222222222222222222222222222
222222222222222222222222222222222222222222222222222222222222222222222222
222222222222222222222222222222222222222222222222222222222222222222222222
222222222222222222222222222222222222222222222222222222222222222222222222
222222222222222222222222222222222222222222222222222222222222222222222222
222222222222222222222222222222222222222222222222222222222222222222222222
222222222222222222222222222222222222222222222222222222222222222222222222
222222222222222222222222222222222222222222222222222222222222222222222222
222222222222222222222222222222222222222222222222222222222222222222222222
222222222222222222222222222222222222222222222222222222222222222222222222
222222222222222222222222222222222222222222222222222222222222222222222222
222222222222222222222222222222222222222222222222222222222222222222222222
222222222222222222222222222222222222222222222222222222222222222222222222
222222222222222222222222222222222222222222222222222222222222222222222222
222222222222222222222222222222222222222222222222222222222222222222222222
222222222222222222222222222222222222222222222222222222222222222222222222
222222222222222222222222222222222222222222222222222222222222222222222222
222222222222222222222222222222222222222222222222222222222222222222222222
222222222222222222222222222222222222222222222222222222222222222222222222
222222222222222222222222222222222222222222222222222222222222222222222222
222222222222222222222222222222222222222222222222222222222222222222222222
222222222222222222222222222222222222222222222222222222222222222222222222
222222222222222222222222222222222222222222222222222222222222222222222222
222222222222222222222222222222222222222222222222222222222222222222222222
222222222222222222222222222222222222222222222222222222222222222222222222
222222222222222222222222222222222222222222222222222222222222222222222222
222222222222222222222222222222222222222222222222222222222222222222222222
222222222222222222222222222222222222222222222222222222222222222222222222
222222222222222222222222222222222222222222222222222222222222222222222222
222222222222222222222222222222222222222222222222222222222222222222222222
222222222222222222222222222222222222222222222222222222222222222222222222
222222222222222222222222222222222222222222222222222222222222222222222222
222222222222222222222222222222222222222222222222222222222222222222222222
222222222222222222
# atoms in fragment 1/2:   362  2896
 fragment masses (1/2) :     1685.21    13481.68
CMA distance (Bohr)    :   9.152
constraining FC (au)   :  0.0500

           -------------------------------------------------
          |                 G F N 2 - x T B                 |
           -------------------------------------------------

        Reference                      10.1021/acs.jctc.8b01176
      * Hamiltonian:
        H0-scaling (s, p, d)           1.850000    2.230000    2.230000
        zeta-weighting                 0.500000
      * Dispersion:
        s8                             2.700000
        a1                             0.520000
        a2                             5.000000
        s9                             5.000000
      * Repulsion:
        kExp                           1.500000    1.000000
        rExp                           1.000000
      * Coulomb:
        alpha                          2.000000
        third order                    shell-resolved
        anisotropic                    true
        a3                             3.000000
        a5                             4.000000
        cn-shift                       1.200000
        cn-exp                         4.000000
        max-rad                        5.000000

      * Solvation model:               GBSA
        Solvent                        water
        Parameter file                 internal GFN2-xTB/GBSA
        Dielectric constant                8.0200E+01
        Reference state                gsolv [1 M gas/solution]
        Free energy shift                  1.8574E-03 Eh       1.1656E+00 kcal/mol
        Temperature                        2.9815E+02 K
        Density                            1.0000E+00 kg/L
        Solvent mass                       1.8000E+01 g/mol
        Interaction kernel             Still
        Born radius scaling (c1)           1.5524E+00
        Born radii integrator          GBOBC
        Born offset                        2.4628E-02 a0       4.6540E-02 AA
        H-bond correction              true
        Ion screening                  false
        Surface tension                    1.0000E-05 Eh       1.5569E+01 dyn/cm
        Grid points                               230 per atom
q/qsh data taken from xtbrestart
CAMM data taken from xtbrestart

          ...................................................
          :                      SETUP                      :
          :.................................................:
          :  # basis functions                6498          :
          :  # atomic orbitals                6498          :
          :  # shells                         4338          :
          :  # electrons                      6498          :
          :  max. iterations                   250          :
          :  Hamiltonian                  GFN2-xTB          :
          :  restarted?                       true          :
          :  GBSA solvation                   true          :
          :  PC potential                    false          :
          :  electronic temp.          300.0000000     K    :
          :  accuracy                    1.0000000          :
          :  -> integral cutoff          0.2500000E+02      :
          :  -> integral neglect         0.1000000E-07      :
          :  -> SCF convergence          0.1000000E-05 Eh   :
          :  -> wf. convergence          0.1000000E-03 e    :
          :  Broyden damping             0.4000000          :
          ...................................................

 iter      E             dE          RMSdq      gap      omega  full diag
   1  -3472.3370543 -0.347234E+04  0.859E-05   10.67       0.0  T
   2  -3472.3370543 -0.517048E-08  0.672E-05   10.67      26.1  T
   3  -3472.3370543 -0.742602E-08  0.351E-05   10.67      50.0  T

   *** convergence criteria satisfied after 3 iterations ***

         #    Occupation            Energy/Eh            Energy/eV
      -------------------------------------------------------------
         1        2.0000           -0.6170177             -16.7899
       ...           ...                  ...                  ...
      3243        2.0000           -0.3868066             -10.5255
      3244        2.0000           -0.3866472             -10.5212
      3245        2.0000           -0.3861697             -10.5082
      3246        2.0000           -0.3860642             -10.5053
      3247        2.0000           -0.3855308             -10.4908
      3248        2.0000           -0.3842100             -10.4549
      3249        2.0000           -0.3839249             -10.4471 (HOMO)
      3250                          0.0081202               0.2210 (LUMO)
      3251                          0.0159005               0.4327
      3252                          0.0161314               0.4390
      3253                          0.0179809               0.4893
      3254                          0.0188927               0.5141
       ...                                ...                  ...
      6498                          0.3830750              10.4240
      -------------------------------------------------------------
                  HL-Gap            0.3920450 Eh           10.6681 eV
             Fermi-level           -0.1879023 Eh           -5.1131 eV

 SCC (total)                   0 d,  0 h,  7 min, 34.782 sec
 SCC setup                      ...        0 min,  1.723 sec (  0.379%)
 Dispersion                     ...        0 min,  3.605 sec (  0.793%)
 classical contributions        ...        0 min,  0.160 sec (  0.035%)
 integral evaluation            ...        0 min,  5.957 sec (  1.310%)
 iterations                     ...        3 min, 16.028 sec ( 43.104%)
 molecular gradient             ...        3 min, 58.696 sec ( 52.486%)
 printout                       ...        0 min,  8.611 sec (  1.894%)

         :::::::::::::::::::::::::::::::::::::::::::::::::::::
         ::                     SUMMARY                     ::
         :::::::::::::::::::::::::::::::::::::::::::::::::::::
         :: total energy           -3426.845415231193 Eh    ::
         :: total w/o Gsasa/hb     -3426.754469813076 Eh    ::
         :: gradient norm              0.633340567319 Eh/a0 ::
         :: HOMO-LUMO gap             10.668088487904 eV    ::
         ::.................................................::
         :: SCC energy             -3472.337054349140 Eh    ::
         :: -> isotropic ES            0.279172350713 Eh    ::
         :: -> anisotropic ES          1.294179076788 Eh    ::
         :: -> anisotropic XC          2.131052759119 Eh    ::
         :: -> dispersion             -4.255504355171 Eh    ::
         :: -> Gsolv                  -0.027973577406 Eh    ::
         ::    -> Gelec                0.062971840711 Eh    ::
         ::    -> Gsasa               -0.088803177563 Eh    ::
         ::    -> Ghb                 -0.003999683681 Eh    ::
         ::    -> Gshift               0.001857443127 Eh    ::
         :: repulsion energy          44.785059181484 Eh    ::
         :: add. restraining           0.000000000000 Eh    ::
         :: total charge              -0.000000000012 e     ::
         :::::::::::::::::::::::::::::::::::::::::::::::::::::

      ----------------------------------------------------------- 
     |              Fast Inertial Relaxation Engine              |
      ----------------------------------------------------------- 

          ...................................................
          :                      SETUP                      :
          :.................................................:
          :   energy convergence        0.5000000E-05 Eh    :
          :   grad. convergence         0.1000000E-02 Eh/a0 :
          :   optimization log               true           :
          :   writing optlog all                1     steps :
          :   Hessian reset                    20     steps :
          :   time step scaling                 5     steps :
          :   maximium step len.        1.0000000     a0    :
          :   initial time step         0.2500000     fs    :
          :   maximum time step         1.2500000     fs    :
          :   power reset thr           0.0000000     au    :
          :   alpha parameter           0.1000000           :
          :   BFGS update                   false           :
          :   preconditioning               false           :
          ...................................................

........................................................................
.............................. CYCLE    1 ..............................
........................................................................

 iter      E             dE          RMSdq      gap      omega  full diag
   1  -3472.5708444 -0.347257E+04  0.747E-03   10.71       0.0  T
   2  -3472.5708888 -0.444660E-04  0.392E-03   10.71       1.0  T
   3  -3472.5708893 -0.424801E-06  0.182E-03   10.71       1.0  T
   4  -3472.5708894 -0.154909E-06  0.224E-04   10.71       7.8  T
   5  -3472.5708894 -0.358632E-07  0.145E-04   10.71      12.1  T
     SCC iter.                  ...        5 min,  3.261 sec
     gradient                   ...        3 min, 58.293 sec
 * total energy  : -3426.8910255 Eh     change    :  -0.4561029E-01 Eh
   gradient norm :     0.5996329 Eh/a0  converged?    E=F G=F D=F
   time step     :     0.2500000 fs     power     :   0.2353408E-05
   step length   :     0.0742262 a0     speed     :   0.7181780E-02

........................................................................
.............................. CYCLE    2 ..............................
........................................................................

 iter      E             dE          RMSdq      gap      omega  full diag
   1  -3472.9153093 -0.347292E+04  0.109E-02   10.77       0.0  T
   2  -3472.9154045 -0.951731E-04  0.574E-03   10.76       1.0  T
   3  -3472.9154055 -0.986895E-06  0.267E-03   10.76       1.0  T
   4  -3472.9154059 -0.386426E-06  0.349E-04   10.76       5.0  T
   5  -3472.9154060 -0.870268E-07  0.234E-04   10.76       7.5  T
     SCC iter.                  ...        4 min, 54.278 sec
     gradient                   ...        3 min, 57.837 sec
 * total energy  : -3426.9537372 Eh     change    :  -0.6271164E-01 Eh
   gradient norm :     0.5507107 Eh/a0  converged?    E=F G=F D=F
   time step     :     0.2500000 fs     power     :   0.3182396E-05
   step length   :     0.1092648 a0     speed     :   0.1057195E-01

........................................................................
.............................. CYCLE    3 ..............................
........................................................................

 iter      E             dE          RMSdq      gap      omega  full diag
   1  -3473.3613196 -0.347336E+04  0.140E-02   10.84       0.0  T
   2  -3473.3614744 -0.154750E-03  0.735E-03   10.84       1.0  T
   3  -3473.3614761 -0.170009E-05  0.340E-03   10.84       1.0  T
   4  -3473.3614767 -0.661564E-06  0.459E-04   10.84       3.8  T
   5  -3473.3614769 -0.146438E-06  0.309E-04   10.84       5.7  T
     SCC iter.                  ...        4 min, 57.472 sec
     gradient                   ...        4 min,  0.158 sec
 * total energy  : -3427.0269963 Eh     change    :  -0.7325910E-01 Eh
   gradient norm :     0.4896742 Eh/a0  converged?    E=F G=F D=F
   time step     :     0.2500000 fs     power     :   0.3645756E-05
   step length   :     0.1414279 a0     speed     :   0.1368391E-01

........................................................................
.............................. CYCLE    4 ..............................
........................................................................

 iter      E             dE          RMSdq      gap      omega  full diag
   1  -3473.8973082 -0.347390E+04  0.166E-02   10.92       0.0  T
   2  -3473.8975213 -0.213096E-03  0.870E-03   10.92       1.0  T
   3  -3473.8975238 -0.251232E-05  0.398E-03   10.92       1.0  T
   4  -3473.8975248 -0.945498E-06  0.554E-04   10.92       3.2  T
   5  -3473.8975250 -0.203967E-06  0.371E-04   10.92       4.7  T
     SCC iter.                  ...        4 min, 57.579 sec
     gradient                   ...        3 min, 57.345 sec
 * total energy  : -3427.1034447 Eh     change    :  -0.7644843E-01 Eh
   gradient norm :     0.4210227 Eh/a0  converged?    E=F G=F D=F
   time step     :     0.2500000 fs     power     :   0.3714227E-05
   step length   :     0.1698597 a0     speed     :   0.1643484E-01

........................................................................
.............................. CYCLE    5 ..............................
........................................................................

 iter      E             dE          RMSdq      gap      omega  full diag
   1  -3474.5093773 -0.347451E+04  0.186E-02   10.97       0.0  T
   2  -3474.5096366 -0.259368E-03  0.973E-03   10.97       1.0  T
   3  -3474.5096400 -0.336645E-05  0.439E-03   10.97       1.0  T
   4  -3474.5096412 -0.119899E-05  0.634E-04   10.97       2.8  T
   5  -3474.5096415 -0.248202E-06  0.421E-04   10.97       4.2  T
   6  -3474.5096416 -0.163828E-06  0.188E-04   10.97       9.3  T
     SCC iter.                  ...        5 min, 56.686 sec
     gradient                   ...        3 min, 57.326 sec
 * total energy  : -3427.1759733 Eh     change    :  -0.7252865E-01 Eh
   gradient norm :     0.3516171 Eh/a0  converged?    E=F G=F D=F
   time step     :     0.2500000 fs     power     :   0.3418500E-05
   step length   :     0.1938258 a0     speed     :   0.1875369E-01

........................................................................
.............................. CYCLE    6 ..............................
........................................................................

 iter      E             dE          RMSdq      gap      omega  full diag
   1  -3475.2546191 -0.347525E+04  0.220E-02   10.98       0.0  T
   2  -3475.2549658 -0.346654E-03  0.115E-02   10.98       1.0  T
   3  -3475.2549708 -0.507488E-05  0.506E-03   10.98       1.0  T
   4  -3475.2549724 -0.160335E-05  0.757E-04   10.97       2.3  T
   5  -3475.2549728 -0.312139E-06  0.488E-04   10.97       3.6  T
   6  -3475.2549729 -0.183780E-06  0.201E-04   10.97       8.7  T
     SCC iter.                  ...        5 min, 52.004 sec
     gradient                   ...        3 min, 59.263 sec
 * total energy  : -3427.2447342 Eh     change    :  -0.6876086E-01 Eh
   gradient norm :     0.2851283 Eh/a0  converged?    E=F G=F D=F
   time step     :     0.2750000 fs     power     :   0.2767230E-05
   step length   :     0.2360816 a0     speed     :   0.2076560E-01

........................................................................
.............................. CYCLE    7 ..............................
........................................................................

 iter      E             dE          RMSdq      gap      omega  full diag
   1  -3476.1273681 -0.347613E+04  0.251E-02   10.98       0.0  T
   2  -3476.1277742 -0.406134E-03  0.132E-02   10.98       1.0  T
   3  -3476.1277816 -0.741478E-05  0.549E-03   10.98       1.0  T
   4  -3476.1277837 -0.205454E-05  0.888E-04   10.97       2.0  T
   5  -3476.1277840 -0.353855E-06  0.559E-04   10.97       3.1  T
   6  -3476.1277842 -0.203667E-06  0.209E-04   10.97       8.4  T
     SCC iter.                  ...        5 min, 51.427 sec
     gradient                   ...        3 min, 58.330 sec
 * total energy  : -3427.3016148 Eh     change    :  -0.5688060E-01 Eh
   gradient norm :     0.2419965 Eh/a0  converged?    E=F G=F D=F
   time step     :     0.3025000 fs     power     :   0.1860986E-05
   step length   :     0.2779691 a0     speed     :   0.2222728E-01

........................................................................
.............................. CYCLE    8 ..............................
........................................................................

 iter      E             dE          RMSdq      gap      omega  full diag
   1  -3477.0908590 -0.347709E+04  0.274E-02   10.97       0.0  T
   2  -3477.0912464 -0.387375E-03  0.146E-02   10.97       1.0  T
   3  -3477.0912565 -0.100584E-04  0.540E-03   10.97       1.0  T
   4  -3477.0912587 -0.226275E-05  0.993E-04   10.97       1.8  T
   5  -3477.0912591 -0.318375E-06  0.601E-04   10.97       2.9  T
   6  -3477.0912592 -0.183551E-06  0.192E-04   10.97       9.1  T
     SCC iter.                  ...        5 min, 54.539 sec
     gradient                   ...        3 min, 59.788 sec
 * total energy  : -3427.3412834 Eh     change    :  -0.3966860E-01 Eh
   gradient norm :     0.2373953 Eh/a0  converged?    E=F G=F D=F
   time step     :     0.3327500 fs     power     :   0.9454161E-06
   step length   :     0.3134711 a0     speed     :   0.2278739E-01

........................................................................
.............................. CYCLE    9 ..............................
........................................................................

 iter      E             dE          RMSdq      gap      omega  full diag
   1  -3478.0686698 -0.347807E+04  0.292E-02   10.97       0.0  T
   2  -3478.0689444 -0.274588E-03  0.159E-02   10.97       1.0  T
   3  -3478.0689567 -0.122965E-04  0.452E-03   10.97       1.0  T
   4  -3478.0689586 -0.197028E-05  0.104E-03   10.97       1.7  T
   5  -3478.0689588 -0.197698E-06  0.589E-04   10.97       3.0  T
   6  -3478.0689590 -0.124422E-06  0.143E-04   10.97      12.2  T
     SCC iter.                  ...        6 min,  5.519 sec
     gradient                   ...        4 min,  0.662 sec
 * total energy  : -3427.3645192 Eh     change    :  -0.2323578E-01 Eh
   gradient norm :     0.2517738 Eh/a0  converged?    E=F G=F D=F
   time step     :     0.3660250 fs     power     :   0.2806817E-06
   step length   :     0.3369017 a0     speed     :   0.2226422E-01

........................................................................
.............................. CYCLE   10 ..............................
........................................................................

 iter      E             dE          RMSdq      gap      omega  full diag
   1  -3478.9672815 -0.347897E+04  0.314E-02   10.97       0.0  T
   2  -3478.9674110 -0.129498E-03  0.178E-02   10.97       1.0  T
   3  -3478.9674243 -0.133958E-04  0.289E-03   10.97       1.0  T
   4  -3478.9674257 -0.139298E-05  0.104E-03   10.97       1.7  T
   5  -3478.9674258 -0.598302E-07  0.510E-04   10.97       3.4  T
   6  -3478.9674259 -0.673631E-07  0.733E-05   10.97      23.9  T
     SCC iter.                  ...        5 min, 52.148 sec
     gradient                   ...        4 min,  0.012 sec
 * total energy  : -3427.3761038 Eh     change    :  -0.1158460E-01 Eh
   gradient norm :     0.2512714 Eh/a0  converged?    E=F G=F D=F
   time step     :     0.4026275 fs     power     :  -0.1060703E-06
   step length   :     0.3495621 a0     speed     :   0.2100081E-01

........................................................................
.............................. CYCLE   11 ..............................
........................................................................
 * reset velocities

 iter      E             dE          RMSdq      gap      omega  full diag
   1  -3478.9502947 -0.347895E+04  0.118E-03   10.97       0.0  T
   2  -3478.9502954 -0.786293E-06  0.675E-04   10.97       2.6  T
   3  -3478.9502954 -0.371756E-08  0.265E-04   10.97       6.6  T
     SCC iter.                  ...        2 min, 55.800 sec
     gradient                   ...        3 min, 59.267 sec
 * total energy  : -3427.3784688 Eh     change    :  -0.2365019E-02 Eh
   gradient norm :     0.2441556 Eh/a0  converged?    E=F G=F D=F
   time step     :     0.2013138 fs     power     :   0.1536530E-06
   step length   :     0.0095477 a0     speed     :   0.1147206E-02

........................................................................
.............................. CYCLE   12 ..............................
........................................................................

 iter      E             dE          RMSdq      gap      omega  full diag
   1  -3478.9164700 -0.347892E+04  0.232E-03   10.97       0.0  T
   2  -3478.9164730 -0.304497E-05  0.133E-03   10.97       1.3  T
   3  -3478.9164730 -0.188402E-07  0.523E-04   10.97       3.3  T
   4  -3478.9164730 -0.958926E-08  0.466E-05   10.97      37.6  T
     SCC iter.                  ...        3 min, 57.296 sec
     gradient                   ...        3 min, 58.165 sec
 * total energy  : -3427.3829337 Eh     change    :  -0.4464949E-02 Eh
   gradient norm :     0.2302122 Eh/a0  converged?    E=F G=F D=F
   time step     :     0.2013138 fs     power     :   0.2856268E-06
   step length   :     0.0188250 a0     speed     :   0.2261915E-02

........................................................................
.............................. CYCLE   13 ..............................
........................................................................

 iter      E             dE          RMSdq      gap      omega  full diag
   1  -3478.8668211 -0.347887E+04  0.339E-03   10.97       0.0  T
   2  -3478.8668277 -0.658945E-05  0.194E-03   10.97       1.0  T
   3  -3478.8668278 -0.478258E-07  0.771E-04   10.97       2.3  T
   4  -3478.8668278 -0.262230E-07  0.783E-05   10.97      22.4  T
     SCC iter.                  ...        4 min,  3.615 sec
     gradient                   ...        3 min, 58.728 sec
 * total energy  : -3427.3890000 Eh     change    :  -0.6066257E-02 Eh
   gradient norm :     0.2098922 Eh/a0  converged?    E=F G=F D=F
   time step     :     0.2013138 fs     power     :   0.3812942E-06
   step length   :     0.0275718 a0     speed     :   0.3312890E-02

........................................................................
.............................. CYCLE   14 ..............................
........................................................................

 iter      E             dE          RMSdq      gap      omega  full diag
   1  -3478.8026504 -0.347880E+04  0.436E-03   10.97       0.0  T
   2  -3478.8026614 -0.109618E-04  0.250E-03   10.97       1.0  T
   3  -3478.8026614 -0.842406E-07  0.996E-04   10.97       1.8  T
   4  -3478.8026615 -0.469167E-07  0.105E-04   10.97      16.6  T
     SCC iter.                  ...        3 min, 54.813 sec
     gradient                   ...        3 min, 59.242 sec
 * total energy  : -3427.3959944 Eh     change    :  -0.6994437E-02 Eh
   gradient norm :     0.1839279 Eh/a0  converged?    E=F G=F D=F
   time step     :     0.2013138 fs     power     :   0.4303287E-06
   step length   :     0.0355441 a0     speed     :   0.4270796E-02

........................................................................
.............................. CYCLE   15 ..............................
........................................................................

 iter      E             dE          RMSdq      gap      omega  full diag
   1  -3478.7256905 -0.347873E+04  0.519E-03   10.97       0.0  T
   2  -3478.7257061 -0.156825E-04  0.298E-03   10.97       1.0  T
   3  -3478.7257063 -0.123317E-06  0.119E-03   10.97       1.5  T
   4  -3478.7257063 -0.694245E-07  0.128E-04   10.97      13.6  T
   5  -3478.7257064 -0.178989E-07  0.925E-05   10.97      18.9  T
     SCC iter.                  ...        4 min, 53.684 sec
     gradient                   ...        3 min, 56.807 sec
 * total energy  : -3427.4031493 Eh     change    :  -0.7154893E-02 Eh
   gradient norm :     0.1533049 Eh/a0  converged?    E=F G=F D=F
   time step     :     0.2013138 fs     power     :   0.4278986E-06
   step length   :     0.0425220 a0     speed     :   0.5109231E-02

........................................................................
.............................. CYCLE   16 ..............................
........................................................................

 iter      E             dE          RMSdq      gap      omega  full diag
   1  -3478.6381241 -0.347864E+04  0.586E-03   10.97       0.0  T
   2  -3478.6381443 -0.201720E-04  0.337E-03   10.97       1.0  T
   3  -3478.6381444 -0.143017E-06  0.135E-03   10.97       1.3  T
   4  -3478.6381445 -0.775872E-07  0.135E-04   10.97      13.0  T
   5  -3478.6381445 -0.204413E-07  0.949E-05   10.97      18.5  T
     SCC iter.                  ...        4 min, 52.746 sec
     gradient                   ...        3 min, 57.421 sec
 * total energy  : -3427.4096942 Eh     change    :  -0.6544852E-02 Eh
   gradient norm :     0.1194799 Eh/a0  converged?    E=F G=F D=F
   time step     :     0.2013138 fs     power     :   0.3755634E-06
   step length   :     0.0483140 a0     speed     :   0.5805171E-02

........................................................................
.............................. CYCLE   17 ..............................
........................................................................

 iter      E             dE          RMSdq      gap      omega  full diag
   1  -3478.5321734 -0.347853E+04  0.703E-03   10.97       0.0  T
   2  -3478.5322028 -0.293448E-04  0.404E-03   10.97       1.0  T
   3  -3478.5322030 -0.201476E-06  0.163E-03   10.97       1.1  T
   4  -3478.5322031 -0.108332E-06  0.160E-04   10.97      11.0  T
   5  -3478.5322031 -0.289824E-07  0.111E-04   10.97      15.8  T
     SCC iter.                  ...        4 min, 56.421 sec
     gradient                   ...        3 min, 57.724 sec
 * total energy  : -3427.4154089 Eh     change    :  -0.5714750E-02 Eh
   gradient norm :     0.0811672 Eh/a0  converged?    E=F G=F D=F
   time step     :     0.2214451 fs     power     :   0.2691728E-06
   step length   :     0.0585244 a0     speed     :   0.6392724E-02

........................................................................
.............................. CYCLE   18 ..............................
........................................................................

 iter      E             dE          RMSdq      gap      omega  full diag
   1  -3478.4094598 -0.347841E+04  0.807E-03   10.97       0.0  T
   2  -3478.4094990 -0.391707E-04  0.464E-03   10.97       1.0  T
   3  -3478.4094992 -0.265755E-06  0.188E-03   10.97       1.0  T
   4  -3478.4094994 -0.141328E-06  0.183E-04   10.97       9.6  T
   5  -3478.4094994 -0.382661E-07  0.125E-04   10.97      14.0  T
     SCC iter.                  ...        4 min, 54.657 sec
     gradient                   ...        4 min,  1.387 sec
 * total energy  : -3427.4191331 Eh     change    :  -0.3724144E-02 Eh
   gradient norm :     0.0478966 Eh/a0  converged?    E=F G=F D=F
   time step     :     0.2435896 fs     power     :   0.1146844E-06
   step length   :     0.0683922 a0     speed     :   0.6791452E-02

........................................................................
.............................. CYCLE   19 ..............................
........................................................................

 iter      E             dE          RMSdq      gap      omega  full diag
   1  -3478.2796946 -0.347828E+04  0.845E-03   10.97       0.0  T
   2  -3478.2797385 -0.438739E-04  0.488E-03   10.97       1.0  T
   3  -3478.2797388 -0.298245E-06  0.200E-03   10.97       1.0  T
   4  -3478.2797390 -0.154288E-06  0.192E-04   10.97       9.1  T
   5  -3478.2797390 -0.425807E-07  0.128E-04   10.97      13.7  T
     SCC iter.                  ...        4 min, 54.662 sec
     gradient                   ...        3 min, 57.472 sec
 * total energy  : -3427.4199327 Eh     change    :  -0.7996296E-03 Eh
   gradient norm :     0.0541655 Eh/a0  converged?    E=F G=F D=F
   time step     :     0.2679486 fs     power     :  -0.4977578E-07
   step length   :     0.0751090 a0     speed     :   0.6780402E-02

........................................................................
.............................. CYCLE   20 ..............................
........................................................................
 * reset velocities

 iter      E             dE          RMSdq      gap      omega  full diag
   1  -3478.2809057 -0.347828E+04  0.125E-04   10.97       0.0  T
   2  -3478.2809057 -0.673936E-08  0.825E-05   10.97      21.2  T
   3  -3478.2809057 -0.461023E-08  0.386E-05   10.97      45.4  T
     SCC iter.                  ...        2 min, 55.626 sec
     gradient                   ...        3 min, 57.501 sec
 * total energy  : -3427.4199819 Eh     change    :  -0.4920752E-04 Eh
   gradient norm :     0.0537868 Eh/a0  converged?    E=F G=F D=T
   time step     :     0.1339743 fs     power     :   0.4855949E-08
   step length   :     0.0009115 a0     speed     :   0.1645771E-03
 * RMSD in coord.:     0.0347102 a0     energy gain  -0.5745667E+00 Eh

........................................................................
.............................. CYCLE   21 ..............................
........................................................................

 iter      E             dE          RMSdq      gap      omega  full diag
   1  -3478.2870744 -0.347829E+04  0.550E-04   10.97       0.0  T
   2  -3478.2870745 -0.875493E-07  0.313E-04   10.97       5.6  T
   3  -3478.2870745 -0.762611E-09  0.860E-05   10.97      20.4  T
     SCC iter.                  ...        2 min, 58.161 sec
     gradient                   ...        3 min, 58.707 sec
 * total energy  : -3427.4202385 Eh     change    :  -0.2565592E-03 Eh
   gradient norm :     0.0519767 Eh/a0  converged?    E=F G=F D=F
   time step     :     0.2500000 fs     power     :   0.1337920E-07
   step length   :     0.0048528 a0     speed     :   0.4695328E-03

........................................................................
.............................. CYCLE   22 ..............................
........................................................................

 iter      E             dE          RMSdq      gap      omega  full diag
   1  -3478.2969339 -0.347830E+04  0.897E-04   10.97       0.0  T
   2  -3478.2969341 -0.224113E-06  0.511E-04   10.97       3.4  T
   3  -3478.2969341 -0.376667E-08  0.138E-04   10.97      12.7  T
     SCC iter.                  ...        2 min, 56.764 sec
     gradient                   ...        3 min, 59.646 sec
 * total energy  : -3427.4206375 Eh     change    :  -0.3990396E-03 Eh
   gradient norm :     0.0492274 Eh/a0  converged?    E=F G=F D=F
   time step     :     0.2500000 fs     power     :   0.2057049E-07
   step length   :     0.0078973 a0     speed     :   0.7641046E-03

........................................................................
.............................. CYCLE   23 ..............................
........................................................................

 iter      E             dE          RMSdq      gap      omega  full diag
   1  -3478.3099881 -0.347831E+04  0.121E-03   10.97       0.0  T
   2  -3478.3099885 -0.391532E-06  0.687E-04   10.97       2.5  T
   3  -3478.3099885 -0.921773E-08  0.183E-04   10.97       9.6  T
     SCC iter.                  ...        3 min,  2.407 sec
     gradient                   ...        3 min, 56.907 sec
 * total energy  : -3427.4211472 Eh     change    :  -0.5097448E-03 Eh
   gradient norm :     0.0458760 Eh/a0  converged?    E=F G=F D=F
   time step     :     0.2500000 fs     power     :   0.2597905E-07
   step length   :     0.0107744 a0     speed     :   0.1042482E-02

........................................................................
.............................. CYCLE   24 ..............................
........................................................................

 iter      E             dE          RMSdq      gap      omega  full diag
   1  -3478.3255414 -0.347833E+04  0.147E-03   10.97       0.0  T
   2  -3478.3255419 -0.550922E-06  0.837E-04   10.97       2.1  T
   3  -3478.3255419 -0.152354E-07  0.217E-04   10.97       8.1  T
     SCC iter.                  ...        3 min,  0.246 sec
     gradient                   ...        3 min, 56.822 sec
 * total energy  : -3427.4217320 Eh     change    :  -0.5847092E-03 Eh
   gradient norm :     0.0423975 Eh/a0  converged?    E=F G=F D=F
   time step     :     0.2500000 fs     power     :   0.2949664E-07
   step length   :     0.0134361 a0     speed     :   0.1300017E-02

........................................................................
.............................. CYCLE   25 ..............................
........................................................................

 iter      E             dE          RMSdq      gap      omega  full diag
   1  -3478.3427005 -0.347834E+04  0.167E-03   10.97       0.0  T
   2  -3478.3427012 -0.659460E-06  0.953E-04   10.97       1.8  T
   3  -3478.3427012 -0.214277E-07  0.236E-04   10.97       7.4  T
     SCC iter.                  ...        3 min,  2.938 sec
     gradient                   ...        3 min, 58.142 sec
 * total energy  : -3427.4223593 Eh     change    :  -0.6273639E-03 Eh
   gradient norm :     0.0393516 Eh/a0  converged?    E=F G=F D=F
   time step     :     0.2500000 fs     power     :   0.3140050E-07
   step length   :     0.0158493 a0     speed     :   0.1533503E-02

........................................................................
.............................. CYCLE   26 ..............................
........................................................................

 iter      E             dE          RMSdq      gap      omega  full diag
   1  -3478.3623075 -0.347836E+04  0.200E-03   10.97       0.0  T
   2  -3478.3623084 -0.837214E-06  0.114E-03   10.97       1.5  T
   3  -3478.3623084 -0.312643E-07  0.263E-04   10.97       6.7  T
   4  -3478.3623084 -0.123264E-07  0.647E-05   10.97      27.1  T
     SCC iter.                  ...        3 min, 54.507 sec
     gradient                   ...        4 min,  1.009 sec
 * total energy  : -3427.4230766 Eh     change    :  -0.7172933E-03 Eh
   gradient norm :     0.0370787 Eh/a0  converged?    E=F G=F D=F
   time step     :     0.2750000 fs     power     :   0.3232205E-07
   step length   :     0.0200426 a0     speed     :   0.1762932E-02

........................................................................
.............................. CYCLE   27 ..............................
........................................................................

 iter      E             dE          RMSdq      gap      omega  full diag
   1  -3478.3830664 -0.347838E+04  0.230E-03   10.97       0.0  T
   2  -3478.3830673 -0.905234E-06  0.131E-03   10.97       1.3  T
   3  -3478.3830673 -0.382724E-07  0.269E-04   10.97       6.5  T
   4  -3478.3830673 -0.155119E-07  0.709E-05   10.97      24.7  T
     SCC iter.                  ...        3 min, 57.980 sec
     gradient                   ...        3 min, 58.067 sec
 * total energy  : -3427.4238844 Eh     change    :  -0.8077667E-03 Eh
   gradient norm :     0.0361817 Eh/a0  converged?    E=F G=F D=F
   time step     :     0.3025000 fs     power     :   0.3300427E-07
   step length   :     0.0248079 a0     speed     :   0.1983716E-02

........................................................................
.............................. CYCLE   28 ..............................
........................................................................

 iter      E             dE          RMSdq      gap      omega  full diag
   1  -3478.4028273 -0.347840E+04  0.252E-03   10.97       0.0  T
   2  -3478.4028280 -0.759390E-06  0.144E-03   10.97       1.2  T
   3  -3478.4028281 -0.464834E-07  0.239E-04   10.97       7.3  T
   4  -3478.4028281 -0.176015E-07  0.764E-05   10.97      22.9  T
     SCC iter.                  ...        4 min,  3.518 sec
     gradient                   ...        4 min,  0.210 sec
 * total energy  : -3427.4248082 Eh     change    :  -0.9238451E-03 Eh
   gradient norm :     0.0365730 Eh/a0  converged?    E=F G=F D=F
   time step     :     0.3327500 fs     power     :   0.3461787E-07
   step length   :     0.0302087 a0     speed     :   0.2195982E-02

........................................................................
.............................. CYCLE   29 ..............................
........................................................................

 iter      E             dE          RMSdq      gap      omega  full diag
   1  -3478.4188408 -0.347842E+04  0.267E-03   10.97       0.0  T
   2  -3478.4188413 -0.454045E-06  0.154E-03   10.97       1.1  T
   3  -3478.4188414 -0.513019E-07  0.182E-04   10.97       9.6  T
   4  -3478.4188414 -0.190844E-07  0.782E-05   10.97      22.4  T
     SCC iter.                  ...        4 min,  2.265 sec
     gradient                   ...        3 min, 58.701 sec
 * total energy  : -3427.4259070 Eh     change    :  -0.1098798E-02 Eh
   gradient norm :     0.0371611 Eh/a0  converged?    E=F G=F D=F
   time step     :     0.3660250 fs     power     :   0.3802303E-07
   step length   :     0.0364704 a0     speed     :   0.2410153E-02

........................................................................
.............................. CYCLE   30 ..............................
........................................................................

 iter      E             dE          RMSdq      gap      omega  full diag
   1  -3478.4283507 -0.347843E+04  0.283E-03   10.98       0.0  T
   2  -3478.4283510 -0.244800E-06  0.165E-03   10.98       1.1  T
   3  -3478.4283510 -0.508021E-07  0.142E-04   10.98      12.3  T
   4  -3478.4283510 -0.215682E-07  0.758E-05   10.98      23.1  T
     SCC iter.                  ...        3 min, 53.875 sec
     gradient                   ...        3 min, 58.359 sec
 * total energy  : -3427.4272544 Eh     change    :  -0.1347400E-02 Eh
   gradient norm :     0.0363917 Eh/a0  converged?    E=F G=F D=F
   time step     :     0.4026275 fs     power     :   0.4279976E-07
   step length   :     0.0440302 a0     speed     :   0.2645222E-02

........................................................................
.............................. CYCLE   31 ..............................
........................................................................

 iter      E             dE          RMSdq      gap      omega  full diag
   1  -3478.4294824 -0.347843E+04  0.311E-03   10.98       0.0  T
   2  -3478.4294829 -0.523067E-06  0.184E-03   10.98       1.0  T
   3  -3478.4294830 -0.475011E-07  0.161E-04   10.98      10.9  T
   4  -3478.4294830 -0.248715E-07  0.685E-05   10.98      25.6  T
     SCC iter.                  ...        3 min, 55.844 sec
     gradient                   ...        3 min, 57.234 sec
 * total energy  : -3427.4288880 Eh     change    :  -0.1633561E-02 Eh
   gradient norm :     0.0332332 Eh/a0  converged?    E=F G=F D=F
   time step     :     0.4428903 fs     power     :   0.4682986E-07
   step length   :     0.0533963 a0     speed     :   0.2916285E-02

........................................................................
.............................. CYCLE   32 ..............................
........................................................................

 iter      E             dE          RMSdq      gap      omega  full diag
   1  -3478.4227494 -0.347842E+04  0.359E-03   10.98       0.0  T
   2  -3478.4227509 -0.147131E-05  0.215E-03   10.98       1.0  T
   3  -3478.4227510 -0.534660E-07  0.263E-04   10.98       6.7  T
   4  -3478.4227510 -0.276482E-07  0.686E-05   10.98      25.6  T
     SCC iter.                  ...        4 min,  8.299 sec
     gradient                   ...        3 min, 57.526 sec
 * total energy  : -3427.4307498 Eh     change    :  -0.1861815E-02 Eh
   gradient norm :     0.0284483 Eh/a0  converged?    E=F G=F D=F
   time step     :     0.4871793 fs     power     :   0.4729503E-07
   step length   :     0.0648799 a0     speed     :   0.3221342E-02

........................................................................
.............................. CYCLE   33 ..............................
........................................................................

 iter      E             dE          RMSdq      gap      omega  full diag
   1  -3478.4134355 -0.347841E+04  0.415E-03   10.98       0.0  T
   2  -3478.4134379 -0.239800E-05  0.249E-03   10.98       1.0  T
   3  -3478.4134380 -0.652840E-07  0.342E-04   10.98       5.1  T
   4  -3478.4134380 -0.307323E-07  0.722E-05   10.98      24.3  T
     SCC iter.                  ...        3 min, 55.489 sec
     gradient                   ...        3 min, 58.317 sec
 * total energy  : -3427.4327002 Eh     change    :  -0.1950405E-02 Eh
   gradient norm :     0.0255877 Eh/a0  converged?    E=F G=F D=F
   time step     :     0.5358972 fs     power     :   0.4361849E-07
   step length   :     0.0783307 a0     speed     :   0.3535619E-02

........................................................................
.............................. CYCLE   34 ..............................
........................................................................

 iter      E             dE          RMSdq      gap      omega  full diag
   1  -3478.4136753 -0.347841E+04  0.462E-03   10.98       0.0  T
   2  -3478.4136771 -0.182435E-05  0.277E-03   10.98       1.0  T
   3  -3478.4136772 -0.817463E-07  0.250E-04   10.98       7.0  T
   4  -3478.4136772 -0.308737E-07  0.762E-05   10.98      23.0  T
     SCC iter.                  ...        3 min, 57.730 sec
     gradient                   ...        3 min, 57.980 sec
 * total energy  : -3427.4346762 Eh     change    :  -0.1975962E-02 Eh
   gradient norm :     0.0266125 Eh/a0  converged?    E=F G=F D=F
   time step     :     0.5894869 fs     power     :   0.3997740E-07
   step length   :     0.0928534 a0     speed     :   0.3810121E-02

........................................................................
.............................. CYCLE   35 ..............................
........................................................................

 iter      E             dE          RMSdq      gap      omega  full diag
   1  -3478.4372879 -0.347844E+04  0.520E-03   10.98       0.0  T
   2  -3478.4372883 -0.435532E-06  0.308E-03   10.98       1.0  T
   3  -3478.4372884 -0.115661E-06  0.155E-04   10.98      11.3  T
   4  -3478.4372885 -0.217460E-07  0.860E-05   10.98      20.4  T
     SCC iter.                  ...        3 min, 54.723 sec
     gradient                   ...        3 min, 56.938 sec
 * total energy  : -3427.4368010 Eh     change    :  -0.2124854E-02 Eh
   gradient norm :     0.0263214 Eh/a0  converged?    E=F G=F D=F
   time step     :     0.6484356 fs     power     :   0.3983261E-07
   step length   :     0.1079378 a0     speed     :   0.4026445E-02

........................................................................
.............................. CYCLE   36 ..............................
........................................................................

 iter      E             dE          RMSdq      gap      omega  full diag
   1  -3478.4903055 -0.347849E+04  0.622E-03   10.98       0.0  T
   2  -3478.4903068 -0.131120E-05  0.360E-03   10.98       1.0  T
   3  -3478.4903070 -0.162789E-06  0.247E-04   10.98       7.1  T
   4  -3478.4903070 -0.216610E-07  0.104E-04   10.98      16.9  T
     SCC iter.                  ...        3 min, 52.557 sec
     gradient                   ...        3 min, 57.820 sec
 * total energy  : -3427.4391209 Eh     change    :  -0.2319833E-02 Eh
   gradient norm :     0.0219996 Eh/a0  converged?    E=F G=F D=F
   time step     :     0.7132792 fs     power     :   0.3865538E-07
   step length   :     0.1251085 a0     speed     :   0.4242701E-02

........................................................................
.............................. CYCLE   37 ..............................
........................................................................

 iter      E             dE          RMSdq      gap      omega  full diag
   1  -3478.5610149 -0.347856E+04  0.705E-03   10.99       0.0  T
   2  -3478.5610181 -0.326916E-05  0.404E-03   10.99       1.0  T
   3  -3478.5610183 -0.184711E-06  0.418E-04   10.99       4.2  T
   4  -3478.5610184 -0.330210E-07  0.113E-04   10.99      15.4  T
     SCC iter.                  ...        3 min, 54.298 sec
     gradient                   ...        3 min, 57.386 sec
 * total energy  : -3427.4414139 Eh     change    :  -0.2293040E-02 Eh
   gradient norm :     0.0217285 Eh/a0  converged?    E=F G=F D=F
   time step     :     0.7846071 fs     power     :   0.3301871E-07
   step length   :     0.1451165 a0     speed     :   0.4473832E-02

........................................................................
.............................. CYCLE   38 ..............................
........................................................................

 iter      E             dE          RMSdq      gap      omega  full diag
   1  -3478.6135669 -0.347861E+04  0.662E-03   10.99       0.0  T
   2  -3478.6135678 -0.944699E-06  0.384E-03   10.99       1.0  T
   3  -3478.6135680 -0.158529E-06  0.208E-04   10.99       8.4  T
   4  -3478.6135680 -0.176201E-07  0.925E-05   10.99      18.9  T
     SCC iter.                  ...        3 min, 54.844 sec
     gradient                   ...        3 min, 56.587 sec
 * total energy  : -3427.4437523 Eh     change    :  -0.2338451E-02 Eh
   gradient norm :     0.0241814 Eh/a0  converged?    E=F G=F D=F
   time step     :     0.8630678 fs     power     :   0.3200267E-07
   step length   :     0.1652479 a0     speed     :   0.4631335E-02

........................................................................
.............................. CYCLE   39 ..............................
........................................................................

 iter      E             dE          RMSdq      gap      omega  full diag
   1  -3478.6235027 -0.347862E+04  0.610E-03   10.99       0.0  T
   2  -3478.6235048 -0.213358E-05  0.365E-03   10.99       1.0  T
   3  -3478.6235050 -0.182533E-06  0.241E-04   10.99       7.3  T
   4  -3478.6235050 -0.244204E-07  0.110E-04   10.99      15.9  T
     SCC iter.                  ...        4 min,  2.940 sec
     gradient                   ...        3 min, 58.257 sec
 * total energy  : -3427.4464264 Eh     change    :  -0.2674023E-02 Eh
   gradient norm :     0.0207581 Eh/a0  converged?    E=F G=F D=F
   time step     :     0.9493746 fs     power     :   0.3325151E-07
   step length   :     0.1873674 a0     speed     :   0.4773880E-02

........................................................................
.............................. CYCLE   40 ..............................
........................................................................

 iter      E             dE          RMSdq      gap      omega  full diag
   1  -3478.6088699 -0.347861E+04  0.616E-03   11.00       0.0  T
   2  -3478.6088751 -0.519819E-05  0.371E-03   11.00       1.0  T
   3  -3478.6088754 -0.261462E-06  0.478E-04   11.00       3.7  T
   4  -3478.6088754 -0.529130E-07  0.153E-04   11.00      11.4  T
     SCC iter.                  ...        4 min,  1.547 sec
     gradient                   ...        3 min, 57.067 sec
 * total energy  : -3427.4492495 Eh     change    :  -0.2823141E-02 Eh
   gradient norm :     0.0231250 Eh/a0  converged?    E=F G=F D=F
   time step     :     1.0443120 fs     power     :   0.3104812E-07
   step length   :     0.2143806 a0     speed     :   0.4965584E-02

........................................................................
.............................. CYCLE   41 ..............................
........................................................................

 iter      E             dE          RMSdq      gap      omega  full diag
   1  -3478.6263914 -0.347863E+04  0.692E-03   11.00       0.0  T
   2  -3478.6263922 -0.842475E-06  0.406E-03   11.00       1.0  T
   3  -3478.6263924 -0.251344E-06  0.230E-04   11.00       7.6  T
   4  -3478.6263925 -0.291629E-07  0.135E-04   11.00      13.0  T
     SCC iter.                  ...        3 min, 54.294 sec
     gradient                   ...        3 min, 58.245 sec
 * total energy  : -3427.4525613 Eh     change    :  -0.3311828E-02 Eh
   gradient norm :     0.0210692 Eh/a0  converged?    E=F G=F D=F
   time step     :     1.1487432 fs     power     :   0.3507647E-07
   step length   :     0.2433823 a0     speed     :   0.5124849E-02

........................................................................
.............................. CYCLE   42 ..............................
........................................................................

 iter      E             dE          RMSdq      gap      omega  full diag
   1  -3478.6737188 -0.347867E+04  0.857E-03   11.01       0.0  T
   2  -3478.6737227 -0.396276E-05  0.497E-03   11.01       1.0  T
   3  -3478.6737230 -0.245043E-06  0.406E-04   11.01       4.3  T
   4  -3478.6737230 -0.377859E-07  0.119E-04   11.01      14.7  T
     SCC iter.                  ...        3 min, 51.910 sec
     gradient                   ...        3 min, 57.571 sec
 * total energy  : -3427.4561916 Eh     change    :  -0.3630267E-02 Eh
   gradient norm :     0.0214345 Eh/a0  converged?    E=F G=F D=F
   time step     :     1.2500000 fs     power     :   0.3304594E-07
   step length   :     0.2772780 a0     speed     :   0.5365628E-02
 * RMSD in coord.:     0.0318113 a0     energy gain  -0.3620970E-01 Eh

........................................................................
.............................. CYCLE   43 ..............................
........................................................................

 iter      E             dE          RMSdq      gap      omega  full diag
   1  -3478.6762770 -0.347868E+04  0.139E-03   11.01       0.0  T
   2  -3478.6762770 -0.358991E-07  0.811E-04   11.01       2.2  T
   3  -3478.6762770 -0.926502E-08  0.475E-05   11.01      36.9  T
     SCC iter.                  ...        3 min,  2.936 sec
     gradient                   ...        3 min, 57.136 sec
 * total energy  : -3427.4568862 Eh     change    :  -0.6945724E-03 Eh
   gradient norm :     0.0214017 Eh/a0  converged?    E=F G=F D=F
   time step     :     0.2500000 fs     power     :   0.3625401E-07
   step length   :     0.0537855 a0     speed     :   0.5204040E-02

........................................................................
.............................. CYCLE   44 ..............................
........................................................................

 iter      E             dE          RMSdq      gap      omega  full diag
   1  -3478.6726447 -0.347867E+04  0.133E-03   11.02       0.0  T
   2  -3478.6726449 -0.164512E-06  0.780E-04   11.02       2.2  T
   3  -3478.6726449 -0.109335E-07  0.845E-05   11.02      20.7  T
     SCC iter.                  ...        2 min, 58.884 sec
     gradient                   ...        3 min, 59.177 sec
 * total energy  : -3427.4576278 Eh     change    :  -0.7416553E-03 Eh
   gradient norm :     0.0197936 Eh/a0  converged?    E=F G=F D=F
   time step     :     0.2500000 fs     power     :   0.3856352E-07
   step length   :     0.0526142 a0     speed     :   0.5090706E-02

........................................................................
.............................. CYCLE   45 ..............................
........................................................................

 iter      E             dE          RMSdq      gap      omega  full diag
   1  -3478.6645590 -0.347866E+04  0.146E-03   11.02       0.0  T
   2  -3478.6645594 -0.402199E-06  0.855E-04   11.02       2.0  T
   3  -3478.6645594 -0.142932E-07  0.160E-04   11.02      11.0  T
     SCC iter.                  ...        2 min, 59.894 sec
     gradient                   ...        3 min, 57.429 sec
 * total energy  : -3427.4583841 Eh     change    :  -0.7562646E-03 Eh
   gradient norm :     0.0176482 Eh/a0  converged?    E=F G=F D=F
   time step     :     0.2500000 fs     power     :   0.3881741E-07
   step length   :     0.0520363 a0     speed     :   0.5034794E-02

........................................................................
.............................. CYCLE   46 ..............................
........................................................................

 iter      E             dE          RMSdq      gap      omega  full diag
   1  -3478.6548415 -0.347865E+04  0.159E-03   11.02       0.0  T
   2  -3478.6548420 -0.525499E-06  0.929E-04   11.02       1.9  T
   3  -3478.6548420 -0.166096E-07  0.188E-04   11.02       9.3  T
     SCC iter.                  ...        2 min, 55.998 sec
     gradient                   ...        3 min, 58.731 sec
 * total energy  : -3427.4591216 Eh     change    :  -0.7375267E-03 Eh
   gradient norm :     0.0164815 Eh/a0  converged?    E=F G=F D=F
   time step     :     0.2500000 fs     power     :   0.3749602E-07
   step length   :     0.0519374 a0     speed     :   0.5025222E-02

........................................................................
.............................. CYCLE   47 ..............................
........................................................................

 iter      E             dE          RMSdq      gap      omega  full diag
   1  -3478.6470231 -0.347865E+04  0.161E-03   11.02       0.0  T
   2  -3478.6470235 -0.399044E-06  0.940E-04   11.02       1.9  T
   3  -3478.6470235 -0.155069E-07  0.153E-04   11.02      11.5  T
     SCC iter.                  ...        3 min,  0.646 sec
     gradient                   ...        3 min, 56.967 sec
 * total energy  : -3427.4598318 Eh     change    :  -0.7102131E-03 Eh
   gradient norm :     0.0167196 Eh/a0  converged?    E=F G=F D=F
   time step     :     0.2500000 fs     power     :   0.3624719E-07
   step length   :     0.0519435 a0     speed     :   0.5025814E-02

........................................................................
.............................. CYCLE   48 ..............................
........................................................................

 iter      E             dE          RMSdq      gap      omega  full diag
   1  -3478.6436149 -0.347864E+04  0.171E-03   11.02       0.0  T
   2  -3478.6436151 -0.194565E-06  0.100E-03   11.02       1.7  T
   3  -3478.6436151 -0.145942E-07  0.878E-05   11.02      19.9  T
   4  -3478.6436151 -0.415275E-08  0.314E-05   11.02      55.9  T
     SCC iter.                  ...        3 min, 54.659 sec
     gradient                   ...        3 min, 59.093 sec
 * total energy  : -3427.4606004 Eh     change    :  -0.7685498E-03 Eh
   gradient norm :     0.0171868 Eh/a0  converged?    E=F G=F D=F
   time step     :     0.2750000 fs     power     :   0.3597703E-07
   step length   :     0.0570087 a0     speed     :   0.5014457E-02

........................................................................
.............................. CYCLE   49 ..............................
........................................................................

 iter      E             dE          RMSdq      gap      omega  full diag
   1  -3478.6470751 -0.347865E+04  0.187E-03   11.02       0.0  T
   2  -3478.6470752 -0.643731E-07  0.109E-03   11.02       1.6  T
   3  -3478.6470752 -0.140672E-07  0.590E-05   11.02      29.7  T
   4  -3478.6470752 -0.447062E-08  0.269E-05   11.02      65.1  T
     SCC iter.                  ...        4 min,  1.136 sec
     gradient                   ...        3 min, 57.992 sec
 * total energy  : -3427.4614489 Eh     change    :  -0.8484768E-03 Eh
   gradient norm :     0.0165255 Eh/a0  converged?    E=F G=F D=F
   time step     :     0.3025000 fs     power     :   0.3623506E-07
   step length   :     0.0625467 a0     speed     :   0.5001426E-02

........................................................................
.............................. CYCLE   50 ..............................
........................................................................

 iter      E             dE          RMSdq      gap      omega  full diag
   1  -3478.6581562 -0.347866E+04  0.214E-03   11.03       0.0  T
   2  -3478.6581564 -0.205385E-06  0.125E-03   11.03       1.4  T
   3  -3478.6581565 -0.193013E-07  0.916E-05   11.03      19.1  T
   4  -3478.6581565 -0.460750E-08  0.339E-05   11.03      51.7  T
     SCC iter.                  ...        3 min, 53.192 sec
     gradient                   ...        3 min, 56.925 sec
 * total energy  : -3427.4623742 Eh     change    :  -0.9253066E-03 Eh
   gradient norm :     0.0146137 Eh/a0  converged?    E=F G=F D=F
   time step     :     0.3327500 fs     power     :   0.3553972E-07
   step length   :     0.0690057 a0     speed     :   0.5016283E-02

........................................................................
.............................. CYCLE   51 ..............................
........................................................................

 iter      E             dE          RMSdq      gap      omega  full diag
   1  -3478.6746527 -0.347867E+04  0.242E-03   11.03       0.0  T
   2  -3478.6746532 -0.496888E-06  0.141E-03   11.03       1.2  T
   3  -3478.6746532 -0.262312E-07  0.157E-04   11.03      11.2  T
   4  -3478.6746532 -0.636282E-08  0.436E-05   11.03      40.2  T
     SCC iter.                  ...        3 min, 57.383 sec
     gradient                   ...        3 min, 57.023 sec
 * total energy  : -3427.4633423 Eh     change    :  -0.9681515E-03 Eh
   gradient norm :     0.0133780 Eh/a0  converged?    E=F G=F D=F
   time step     :     0.3660250 fs     power     :   0.3322610E-07
   step length   :     0.0767932 a0     speed     :   0.5074893E-02

........................................................................
.............................. CYCLE   52 ..............................
........................................................................

 iter      E             dE          RMSdq      gap      omega  full diag
   1  -3478.6897498 -0.347869E+04  0.246E-03   11.03       0.0  T
   2  -3478.6897502 -0.413358E-06  0.143E-03   11.03       1.2  T
   3  -3478.6897502 -0.285031E-07  0.136E-04   11.03      12.9  T
   4  -3478.6897502 -0.637465E-08  0.440E-05   11.03      39.8  T
     SCC iter.                  ...        3 min, 54.340 sec
     gradient                   ...        3 min, 56.688 sec
 * total energy  : -3427.4643375 Eh     change    :  -0.9951770E-03 Eh
   gradient norm :     0.0141824 Eh/a0  converged?    E=F G=F D=F
   time step     :     0.4026275 fs     power     :   0.3107893E-07
   step length   :     0.0855340 a0     speed     :   0.5138667E-02

........................................................................
.............................. CYCLE   53 ..............................
........................................................................

 iter      E             dE          RMSdq      gap      omega  full diag
   1  -3478.6956598 -0.347870E+04  0.233E-03   11.03       0.0  T
   2  -3478.6956599 -0.106729E-06  0.137E-03   11.03       1.3  T
   3  -3478.6956599 -0.272430E-07  0.744E-05   11.03      23.6  T
   4  -3478.6956599 -0.531418E-08  0.387E-05   11.03      45.3  T
     SCC iter.                  ...        3 min, 57.218 sec
     gradient                   ...        3 min, 57.607 sec
 * total energy  : -3427.4653986 Eh     change    :  -0.1061124E-02 Eh
   gradient norm :     0.0143639 Eh/a0  converged?    E=F G=F D=F
   time step     :     0.4428903 fs     power     :   0.3055312E-07
   step length   :     0.0944032 a0     speed     :   0.5155917E-02

........................................................................
.............................. CYCLE   54 ..............................
........................................................................

 iter      E             dE          RMSdq      gap      omega  full diag
   1  -3478.6891701 -0.347869E+04  0.238E-03   11.04       0.0  T
   2  -3478.6891705 -0.394103E-06  0.140E-03   11.04       1.3  T
   3  -3478.6891706 -0.339742E-07  0.119E-04   11.04      14.7  T
   4  -3478.6891706 -0.638238E-08  0.467E-05   11.04      37.5  T
     SCC iter.                  ...        3 min, 54.407 sec
     gradient                   ...        3 min, 57.407 sec
 * total energy  : -3427.4665482 Eh     change    :  -0.1149537E-02 Eh
   gradient norm :     0.0127654 Eh/a0  converged?    E=F G=F D=F
   time step     :     0.4871793 fs     power     :   0.2986386E-07
   step length   :     0.1041746 a0     speed     :   0.5172353E-02

........................................................................
.............................. CYCLE   55 ..............................
........................................................................

 iter      E             dE          RMSdq      gap      omega  full diag
   1  -3478.6752032 -0.347868E+04  0.249E-03   11.04       0.0  T
   2  -3478.6752041 -0.926126E-06  0.147E-03   11.04       1.2  T
   3  -3478.6752042 -0.470059E-07  0.223E-04   11.04       7.8  T
   4  -3478.6752042 -0.991486E-08  0.628E-05   11.04      27.9  T
     SCC iter.                  ...        4 min,  3.309 sec
     gradient                   ...        3 min, 58.482 sec
 * total energy  : -3427.4677502 Eh     change    :  -0.1202052E-02 Eh
   gradient norm :     0.0127702 Eh/a0  converged?    E=F G=F D=F
   time step     :     0.5358972 fs     power     :   0.2797483E-07
   step length   :     0.1158272 a0     speed     :   0.5228105E-02

........................................................................
.............................. CYCLE   56 ..............................
........................................................................

 iter      E             dE          RMSdq      gap      omega  full diag
   1  -3478.6685257 -0.347867E+04  0.238E-03   11.04       0.0  T
   2  -3478.6685261 -0.410242E-06  0.141E-03   11.04       1.2  T
   3  -3478.6685262 -0.467512E-07  0.135E-04   11.04      12.9  T
   4  -3478.6685262 -0.865248E-08  0.619E-05   11.04      28.3  T
     SCC iter.                  ...        3 min, 55.401 sec
     gradient                   ...        3 min, 57.274 sec
 * total energy  : -3427.4690279 Eh     change    :  -0.1277670E-02 Eh
   gradient norm :     0.0137253 Eh/a0  converged?    E=F G=F D=F
   time step     :     0.5894869 fs     power     :   0.2755022E-07
   step length   :     0.1282233 a0     speed     :   0.5261479E-02

........................................................................
.............................. CYCLE   57 ..............................
........................................................................

 iter      E             dE          RMSdq      gap      omega  full diag
   1  -3478.6792272 -0.347868E+04  0.271E-03   11.05       0.0  T
   2  -3478.6792275 -0.277423E-06  0.158E-03   11.05       1.1  T
   3  -3478.6792275 -0.377067E-07  0.131E-04   11.05      13.4  T
   4  -3478.6792275 -0.976706E-08  0.545E-05   11.05      32.1  T
     SCC iter.                  ...        3 min, 57.627 sec
     gradient                   ...        3 min, 58.144 sec
 * total energy  : -3427.4704416 Eh     change    :  -0.1413759E-02 Eh
   gradient norm :     0.0122331 Eh/a0  converged?    E=F G=F D=F
   time step     :     0.6484356 fs     power     :   0.2769194E-07
   step length   :     0.1414963 a0     speed     :   0.5278291E-02

........................................................................
.............................. CYCLE   58 ..............................
........................................................................

 iter      E             dE          RMSdq      gap      omega  full diag
   1  -3478.7026830 -0.347870E+04  0.321E-03   11.05       0.0  T
   2  -3478.7026837 -0.751699E-06  0.185E-03   11.05       1.0  T
   3  -3478.7026838 -0.378791E-07  0.212E-04   11.05       8.3  T
   4  -3478.7026838 -0.108680E-07  0.542E-05   11.05      32.3  T
     SCC iter.                  ...        3 min, 54.862 sec
     gradient                   ...        3 min, 58.165 sec
 * total energy  : -3427.4719515 Eh     change    :  -0.1509870E-02 Eh
   gradient norm :     0.0125622 Eh/a0  converged?    E=F G=F D=F
   time step     :     0.7132792 fs     power     :   0.2645728E-07
   step length   :     0.1576259 a0     speed     :   0.5345435E-02

........................................................................
.............................. CYCLE   59 ..............................
........................................................................

 iter      E             dE          RMSdq      gap      omega  full diag
   1  -3478.7176474 -0.347872E+04  0.303E-03   11.06       0.0  T
   2  -3478.7176476 -0.193534E-06  0.179E-03   11.06       1.0  T
   3  -3478.7176477 -0.461005E-07  0.112E-04   11.06      15.6  T
   4  -3478.7176477 -0.838963E-08  0.625E-05   11.06      28.0  T
     SCC iter.                  ...        4 min,  2.550 sec
     gradient                   ...        3 min, 59.214 sec
 * total energy  : -3427.4735982 Eh     change    :  -0.1646716E-02 Eh
   gradient norm :     0.0123995 Eh/a0  converged?    E=F G=F D=F
   time step     :     0.7846071 fs     power     :   0.2677303E-07
   step length   :     0.1749408 a0     speed     :   0.5393294E-02

........................................................................
.............................. CYCLE   60 ..............................
........................................................................

 iter      E             dE          RMSdq      gap      omega  full diag
   1  -3478.7182769 -0.347872E+04  0.322E-03   11.07       0.0  T
   2  -3478.7182782 -0.129894E-05  0.196E-03   11.07       1.0  T
   3  -3478.7182782 -0.661198E-07  0.236E-04   11.07       7.4  T
   4  -3478.7182782 -0.160417E-07  0.810E-05   11.07      21.6  T
     SCC iter.                  ...        3 min, 55.674 sec
     gradient                   ...        3 min, 57.875 sec
 * total energy  : -3427.4753913 Eh     change    :  -0.1793120E-02 Eh
   gradient norm :     0.0111765 Eh/a0  converged?    E=F G=F D=F
   time step     :     0.8630678 fs     power     :   0.2583619E-07
   step length   :     0.1949403 a0     speed     :   0.5463510E-02

........................................................................
.............................. CYCLE   61 ..............................
........................................................................

 iter      E             dE          RMSdq      gap      omega  full diag
   1  -3478.7333161 -0.347873E+04  0.369E-03   11.08       0.0  T
   2  -3478.7333165 -0.420599E-06  0.221E-03   11.08       1.0  T
   3  -3478.7333165 -0.553482E-07  0.126E-04   11.08      13.9  T
   4  -3478.7333166 -0.113650E-07  0.653E-05   11.08      26.8  T
     SCC iter.                  ...        3 min, 58.743 sec
     gradient                   ...        3 min, 58.201 sec
 * total energy  : -3427.4772950 Eh     change    :  -0.1903622E-02 Eh
   gradient norm :     0.0112395 Eh/a0  converged?    E=F G=F D=F
   time step     :     0.9493746 fs     power     :   0.2523506E-07
   step length   :     0.2181578 a0     speed     :   0.5558381E-02

........................................................................
.............................. CYCLE   62 ..............................
........................................................................

 iter      E             dE          RMSdq      gap      omega  full diag
   1  -3478.7760750 -0.347878E+04  0.520E-03   11.09       0.0  T
   2  -3478.7760762 -0.118402E-05  0.300E-03   11.09       1.0  T
   3  -3478.7760763 -0.700506E-07  0.245E-04   11.09       7.2  T
   4  -3478.7760763 -0.143782E-07  0.684E-05   11.09      25.6  T
     SCC iter.                  ...        3 min, 55.716 sec
     gradient                   ...        3 min, 57.021 sec
 * total energy  : -3427.4793036 Eh     change    :  -0.2008603E-02 Eh
   gradient norm :     0.0103184 Eh/a0  converged?    E=F G=F D=F
   time step     :     1.0443120 fs     power     :   0.2339065E-07
   step length   :     0.2439224 a0     speed     :   0.5649845E-02

........................................................................
.............................. CYCLE   63 ..............................
........................................................................

 iter      E             dE          RMSdq      gap      omega  full diag
   1  -3478.7933788 -0.347879E+04  0.496E-03   11.10       0.0  T
   2  -3478.7933794 -0.647997E-06  0.293E-03   11.10       1.0  T
   3  -3478.7933795 -0.608698E-07  0.158E-04   11.10      11.1  T
   4  -3478.7933795 -0.250989E-07  0.665E-05   11.10      26.3  T
     SCC iter.                  ...        3 min, 58.161 sec
     gradient                   ...        3 min, 56.910 sec
 * total energy  : -3427.4813741 Eh     change    :  -0.2070534E-02 Eh
   gradient norm :     0.0092105 Eh/a0  converged?    E=F G=F D=F
   time step     :     1.1487432 fs     power     :   0.2218367E-07
   step length   :     0.2725518 a0     speed     :   0.5739066E-02

........................................................................
.............................. CYCLE   64 ..............................
........................................................................

 iter      E             dE          RMSdq      gap      omega  full diag
   1  -3478.7884680 -0.347879E+04  0.496E-03   11.11       0.0  T
   2  -3478.7884701 -0.201809E-05  0.297E-03   11.11       1.0  T
   3  -3478.7884701 -0.645246E-07  0.255E-04   11.11       6.9  T
   4  -3478.7884702 -0.298232E-07  0.745E-05   11.11      23.5  T
     SCC iter.                  ...        3 min, 57.481 sec
     gradient                   ...        3 min, 57.657 sec
 * total energy  : -3427.4834411 Eh     change    :  -0.2067032E-02 Eh
   gradient norm :     0.0107688 Eh/a0  converged?    E=F G=F D=F
   time step     :     1.2500000 fs     power     :   0.1980329E-07
   step length   :     0.3019972 a0     speed     :   0.5843970E-02

........................................................................
.............................. CYCLE   65 ..............................
........................................................................

 iter      E             dE          RMSdq      gap      omega  full diag
   1  -3478.8278158 -0.347883E+04  0.603E-03   11.12       0.0  T
   2  -3478.8278176 -0.182098E-05  0.349E-03   11.12       1.0  T
   3  -3478.8278177 -0.688601E-07  0.301E-04   11.12       5.8  T
   4  -3478.8278177 -0.275377E-07  0.739E-05   11.12      23.7  T
     SCC iter.                  ...        3 min, 57.203 sec
     gradient                   ...        3 min, 58.155 sec
 * total energy  : -3427.4853728 Eh     change    :  -0.1931643E-02 Eh
   gradient norm :     0.0102301 Eh/a0  converged?    E=F G=F D=F
   time step     :     1.2500000 fs     power     :   0.1816607E-07
   step length   :     0.3020863 a0     speed     :   0.5845695E-02

........................................................................
.............................. CYCLE   66 ..............................
........................................................................

 iter      E             dE          RMSdq      gap      omega  full diag
   1  -3478.8311033 -0.347883E+04  0.446E-03   11.13       0.0  T
   2  -3478.8311045 -0.121361E-05  0.267E-03   11.13       1.0  T
   3  -3478.8311046 -0.674499E-07  0.193E-04   11.13       9.1  T
   4  -3478.8311046 -0.219238E-07  0.797E-05   11.13      22.0  T
     SCC iter.                  ...        3 min, 56.762 sec
     gradient                   ...        3 min, 57.693 sec
 * total energy  : -3427.4872026 Eh     change    :  -0.1829800E-02 Eh
   gradient norm :     0.0086590 Eh/a0  converged?    E=F G=F D=F
   time step     :     1.2500000 fs     power     :   0.1783171E-07
[...]
  3011   6 C     3012   6 C                                       1.5264550
  3012   6 C     3013   6 C                                       1.5264930
  3013   6 C     3014   6 C                                       1.5266702
  3014   6 C     3015   6 C                                       1.5265786
  3015   6 C     3016   6 C                                       1.5239457
  3015   6 C     3017   1 H                                       1.0925561
  3015   6 C     3018   1 H                                       1.0927661
  3014   6 C     3019   1 H                                       1.0930037
  3014   6 C     3020   1 H                                       1.0925551
  3013   6 C     3021   1 H                                       1.0926251
  3013   6 C     3022   1 H                                       1.0931832
  3012   6 C     3023   1 H                                       1.0933383
  3012   6 C     3024   1 H                                       1.0926196
  3011   6 C     3025   1 H                                       1.0920084
  3011   6 C     3026   1 H                                       1.0931718
  3010   6 C     3027   1 H                                       1.0934094
  3010   6 C     3028   1 H                                       1.0926366
  3009   6 C     3029   1 H                                       1.0918918
  3009   6 C     3030   1 H                                       1.0932177
  3008   6 C     3031   1 H                                       1.0933030
  3008   6 C     3032   1 H                                       1.0926680
  3007   6 C     3033   1 H                                       1.0919732
  3007   6 C     3034   1 H                                       1.0932450
  3006   6 C     3035   1 H                                       1.0930772
  3006   6 C     3036   1 H                                       1.0926972
  3005   6 C     3037   1 H                                       1.0921354
  3005   6 C     3038   1 H                                       1.0932575
  3004   6 C     3039   1 H                                       1.0928514
  3004   6 C     3040   1 H                                       1.0926998
  3003   6 C     3041   1 H                                       1.0922913
  3003   6 C     3042   1 H                                       1.0932643
  3002   6 C     3043   1 H                                       1.0926738
  3002   6 C     3044   1 H                                       1.0927519
  3001   6 C     3045   1 H                                       1.0924203
  3001   6 C     3046   1 H                                       1.0932401
  3000   6 C     3047   1 H                                       1.0926404
  3000   6 C     3048   1 H                                       1.0929206
  2999   6 C     3049   1 H                                       1.0925255
  2999   6 C     3050   1 H                                       1.0931200
  2998   6 C     3051   1 H                                       1.0925503
  2998   6 C     3052   1 H                                       1.0932032
  2997   6 C     3053   1 H                                       1.0926281
  2997   6 C     3054   1 H                                       1.0928543
  2996   6 C     3055   1 H                                       1.0918351
  2996   6 C     3056   1 H                                       1.0933013
  2995   6 C     3057   1 H                                       1.0928807
  2995   6 C     3058   1 H                                       1.0926783
  2994   6 C     3059   1 H                                       1.0912228
  2994   6 C     3060   1 H                                       1.0924562
  2993   6 C     3061   1 H                                       1.0935837
  2993   6 C     3062   1 H                                       1.0925263
  2992   6 C     3063   1 H                                       1.0917467
  2992   6 C     3064   1 H                                       1.0929208
  2991   6 C     3065   1 H                                       1.0936419
  2991   6 C     3066   1 H                                       1.0912861
  2990   6 C     3067   1 H                                       1.0937268
  2990   6 C     3068   1 H                                       1.0929790
  2989   6 C     3069   1 H                                       1.0927492
  2989   6 C     3070   1 H                                       1.0916334
  2988   6 C     3071   1 H                                       1.0937270
  2988   6 C     3072   1 H                                       1.0923239
  2987   6 C     3073   1 H                                       1.0929815
  2987   6 C     3074   1 H                                       1.0927492
  2986   6 C     3075   1 H                                       1.0932235
  2986   6 C     3076   1 H                                       1.0921442
  2985   6 C     3077   1 H                                       1.0925272
  2985   6 C     3078   1 H                                       1.0929168
  2984   6 C     3079   1 H                                       1.0928634
  2984   6 C     3080   1 H                                       1.0924883
  2983   6 C     3081   1 H                                       1.0930754
  2983   6 C     3082   1 H                                       1.0929253
  2982   6 C     3083   1 H                                       1.0928183
  2982   6 C     3084   1 H                                       1.0928518
  2981   6 C     3085   1 H                                       1.0919132
  2981   6 C     3086   1 H                                       1.0932879
  2980   6 C     3087   1 H                                       1.0920567
  2980   6 C     3088   1 H                                       1.0918886
  2979   6 C     3089   1 H                                       1.0939957
  2979   6 C     3090   1 H                                       1.0937033
  2978   6 C     3091   1 H                                       1.0909766
  2978   6 C     3092   1 H                                       1.0918911
  2977   6 C     3093   1 H                                       1.0943992
  2977   6 C     3094   1 H                                       1.0933834
  2976   6 C     3095   1 H                                       1.0918851
  2976   6 C     3096   1 H                                       1.0938568
  2975   6 C     3097   1 H                                       1.0924211
  2975   6 C     3098   1 H                                       1.0918662
  2974   6 C     3099   1 H                                       1.0935727
  2974   6 C     3100   1 H                                       1.0933501
  2973   6 C     3101   1 H                                       1.0919265
  2973   6 C     3102   1 H                                       1.0922364
  2972   6 C     3103   1 H                                       1.0936463
  2972   6 C     3104   1 H                                       1.0916570
  2971   6 C     3105   1 H                                       1.0926794
  2971   6 C     3106   1 H                                       1.0935369
  2970   6 C     3107   1 H                                       1.0916501
  2970   6 C     3108   1 H                                       1.0915689
  2969   6 C     3109   1 H                                       1.0924487
  2969   6 C     3110   1 H                                       1.0902808
  2968   6 C     3111   1 H                                       1.0938814
  2968   6 C     3112   1 H                                       1.0934616
  2967   6 C     3113   1 H                                       1.0919124
  2967   6 C     3114   1 H                                       1.0928439
  2966   6 C     3115   1 H                                       1.0931041
  2966   6 C     3116   1 H                                       1.0942857
  2965   6 C     3117   1 H                                       1.0919560
  2965   6 C     3118   1 H                                       1.0924128
  2964   6 C     3119   1 H                                       1.0925885
  2964   6 C     3120   1 H                                       1.0935977
  2963   6 C     3121   1 H                                       1.0918151
  2963   6 C     3122   1 H                                       1.0914723
  2962   6 C     3123   1 H                                       1.0926954
  2962   6 C     3124   1 H                                       1.0929613
  2961   6 C     3125   1 H                                       1.0930743
  2961   6 C     3126   1 H                                       1.0928641
  2960   6 C     3127   1 H                                       1.0934406
  2960   6 C     3128   1 H                                       1.0917645
  2959   6 C     3129   1 H                                       1.0929332
  2959   6 C     3130   1 H                                       1.0916070
  2958   6 C     3131   1 H                                       1.0919172
  2958   6 C     3132   1 H                                       1.0917092
  2957   6 C     3133   1 H                                       1.0935677
  2957   6 C     3134   1 H                                       1.0931088
  2956   6 C     3135   1 H                                       1.0926747
  2956   6 C     3136   1 H                                       1.0924856
  2955   6 C     3137   1 H                                       1.0931476
  2955   6 C     3138   1 H                                       1.0913895
  2954   6 C     3139   1 H                                       1.0927346
  2954   6 C     3140   1 H                                       1.0926955
  2953   6 C     3141   1 H                                       1.0922987
  2953   6 C     3142   1 H                                       1.0935604
  2952   6 C     3143   1 H                                       1.0936799
  2952   6 C     3144   1 H                                       1.0901277
  2951   6 C     3145   1 H                                       1.0915773
  2951   6 C     3146   1 H                                       1.0934046
  2950   6 C     3147   1 H                                       1.0931782
  2950   6 C     3148   1 H                                       1.0926770
  2949   6 C     3149   1 H                                       1.0929171
  2949   6 C     3150   1 H                                       1.0936305
  2948   6 C     3151   1 H                                       1.0936127
  2948   6 C     3152   1 H                                       1.0896343
  2947   6 C     3153   1 H                                       1.0899478
  2947   6 C     3154   1 H                                       1.0941253
  2946   6 C     3155   1 H                                       1.0931830
  2946   6 C     3156   1 H                                       1.0928383
  2945   6 C     3157   1 H                                       1.0917672
  2945   6 C     3158   1 H                                       1.0917126
  2944   6 C     3159   1 H                                       1.0933283
  2944   6 C     3160   1 H                                       1.0938231
  2943   6 C     3161   1 H                                       1.0935581
  2943   6 C     3162   1 H                                       1.0925211
  2942   6 C     3163   1 H                                       1.0917340
  2942   6 C     3164   1 H                                       1.0932064
  2941   6 C     3165   1 H                                       1.0929401
  2941   6 C     3166   1 H                                       1.0920046
  2940   6 C     3167   1 H                                       1.0933581
  2940   6 C     3168   1 H                                       1.0930277
  2939   6 C     3169   1 H                                       1.0938494
  2939   6 C     3170   1 H                                       1.0914095
  2938   6 C     3171   1 H                                       1.0928244
  2938   6 C     3172   1 H                                       1.0924768
  2937   6 C     3173   1 H                                       1.0942252
  2937   6 C     3174   1 H                                       1.0910438
  2936   6 C     3175   1 H                                       1.0925562
  2936   6 C     3176   1 H                                       1.0927876
  2935   6 C     3177   1 H                                       1.0939819
  2935   6 C     3178   1 H                                       1.0926897
  2934   6 C     3179   1 H                                       1.0911278
  2934   6 C     3180   1 H                                       1.0918653
  2933   6 C     3181   1 H                                       1.0928371
  2933   6 C     3182   1 H                                       1.0914072
  2932   6 C     3183   1 H                                       1.0930948
  2932   6 C     3184   1 H                                       1.0926475
  2931   6 C     3185   1 H                                       1.0921114
  2931   6 C     3186   1 H                                       1.0923510
  2930   6 C     3187   1 H                                       1.0919233
  2930   6 C     3188   1 H                                       1.0933158
  2929   6 C     3189   1 H                                       1.0915335
  2929   6 C     3190   1 H                                       1.0917026
  2928   6 C     3191   1 H                                       1.0937378
  2928   6 C     3192   1 H                                       1.0923088
  2927   6 C     3193   1 H                                       1.0923484
  2927   6 C     3194   1 H                                       1.0926895
  2926   6 C     3195   1 H                                       1.0917070
  2926   6 C     3196   1 H                                       1.0917906
  2925   6 C     3197   1 H                                       1.0928428
  2925   6 C     3198   1 H                                       1.0934866
  2924   6 C     3199   1 H                                       1.0925318
  2924   6 C     3200   1 H                                       1.0927772
  2923   6 C     3201   1 H                                       1.0933967
  2923   6 C     3202   1 H                                       1.0930826
  2922   6 C     3203   1 H                                       1.0921455
  2922   6 C     3204   1 H                                       1.0936032
  2921   6 C     3205   1 H                                       1.0932599
  2921   6 C     3206   1 H                                       1.0919885
  2920   6 C     3207   1 H                                       1.0936819
  2920   6 C     3208   1 H                                       1.0912089
  2919   6 C     3209   1 H                                       1.0914057
  2919   6 C     3210   1 H                                       1.0920384
  2918   6 C     3211   1 H                                       1.0925278
  2918   6 C     3212   1 H                                       1.0927648
  2917   6 C     3213   1 H                                       1.0922160
  2917   6 C     3214   1 H                                       1.0942863
  2916   6 C     3215   1 H                                       1.0931891
  2916   6 C     3216   1 H                                       1.0901503
  2915   6 C     3217   1 H                                       1.0933166
  2915   6 C     3218   1 H                                       1.0938350
  2914   6 C     3219   1 H                                       1.0931273
  2914   6 C     3220   1 H                                       1.0933181
  2913   6 C     3221   1 H                                       1.0911906
  2913   6 C     3222   1 H                                       1.0907532
  2912   6 C     3223   1 H                                       1.0933504
  2912   6 C     3224   1 H                                       1.0935760
  2911   6 C     3225   1 H                                       1.0935236
  2911   6 C     3226   1 H                                       1.0922425
  2910   6 C     3227   1 H                                       1.0910615
  2910   6 C     3228   1 H                                       1.0932039
  2909   6 C     3229   1 H                                       1.0928499
  2909   6 C     3230   1 H                                       1.0925879
  2908   6 C     3231   1 H                                       1.0937780
  2908   6 C     3232   1 H                                       1.0930263
  2907   6 C     3233   1 H                                       1.0920211
  2907   6 C     3234   1 H                                       1.0925726
  2906   6 C     3235   1 H                                       1.0931126
  2906   6 C     3236   1 H                                       1.0925506
  2905   6 C     3237   1 H                                       1.0924562
  2905   6 C     3238   1 H                                       1.0906485
  2904   6 C     3239   1 H                                       1.0920307
  2904   6 C     3240   1 H                                       1.0928425
  2903   6 C     3241   1 H                                       1.0934421
  2903   6 C     3242   1 H                                       1.0937273
  2902   6 C     3243   1 H                                       1.0940271
  2902   6 C     3244   1 H                                       1.0916929
  2901   6 C     3245   1 H                                       1.0915341
  2901   6 C     3246   1 H                                       1.0929687
  2900   6 C     3247   1 H                                       1.0933192
  2900   6 C     3248   1 H                                       1.0918796
  2899   6 C     3249   1 H                                       1.0934830
  2899   6 C     3250   1 H                                       1.0931712
  2898   6 C     3251   1 H                                       1.0927534
  2898   6 C     3252   1 H                                       1.0926594
  2897   6 C     3253   1 H                                       1.0881579
  2897   6 C     3254   1 H                                       1.0881363
  2897   6 C     3255   1 H                                       1.0878428
  3016   6 C     3256   1 H                                       1.0878216
  3016   6 C     3257   1 H                                       1.0875754
  3016   6 C     3258   1 H                                       1.0880273

 * 2 distinct bonds (by element types)

   Z      Z             #   av. dist./Å        max./Å        min./Å
   1 H    6 C        2178     1.0925811     1.0948423     1.0860365
   6 C    6 C        1071     1.5272347     1.5361426     1.5225805


optimized geometry written to: xtbopt.xyz


           -------------------------------------------------
          | TOTAL ENERGY            -3427.554502360973 Eh   |
          | GRADIENT NORM               0.000696096247 Eh/α |
          | HOMO-LUMO GAP              11.335829377828 eV   |
           -------------------------------------------------

------------------------------------------------------------------------
 * finished run on 2024/06/20 at 17:40:48.401     
------------------------------------------------------------------------
 total:
 * wall-time:     3 d,  2 h, 22 min,  0.888 sec
 *  cpu-time:    15 d, 20 h, 30 min, 54.280 sec
 * ratio c/w:     5.117 speedup
 SCF:
 * wall-time:     0 d,  0 h,  7 min, 34.922 sec
 *  cpu-time:     0 d,  0 h, 39 min,  7.044 sec
 * ratio c/w:     5.159 speedup
 ANC optimizer:
 * wall-time:     3 d,  2 h, 13 min, 44.244 sec
 *  cpu-time:    15 d, 19 h, 50 min, 49.692 sec
 * ratio c/w:     5.117 speedup

