3864
 energy: -5104.085756999699 gnorm: 0.000917112932 xtb: 6.6.1 (8d0f1dd)
C           57.26773472126818       65.06828901800995       33.55537346832980
C           57.27692674988216       63.76014242965928       34.02590202868635
C           56.10421787757411       63.24288507047596       34.56471614299577
C           54.95322682397540       64.00975505069584       34.62997979134650
C           54.95592789203788       65.30841760550277       34.15288006796628
C           56.11843288276327       65.83572495859491       33.61597136054199
C           58.51928855448551       62.90635636149192       33.92614555151858
C           58.85513734922307       62.65969714381594       32.45235939516876
C           59.68797926695459       63.55090168599200       34.68842294299644
C           60.90219913269685       62.62245074024537       34.87165781369414
C           62.12513171885181       63.43817784668008       35.21104567818819
C           63.20243268459184       63.48184241328185       34.33519595621778
C           64.32778701369469       64.23184032069749       34.62745690284515
C           64.38811889721497       64.96202712689941       35.80137727927112
C           63.31699622266844       64.93432732259500       36.67742251380982
C           62.19778782396707       64.17652185380584       36.38620036343145
C           60.64758357870926       61.55299036049077       35.93957225491639
C           61.70942978773655       60.44269752222898       35.93124048528814
C           61.73007598877690       59.75148891006984       34.59225698226798
C           62.81967978919751       59.88115402609636       33.74135809221327
C           62.82695048946177       59.26601273239545       32.50129605778736
C           61.74726395564216       58.49899092699624       32.09911160643892
C           60.65904061098215       58.35437441312625       32.94381558566847
C           60.65024248595347       58.97893205936742       34.17744321281032
C           61.43970713001263       59.43552566007782       37.06730848325582
C           62.49203976770460       59.47450991892384       38.18299992325849
C           62.56731632930266       60.83659978830655       38.82322634544174
C           63.70551202222730       61.61720944796076       38.66719903677475
C           63.79773743870372       62.86703629005110       39.25301545697960
C           62.74766460925662       63.35791740118869       40.00806187465953
C           61.60611882998523       62.59178163289678       40.16748133311815
C           61.51556701909666       61.34477063553214       39.57749041800069
C           62.17313122481898       58.38229084931469       39.21106144033510
C           63.19478077925670       58.31365335145433       40.35300647131971
C           64.55415901221936       57.88981455724863       39.86223036253344
C           65.65044943617532       58.72806198711447       40.02034252897785
C           66.90799861113670       58.33768005763373       39.59359359944082
C           67.09054548332976       57.09603531998132       39.00893438752239
C           66.00555520604217       56.25158859139528       38.84592833504757
C           64.74874781513068       56.65046091661392       39.26257145514523
C           62.68355092371794       57.35787373484968       41.43654629668836
C           63.54344316253225       57.34451973986803       42.70747208022683
C           63.68598125808883       58.71537454829199       43.31631453941020
C           64.94348434079124       59.18088354521159       43.68261369837162
C           65.09767457039321       60.41533893268934       44.28764461644131
C           63.99181845084227       61.21346713585918       44.52485461180237
C           62.73554013809188       60.76464344370306       44.15647481387136
C           62.58243774165960       59.52300702029385       43.56675002320945
C           62.88909880566887       56.37693018885270       43.70427361695693
C           63.47090077513761       56.38613166109233       45.12110219492433
C           64.83639052226658       55.76132994780050       45.24594002596653
C           65.11858062321301       54.50187599414879       44.73087598184247
C           66.34915482157577       53.90538661183058       44.94900434610097
C           67.31405489640777       54.55312768835821       45.70096309284320
C           67.04667309406848       55.80956314790674       46.21704314211345
C           65.82021018954565       56.40731241177102       45.98649952290587
C           62.49200892672960       55.64329276165250       46.04986965323925
C           61.33135065361785       56.54425691485101       46.50196953938302
C           61.76245599544698       57.36549347742354       47.68930633735112
C           62.05862676647370       56.75551105338281       48.90260603008010
C           62.48708099489581       57.50150369565733       49.98318420534349
C           62.63295378632475       58.87289319626783       49.86958259193403
C           62.34176352780358       59.49246336760726       48.66817033457210
C           61.91161792603091       58.74293965575572       47.58660578865079
C           60.08433387304869       55.70741038842337       46.80798134008572
C           58.84364521361551       56.57011344261928       47.09055307450981
C           57.80598899226042       55.70421626895321       47.75807799394270
C           57.52689209541526       55.86438425033286       49.10905332289011
C           56.61796031216302       55.03835125026556       49.74675248858635
C           55.97492682376573       54.03724929900050       49.04199529185040
C           56.24214014685474       53.87300495137645       47.69424305007520
C           57.15097129854337       54.69784011442790       47.05658787797930
C           58.31627461249031       57.24375766564097       45.80735195015361
C           58.27147389322787       58.77238748543878       45.93324799561607
C           58.17589402049439       59.46056467485026       44.59537827091216
C           57.34102752014248       58.98783524399578       43.58952853815714
C           57.26984345765843       59.63327486324715       42.36788305034230
C           58.01930209718736       60.77404976295992       42.13475761577834
C           58.83899866098442       61.26650153853593       43.13490234696937
C           58.91749803392062       60.61080932597095       44.35112432676266
C           57.08936603914474       59.18179105380482       46.82489810952114
C           57.21392180149896       60.59821361960783       47.40687227195871
C           55.84809980932428       61.04644184871597       47.86559992776183
C           55.20454483422493       60.42783636649921       48.93202243631939
C           53.92897758556744       60.81023171435946       49.30831739152245
C           53.26115789363640       61.79923681349447       48.60561927764611
C           53.88702425173082       62.41325775906594       47.53563670587655
C           55.17363160315442       62.04869401196453       47.17988155497267
C           58.24236677282004       60.63338761187968       48.54354328013063
C           58.49408814409005       62.05404290929909       49.05109944896823
C           59.14916314786059       62.94790760351955       48.02653596290710
C           60.28741924977715       62.56664956100809       47.32647426359350
C           60.90647654631717       63.43931304074056       46.44838473609222
C           60.40405103284326       64.71508950078996       46.25872262452309
C           59.27822318692883       65.10835569232310       46.95930779401029
C           58.65603916943361       64.23162071467888       47.82900507398064
C           59.35814984212713       62.05724502148758       50.32667458712908
C           58.55927516302536       61.68168586688000       51.58924176365159
C           58.48559556171003       60.19245026915271       51.80431297903464
C           57.25505203596431       59.55444547811305       51.90332547434611
C           57.18013710903458       58.18685657254651       52.09956642503124
C           58.33547389024815       57.43429672842877       52.20860526945620
C           59.56707660502691       58.05952759982537       52.11947311250542
C           59.63920268456692       59.42508603429506       51.91969841772079
C           59.11687317901260       62.38940807273510       52.83911230824153
C           58.04616379396895       62.60134911356088       53.92966601797775
C           58.27059278933590       63.94954857290764       54.57109607088559
C           57.32989729184094       64.96018078476736       54.42255340530713
C           57.55932951735680       66.22889607063790       54.92607842277861
C           58.74126907759956       66.50735191127158       55.58765931859431
C           59.68572479116378       65.50643015547969       55.74512639076382
C           59.45448748225441       64.23958863410806       55.24113326658861
C           58.01244929193652       61.46414066663321       54.95946389978906
C           56.67767633909925       61.42965620994349       55.72358690224937
C           55.56104094724588       60.94128398821473       54.83042735143314
C           55.40099375673807       59.58391179111847       54.56880583846738
C           54.33221334452603       59.12725563592616       53.81904943258988
C           53.42395833541681       60.02415968641844       53.28309494625970
C           53.58649953419379       61.37887946043021       53.51062780626025
C           54.64094742643981       61.82840349579350       54.28722804951441
C           56.75077093153635       60.52880362763612       56.96760407377609
C           57.10415870825852       61.24039993641533       58.28211541497226
C           58.58246762294276       61.51812507750999       58.37991921120007
C           59.49947145579964       60.48352871588598       58.53927962169509
C           60.85640710734958       60.73843858714225       58.61105734257585
C           61.32439606751160       62.03813478520891       58.52226141277356
C           60.42308299533802       63.07613891094246       58.36992703995401
C           59.06480329958125       62.81809428299685       58.30041603853639
C           56.60840798625754       60.36520023193652       59.44200332357676
C           56.86016496653745       60.98533119963493       60.81902046888007
C           55.96931211774211       62.18073646381828       61.04641524856414
C           54.58846441880719       62.03867545102299       61.14420298508374
C           53.77982406365771       63.13042060090444       61.40448872099434
C           54.33543681681186       64.38933196483191       61.55717545400790
C           55.70634247650337       64.54640494236949       61.44438683823143
C           56.51428315738085       63.45050229624857       61.19101645495169
C           56.63502812503116       59.93179887881377       61.91119490100560
C           57.00545174222721       60.46968882272810       63.29755296836018
C           58.46609235611061       60.85601898086573       63.32316051930185
C           59.46568271071669       59.92611149813325       63.05862925465640
C           60.79563083569526       60.30351315177933       63.03168059429137
C           61.15251369415377       61.61724517696820       63.28141791046919
C           60.16904879034960       62.54815264595852       63.56497155785168
C           58.83839756091246       62.16841658211685       63.58352913023114
C           56.71381197376162       59.46523781929792       64.42205252926948
C           55.27607140822899       58.91718209889465       64.47447297879485
H           58.29586267970537       61.93952232997810       34.38471713541105
H           60.01598404454253       64.44185387761074       34.14857216452312
H           59.33222492773673       63.87367633724740       35.66901801428300
H           61.09217493434024       62.11457346744576       33.92172328397336
H           60.64002908886774       62.01672431008859       36.92760713954723
H           59.67086180169996       61.09840029132000       35.76870642141295
H           62.68601807424130       60.91086355122241       36.09071184742837
H           60.45738953998633       59.62688012821122       37.50371812269125
H           61.42192456275956       58.42231335943958       36.66119958808341
H           63.46814130299946       59.25607264080656       37.73720507137540
H           62.12330106445139       57.41767181942113       38.70025785631000
H           63.28079607435381       59.31334940297150       40.79340531414712
H           61.66415702091128       57.65086865640462       41.69852500906934
H           62.63276290304769       56.34303863641932       41.03682449788539
H           64.54346569440609       56.97346152108317       42.45798524950681
H           61.83222882095886       56.64485051270793       43.77996388087871
H           62.94451587727141       55.36730888830005       43.29088243043172
H           63.54457817032696       57.42298116972109       45.46572521658608
H           62.09586060528765       54.77968353408902       45.51372847505999
H           63.02453868425640       55.26942970744907       46.92618119149434
H           61.08253657174330       57.22944705589219       45.68578911538493
H           59.14323876974555       57.34325368054139       47.80697755997053
H           58.94938871015667       56.97263180866072       44.96041862825341
H           57.31307163934969       56.87431284092776       45.58821197623001
H           59.20274557044142       59.09699774837730       46.40750161042461
H           56.17172536171294       59.11559606778977       46.23451086270175
H           57.00224563210028       58.47153149233393       47.64899143577136
H           57.54520411015740       61.27496930026399       46.61128575628837
H           57.88649054447563       60.02251079429916       49.37333000836186
H           59.18255598309847       60.19371011265667       48.20773771129314
H           57.52175438936260       62.49755716854308       49.29781921577187
H           60.20573431335104       61.38453073790235       50.18981635975673
H           59.75836621263053       63.06689123701194       50.45375670051750
H           57.53560644940979       62.04681460252426       51.44060254716754
H           59.96224249139698       61.83355629883020       53.24771430216376
H           59.48578867974492       63.37352845408547       52.53849752790946
H           57.06745884297590       62.62709850449468       53.43793728469465
H           58.15273702116251       60.50869840086889       54.44810889299023
H           58.83021082041933       61.59025900461471       55.67157092333504
H           56.43924141832564       62.45164802288216       56.03940606922030
H           55.77019621100373       60.07190216001108       57.11206236527289
H           57.47074057315356       59.72855133494081       56.79301047595222
H           56.56595223200053       62.19416891064898       58.32092145037102
H           55.53770014641461       60.18990186371497       59.31872008026576
H           57.09593888229013       59.38990700163643       59.39323329835182
H           57.90469558203831       61.31353099742011       60.86513236108326
H           55.59076760193732       59.62195853623930       61.89054703587798
H           57.23859671990734       59.05214216034503       61.68961508513507
H           58.16587915482275       65.49388663274785       33.13320635990757
H           56.13066852986233       66.84996752374850       33.24337522158405
H           54.05763441729715       65.90466276408260       34.20775193088650
H           54.04816607662198       63.60046473494294       35.05562245109663
H           56.08590611210266       62.22557179804954       34.93121869233571
H           63.15862109622415       62.92113010064131       33.41165424925366
H           65.15759633880975       64.24849082580901       33.93546980794729
H           65.26369183000322       65.55213391608096       36.02987983172808
H           63.35095163079522       65.50679401058525       37.59279388571176
H           61.37542117828000       64.16433643993611       37.08547242135231
H           63.67294489194479       60.46544184110638       34.05491124077208
H           63.68043292376699       59.38571436930078       31.85030856522521
H           61.75282092091258       58.01621236593521       31.13255621267949
H           59.80970087487884       57.75816601793372       32.64035609238724
H           59.79167428366306       58.86226805523162       34.82256748436821
H           64.53341143933145       61.23890116520658       38.08334237461882
H           64.69332219488808       63.45588983145774       39.12023829790896
H           62.81652780779487       64.33141864806237       40.47118981730392
H           60.78228569509287       62.96811139273140       40.75626229256723
H           60.61693204932951       60.76044482479633       39.71492790243489
H           61.18519848067098       58.56854900343821       39.63688493192174
H           65.51304930313667       59.69509741126024       40.48438596955695
H           67.74916182512270       59.00370171015269       39.72155564739772
H           68.07187475792198       56.78884986469794       38.67917026655266
H           66.13749856311689       55.27747200498141       38.39637484979029
H           63.91004786710189       55.98454791964240       39.11663065410490
H           65.80999008430493       58.56155946307925       43.49732957104749
H           66.08245393172916       60.75458412298309       44.57518786214582
H           64.11196582483812       62.18021314202966       44.99266216172951
H           61.86540847810161       61.38148742069782       44.32596854949868
H           61.58867809914230       59.19163967182539       43.30116110824574
H           64.37257765206516       53.96868263126468       44.15933657286775
H           66.54879676796172       52.92230962107714       44.54627364987751
H           68.26568015692298       54.08027903172056       45.89112482831096
H           67.79459217600240       56.31995501418758       46.80724667153434
H           65.61731664750337       57.38861846316830       46.39312747152885
H           61.97051275073267       55.68356945694205       49.00721351136167
H           62.71753518538710       56.99841620887548       50.91147835042052
H           62.99668895800055       59.45831447377000       50.70062247103358
H           62.47033419675101       60.56136549368733       48.57443926119181
H           61.70859597863885       59.23053038209427       46.64136833496796
H           59.87488538319619       55.05705331579438       45.95642662489824
H           60.27924678132533       55.07329311414424       47.67557402232941
H           58.02941563098945       56.64179733173945       49.66917793986107
H           56.41223290072833       55.17615465295215       50.79709590844123
H           55.26932751741396       53.38757573293320       49.53679866179004
H           55.73693258720301       53.09618764867985       47.13878261236864
H           57.35261356082857       54.55824079641569       46.00430691826362
H           56.74485969793803       58.10359611258422       43.76050660689660
H           56.62589037944866       59.24398397816073       41.59255359706992
H           57.96465116396561       61.27353269938948       41.17797645474432
H           59.42504916884278       62.15957036214305       42.96878376182156
H           59.56390650356774       61.00049591055209       45.12536765171798
H           55.69832264235482       59.63268745516407       49.47074888574709
H           53.45114286072418       60.32409887887209       50.14707315237303
H           52.25334954760372       62.07991640969590       48.87586500531030
H           53.36601391624133       63.17104726387892       46.96812831203640
H           55.66152753068814       62.54515176824309       46.35298423100204
H           60.70394076888820       61.58157469622748       47.47301507837685
H           61.79395837987183       63.12637880003712       45.91757401272455
H           60.88727693346009       65.39818701266822       45.57490729241038
H           58.88518014228514       66.10656720732639       46.83374278125790
H           57.78064977292610       64.55054298374459       48.37772708462619
H           56.34653499198895       60.13532032419482       51.82832077756682
H           56.21368733910508       57.71077414792825       52.16358039011580
H           58.28396146411797       56.36741028344385       52.36491529789657
H           60.47108016565953       57.47402867317000       52.19837552862226
H           60.60474149460345       59.90273711172653       51.84815382309117
H           56.41040883374665       64.75433715017799       53.89389341247501
H           56.82160436244280       67.00697724026767       54.78689660399662
H           58.92975575843371       67.49832009448238       55.97259687854201
H           60.61786268588445       65.72227917366233       56.24622900287996
H           60.20858110096421       63.47414669960973       55.35735994692630
H           56.11629551841835       58.87356100739013       54.95474172698737
H           54.20368732999702       58.06576908606460       53.65696776105224
H           52.59435275985194       59.66525912024870       52.69131497084074
H           52.88176408419625       62.08728250092989       53.10100611375002
H           54.73945841432673       62.88446265827858       54.48949264031426
H           59.14841772881659       59.46433021159288       58.61367415264031
H           61.55633500990655       59.92446263863904       58.74259224451829
H           62.38450999750934       62.23648425741803       58.57218913496534
H           60.78090114583740       64.09297692418428       58.30303611032543
H           58.36939425092481       63.63616187871173       58.17325860845463
H           54.13387171717743       61.06460199752663       61.02310788000865
H           52.71259186703190       62.99711343605365       61.50360455545850
H           53.70111789074026       65.23904569653742       61.76337376420823
H           56.14948101837056       65.52466827514041       61.56488995443534
H           57.58538712227226       63.57709777907835       61.11113201159058
H           58.07449056573689       62.90399694917831       63.79442091062745
H           60.43728157387362       63.57509769052366       63.76695499991366
H           62.19106965047021       61.91247169409665       63.25653292209856
H           61.55830114363804       59.57075236952979       62.81012980078181
H           59.21038580392270       58.89356331037377       62.86815228888585
H           57.97064304485334       62.30756694079263       31.92422965243374
H           59.19544215662520       63.57513311716751       31.97452455563730
H           59.63333425077597       61.90646456115325       32.35067145577723
H           56.41760522203430       61.37499616190826       63.48009890447888
H           57.39066082604561       58.61266300407058       64.32469416434225
H           56.94777020900550       59.95138510293724       65.37166940967879
C           54.21603165491803       60.02594857285693       64.50772445085501
C           55.17260156275341       57.98768042970722       65.66039641397937
C           55.34916384565883       58.44967555325486       66.95940393535018
C           55.32873591495204       57.57576707914213       68.03063879364068
C           55.13854799613414       56.22048483018962       67.82210819848898
C           54.94237994853492       55.75053413759802       66.53678970366110
C           54.95079305442252       56.63047146427816       65.46894468051404
H           55.50820209673208       59.50308996418318       67.13976889776906
H           55.47074762245209       57.95267698379291       69.03321933548942
H           55.14187724424971       55.53571366844910       68.65682066060187
H           54.79176804094924       54.69368553657118       66.36772790547519
H           54.78058093923022       56.25775850258902       64.46782451746320
C           52.80070453663925       59.44460453579466       64.51988526003977
H           54.37139935329304       60.65763614355484       65.38340814459440
H           54.32930112734175       60.64751503755519       63.61824642956066
C           51.72198370799459       60.39738738018282       64.07359013206957
C           50.53411774937425       59.87820436684213       63.56614136689680
C           49.50472745587602       60.70803456436533       63.16305428384349
C           49.64929966434366       62.08365989645528       63.24525674827749
C           50.82812775274086       62.61377362613964       63.73874494108016
C           51.85196153841448       61.77790109440360       64.15598587594249
H           50.42128725943203       58.80493132455579       63.49039840636259
H           48.58696733956401       60.28272274648355       62.78206192177851
H           48.84895211222997       62.73669333798772       62.92858615155816
H           50.95339047179420       63.68595016641935       63.79985748678674
H           52.75809482163953       62.21598399458949       64.54488483265209
H           55.10461635525745       58.32184389317983       63.57025310747894
H           52.77040690344787       58.56856361990760       63.86486350785111
H           52.56244685575655       59.08756799592484       65.52737548596104
C           56.09966842623218       66.24751098543742       37.44984056226114
C           56.51195954440778       65.43060563471977       38.49403793103486
C           56.41711389086014       65.91809896183889       39.79231980976531
C           55.91715362304935       67.18289572916541       40.04341113528422
C           55.50794882758860       67.98758367535065       38.99363113732714
C           55.60259083118291       67.51548668781315       37.69598541376341
C           57.10968275528957       64.07599872045546       38.20673172384991
C           58.59570314138822       64.09781479787966       38.58099621654352
C           56.40463567303066       62.92291864477116       38.93389962322512
C           54.91216076326324       62.77767451419052       38.57163214956187
C           54.55537530809837       61.32232486358689       38.39575933466293
C           54.72002075585208       60.41971045555057       39.44089385901565
C           54.41519546703108       59.08131130591981       39.27156682404677
C           53.93539789594947       58.62221669541750       38.05667797984969
C           53.76474669367077       59.51091304894111       37.00919377680243
C           54.07626396227080       60.84814728566145       37.18144868878569
C           54.02307059878018       63.42683079945945       39.64165499269878
C           52.53704174750345       63.39991867778490       39.27066317721906
C           52.26010818524537       64.17695545509633       38.00786903080011
C           51.55940337795612       63.57811126101591       36.96948896551717
C           51.23662195028972       64.28064615641689       35.82201359927135
C           51.62024491431780       65.60443731826871       35.69650528156883
C           52.32391010008539       66.21271826841281       36.72230576391668
C           52.63651163549884       65.50776942539187       37.87037106381270
C           51.65618881191386       63.94605080561227       40.41693303135282
C           50.97638193764871       62.83626921139973       41.23119746202898
C           51.98484755538582       61.98883199074452       41.96658023510843
C           52.77263274989838       62.52952187102241       42.97742288990359
C           53.68286115825064       61.74634391039554       43.66293499607758
C           53.81215631764713       60.40124531771083       43.36185685489102
C           53.02594707220756       59.84856070779667       42.36674601197659
C           52.12640220052225       60.63890655782598       41.67185758450148
C           49.96742656237613       63.41502637223110       42.23897714785523
C           48.63605576829242       63.86773724030711       41.61211270493956
C           47.95217457598469       64.81480026168873       42.57057623667467
C           47.84776320483392       66.17072066162625       42.28478899265853
C           47.20543559997212       67.03618183245037       43.15330111194629
C           46.66138928843783       66.56140819770006       44.33386511618795
C           46.78834189347355       65.21885845365151       44.64528320128222
C           47.43322739991735       64.35762441078160       43.77712510149836
C           47.74437099797755       62.66175750608345       41.27670133744809
C           46.77969715747459       62.87179834355307       40.09597255392183
C           45.82357007405557       61.70388965541714       40.03532062438160
C           45.88902909772031       60.79781712283117       38.98506125749771
C           45.01788678431728       59.72482043708987       38.91357337048844
C           44.06225605815958       59.53884833886093       39.89690156778759
C           43.98716070350478       60.43346601763183       40.95133081705953
C           44.86306998443286       61.50193170628066       41.02098973184494
C           46.02563816938242       64.20450384431840       40.19075298638442
C           44.99703139912936       64.39150371432771       39.06388824559502
C           45.70861510904970       64.26246465513806       37.73798446792126
C           46.68366350303010       65.17881087531316       37.35914592413909
C           47.36670019001068       65.03706901073529       36.16488831788769
C           47.07985823100663       63.97629295029600       35.32295370386985
C           46.10674014647103       63.06195564837733       35.68437629808794
C           45.42911512872272       63.20538397456070       36.88281766498150
C           44.27657920630688       65.75254987253766       39.15621597765324
C           42.94707874412971       65.73192719640605       39.92907031643166
C           42.13247275157105       66.96975065466479       39.63877134405590
C           42.68862529726255       68.24086902557433       39.71776012483015
C           41.91955892192542       69.36681734331076       39.48514762004125