      -----------------------------------------------------------      
     |                   =====================                   |     
     |                           x T B                           |     
     |                   =====================                   |     
     |                         S. Grimme                         |     
     |          Mulliken Center for Theoretical Chemistry        |     
     |                    University of Bonn                     |     
      -----------------------------------------------------------      

   * xtb version 6.6.1 (8d0f1dd) compiled by 'stahn@M-Bot' on 2023-08-01

   xtb is free software: you can redistribute it and/or modify it under
   the terms of the GNU Lesser General Public License as published by
   the Free Software Foundation, either version 3 of the License, or
   (at your option) any later version.
   
   xtb is distributed in the hope that it will be useful,
   but WITHOUT ANY WARRANTY; without even the implied warranty of
   MERCHANTABILITY or FITNESS FOR A PARTICULAR PURPOSE.  See the
   GNU Lesser General Public License for more details.
   
   Cite this work as:
   * C. Bannwarth, E. Caldeweyher, S. Ehlert, A. Hansen, P. Pracht,
     J. Seibert, S. Spicher, S. Grimme, WIREs Comput. Mol. Sci., 2020, 11,
     e01493. DOI: 10.1002/wcms.1493
   
   for GFN2-xTB:
   * C. Bannwarth, S. Ehlert and S. Grimme., J. Chem. Theory Comput., 2019,
     15, 1652-1671. DOI: 10.1021/acs.jctc.8b01176
   for GFN1-xTB:
   * S. Grimme, C. Bannwarth, P. Shushkov, J. Chem. Theory Comput., 2017,
     13, 1989-2009. DOI: 10.1021/acs.jctc.7b00118
   for GFN0-xTB:
   * P. Pracht, E. Caldeweyher, S. Ehlert, S. Grimme, ChemRxiv, 2019, preprint.
     DOI: 10.26434/chemrxiv.8326202.v1
   for GFN-FF:
   * S. Spicher and S. Grimme, Angew. Chem. Int. Ed., 2020, 59, 15665-15673.
     DOI: 10.1002/anie.202004239
   
   for ALPB and GBSA implicit solvation:
   * S. Ehlert, M. Stahn, S. Spicher, S. Grimme, J. Chem. Theory Comput.,
     2021, 17, 4250-4261. DOI: 10.1021/acs.jctc.1c00471
   
   for DFT-D4:
   * E. Caldeweyher, C. Bannwarth and S. Grimme, J. Chem. Phys., 2017,
     147, 034112. DOI: 10.1063/1.4993215
   * E. Caldeweyher, S. Ehlert, A. Hansen, H. Neugebauer, S. Spicher,
     C. Bannwarth and S. Grimme, J. Chem. Phys., 2019, 150, 154122.
     DOI: 10.1063/1.5090222
   * E. Caldeweyher, J.-M. Mewes, S. Ehlert and S. Grimme, Phys. Chem. Chem. Phys.
     2020, 22, 8499-8512. DOI: 10.1039/D0CP00502A
   
   for sTDA-xTB:
   * S. Grimme and C. Bannwarth, J. Chem. Phys., 2016, 145, 054103.
     DOI: 10.1063/1.4959605
   
   in the mass-spec context:
   * V. Asgeirsson, C. Bauer and S. Grimme, Chem. Sci., 2017, 8, 4879.
     DOI: 10.1039/c7sc00601b
   * J. Koopman and S. Grimme, ACS Omega 2019, 4, 12, 15120-15133.
     DOI: 10.1021/acsomega.9b02011
   
   for metadynamics refer to:
   * S. Grimme, J. Chem. Theory Comput., 2019, 155, 2847-2862
     DOI: 10.1021/acs.jctc.9b00143
   
   for SPH calculations refer to:
   * S. Spicher and S. Grimme, J. Chem. Theory Comput., 2021, 17, 1701-1714
     DOI: 10.1021/acs.jctc.0c01306
   
   with help from (in alphabetical order)
   P. Atkinson, C. Bannwarth, F. Bohle, G. Brandenburg, E. Caldeweyher
   M. Checinski, S. Dohm, S. Ehlert, S. Ehrlich, I. Gerasimov, C. Hölzer
   A. Katbashev, J. Koopman, C. Lavigne, S. Lehtola, F. März, M. Müller,
   F. Musil, H. Neugebauer, J. Pisarek, C. Plett, P. Pracht, F. Pultar,
   J. Seibert, P. Shushkov, S. Spicher, M. Stahn, M. Steiner, T. Strunk,
   J. Stückrath, T. Rose, and J. Unsleber
   
 * started run on 2024/10/04 at 21:07:32.181     

           -------------------------------------------------
          |                Calculation Setup                |
           -------------------------------------------------

          program call               : /home/abt-grimme/AK-bin/xtb input.xyz --input input.inp --opt
          hostname                   : boar050.thch.uni-bonn.de
          coordinate file            : input.xyz
          omp threads                :                     8

   ID    Z sym.   atoms
    1    6 C      1-146, 294-300, 306, 309-314, 323-468, 616-622, 628,
                  631-636, 645-790, 938-944, 950, 953-958, 967-1112,
                  1260-1266, 1272, 1275-1280, 1289-1434, 1582-1588, 1594,
                  1597-1602, 1611-1756, 1904-1910, 1916, 1919-1924,
                  1933-2078, 2226-2232, 2238, 2241-2246, 2255-2400,
                  2548-2554, 2560, 2563-2568, 2577-2722, 2870-2876, 2882,
                  2885-2890, 2899-3044, 3192-3198, 3204, 3207-3212,
                  3221-3366, 3514-3520, 3526, 3529-3534, 3543-3688,
                  3836-3842, 3848, 3851-3856
    2    1 H      147-293, 301-305, 307, 308, 315-322, 469-615, 623-627, 629,
                  630, 637-644, 791-937, 945-949, 951, 952, 959-966,
                  1113-1259, 1267-1271, 1273, 1274, 1281-1288, 1435-1581,
                  1589-1593, 1595, 1596, 1603-1610, 1757-1903, 1911-1915,
                  1917, 1918, 1925-1932, 2079-2225, 2233-2237, 2239, 2240,
                  2247-2254, 2401-2547, 2555-2559, 2561, 2562, 2569-2576,
                  2723-2869, 2877-2881, 2883, 2884, 2891-2898, 3045-3191,
                  3199-3203, 3205, 3206, 3213-3220, 3367-3513, 3521-3525,
                  3527, 3528, 3535-3542, 3689-3835, 3843-3847, 3849, 3850,
                  3857-3864

molecular fragmentation (1/2 indicates fragments):
111111111111111111111111111111111111111111111111111111111111111111111111
111111111111111111111111111111111111111111111111111111111111111111111111
111111111111111111111111111111111111111111111111111111111111111111111111
111111111111111111111111111111111111111111111111111111111111111111111111
111111111111111111111111111111111122222222222222222222222222222222222222
222222222222222222222222222222222222222222222222222222222222222222222222
222222222222222222222222222222222222222222222222222222222222222222222222
222222222222222222222222222222222222222222222222222222222222222222222222
222222222222222222222222222222222222222222222222222222222222222222222222
222222222222222222222222222222222222222222222222222222222222222222222222
222222222222222222222222222222222222222222222222222222222222222222222222
222222222222222222222222222222222222222222222222222222222222222222222222
222222222222222222222222222222222222222222222222222222222222222222222222
222222222222222222222222222222222222222222222222222222222222222222222222
222222222222222222222222222222222222222222222222222222222222222222222222
222222222222222222222222222222222222222222222222222222222222222222222222
222222222222222222222222222222222222222222222222222222222222222222222222
222222222222222222222222222222222222222222222222222222222222222222222222
222222222222222222222222222222222222222222222222222222222222222222222222
222222222222222222222222222222222222222222222222222222222222222222222222
222222222222222222222222222222222222222222222222222222222222222222222222
222222222222222222222222222222222222222222222222222222222222222222222222
222222222222222222222222222222222222222222222222222222222222222222222222
222222222222222222222222222222222222222222222222222222222222222222222222
222222222222222222222222222222222222222222222222222222222222222222222222
222222222222222222222222222222222222222222222222222222222222222222222222
222222222222222222222222222222222222222222222222222222222222222222222222
222222222222222222222222222222222222222222222222222222222222222222222222
222222222222222222222222222222222222222222222222222222222222222222222222
222222222222222222222222222222222222222222222222222222222222222222222222
222222222222222222222222222222222222222222222222222222222222222222222222
222222222222222222222222222222222222222222222222222222222222222222222222
222222222222222222222222222222222222222222222222222222222222222222222222
222222222222222222222222222222222222222222222222222222222222222222222222
222222222222222222222222222222222222222222222222222222222222222222222222
222222222222222222222222222222222222222222222222222222222222222222222222
222222222222222222222222222222222222222222222222222222222222222222222222
222222222222222222222222222222222222222222222222222222222222222222222222
222222222222222222222222222222222222222222222222222222222222222222222222
222222222222222222222222222222222222222222222222222222222222222222222222
222222222222222222222222222222222222222222222222222222222222222222222222
222222222222222222222222222222222222222222222222222222222222222222222222
222222222222222222222222222222222222222222222222222222222222222222222222
222222222222222222222222222222222222222222222222222222222222222222222222
222222222222222222222222222222222222222222222222222222222222222222222222
222222222222222222222222222222222222222222222222222222222222222222222222
222222222222222222222222222222222222222222222222222222222222222222222222
222222222222222222222222222222222222222222222222222222222222222222222222
222222222222222222222222222222222222222222222222222222222222222222222222
222222222222222222222222222222222222222222222222222222222222222222222222
222222222222222222222222222222222222222222222222222222222222222222222222
222222222222222222222222222222222222222222222222222222222222222222222222
222222222222222222222222222222222222222222222222222222222222222222222222
222222222222222222222222222222222222222222222222
# atoms in fragment 1/2:   322  3542
 fragment masses (1/2) :     2085.00    22935.05
CMA distance (Bohr)    :  25.303
constraining FC (au)   :  0.0500

           -------------------------------------------------
          |                 G F N 2 - x T B                 |
           -------------------------------------------------

        Reference                      10.1021/acs.jctc.8b01176
      * Hamiltonian:
        H0-scaling (s, p, d)           1.850000    2.230000    2.230000
        zeta-weighting                 0.500000
      * Dispersion:
        s8                             2.700000
        a1                             0.520000
        a2                             5.000000
        s9                             5.000000
      * Repulsion:
        kExp                           1.500000    1.000000
        rExp                           1.000000
      * Coulomb:
        alpha                          2.000000
        third order                    shell-resolved
        anisotropic                    true
        a3                             3.000000
        a5                             4.000000
        cn-shift                       1.200000
        cn-exp                         4.000000
        max-rad                        5.000000


          ...................................................
          :                      SETUP                      :
          :.................................................:
          :  # basis functions                9624          :
          :  # atomic orbitals                9624          :
          :  # shells                         5784          :
          :  # electrons                      9624          :
          :  max. iterations                   250          :
          :  Hamiltonian                  GFN2-xTB          :
          :  restarted?                      false          :
          :  GBSA solvation                  false          :
          :  PC potential                    false          :
          :  electronic temp.          300.0000000     K    :
          :  accuracy                    1.0000000          :
          :  -> integral cutoff          0.2500000E+02      :
          :  -> integral neglect         0.1000000E-07      :
          :  -> SCF convergence          0.1000000E-05 Eh   :
          :  -> wf. convergence          0.1000000E-03 e    :
          :  Broyden damping             0.4000000          :
          ...................................................

 iter      E             dE          RMSdq      gap      omega  full diag
   1  -5195.7238562 -0.519572E+04  0.368E+00    4.33       0.0  T
   2  -5198.2967730 -0.257292E+01  0.217E+00    4.30       1.0  T
   3  -5198.2238608  0.729122E-01  0.495E-01    4.15       1.0  T
   4  -5198.4279986 -0.204138E+00  0.242E-01    4.03       1.0  T
   5  -5198.5836297 -0.155631E+00  0.465E-02    4.12       1.0  T
   6  -5198.5858073 -0.217755E-02  0.288E-02    4.11       1.0  T
   7  -5198.5870536 -0.124629E-02  0.111E-02    4.12       1.0  T
   8  -5198.5873620 -0.308461E-03  0.290E-03    4.12       1.0  T
   9  -5198.5873792 -0.172063E-04  0.126E-03    4.12       1.3  T
  10  -5198.5873808 -0.157082E-05  0.550E-04    4.12       2.9  T
  11  -5198.5873811 -0.328194E-06  0.288E-04    4.12       5.6  T
  12  -5198.5873813 -0.176678E-06  0.101E-04    4.12      15.9  T

   *** convergence criteria satisfied after 12 iterations ***

         #    Occupation            Energy/Eh            Energy/eV
      -------------------------------------------------------------
         1        2.0000           -0.6513796             -17.7249
       ...           ...                  ...                  ...
      4806        2.0000           -0.3828199             -10.4171
      4807        2.0000           -0.3825286             -10.4091
      4808        2.0000           -0.3820636             -10.3965
      4809        2.0000           -0.3820517             -10.3962
      4810        2.0000           -0.3815850             -10.3835
      4811        2.0000           -0.3811463             -10.3715
      4812        2.0000           -0.3810488             -10.3689 (HOMO)
      4813                         -0.2297246              -6.2511 (LUMO)
      4814                         -0.2291599              -6.2358
      4815                         -0.2285288              -6.2186
      4816                         -0.2276186              -6.1938
      4817                         -0.2273197              -6.1857
       ...                                ...                  ...
      9624                          0.6809160              18.5287
      -------------------------------------------------------------
                  HL-Gap            0.1513242 Eh            4.1177 eV
             Fermi-level           -0.3053867 Eh           -8.3100 eV

 SCC (total)                   0 d,  0 h, 48 min,  4.226 sec
 SCC setup                      ...        0 min,  0.705 sec (  0.024%)
 Dispersion                     ...        0 min,  6.920 sec (  0.240%)
 classical contributions        ...        0 min,  0.163 sec (  0.006%)
 integral evaluation            ...        0 min, 12.487 sec (  0.433%)
 iterations                     ...       42 min, 11.430 sec ( 87.768%)
 molecular gradient             ...        5 min,  5.541 sec ( 10.594%)
 printout                       ...        0 min, 26.979 sec (  0.935%)

         :::::::::::::::::::::::::::::::::::::::::::::::::::::
         ::                     SUMMARY                     ::
         :::::::::::::::::::::::::::::::::::::::::::::::::::::
         :: total energy           -5104.079371088506 Eh    ::
         :: gradient norm              0.024970507784 Eh/a0 ::
         :: HOMO-LUMO gap              4.117740996883 eV    ::
         ::.................................................::
         :: SCC energy             -5198.587381311759 Eh    ::
         :: -> isotropic ES            0.264664376487 Eh    ::
         :: -> anisotropic ES          0.785326560647 Eh    ::
         :: -> anisotropic XC          3.252871878598 Eh    ::
         :: -> dispersion             -6.994628628520 Eh    ::
         :: repulsion energy          93.375198599457 Eh    ::
         :: add. restraining           0.000000000000 Eh    ::
         :: total charge              -0.000000000038 e     ::
         :::::::::::::::::::::::::::::::::::::::::::::::::::::

      ----------------------------------------------------------- 
     |              Fast Inertial Relaxation Engine              |
      ----------------------------------------------------------- 

          ...................................................
          :                      SETUP                      :
          :.................................................:
          :   energy convergence        0.5000000E-05 Eh    :
          :   grad. convergence         0.1000000E-02 Eh/a0 :
          :   optimization log               true           :
          :   writing optlog all                1     steps :
          :   Hessian reset                    20     steps :
          :   time step scaling                 5     steps :
          :   maximium step len.        1.0000000     a0    :
          :   initial time step         0.2500000     fs    :
          :   maximum time step         1.2500000     fs    :
          :   power reset thr           0.0000000     au    :
          :   alpha parameter           0.1000000           :
          :   BFGS update                   false           :
          :   preconditioning               false           :
          ...................................................

........................................................................
.............................. CYCLE    1 ..............................
........................................................................

 iter      E             dE          RMSdq      gap      omega  full diag
   1  -5198.5885120 -0.519859E+04  0.344E-04    4.12       0.0  T
   2  -5198.5885120 -0.179989E-07  0.212E-04    4.12       7.6  T
   3  -5198.5885119  0.360506E-07  0.918E-05    4.12      17.5  T
     SCC iter.                  ...       10 min, 38.142 sec
     gradient                   ...        5 min,  3.908 sec
 * total energy  : -5104.0794419 Eh     change    :  -0.7084051E-04 Eh
   gradient norm :     0.0234567 Eh/a0  converged?    E=F G=F D=F
   time step     :     0.2500000 fs     power     :   0.3640641E-08
   step length   :     0.0029265 a0     speed     :   0.2831537E-03

........................................................................
.............................. CYCLE    2 ..............................
........................................................................

 iter      E             dE          RMSdq      gap      omega  full diag
   1  -5198.5901909 -0.519859E+04  0.505E-04    4.12       0.0  T
   2  -5198.5901909 -0.344726E-07  0.309E-04    4.12       5.2  T
   3  -5198.5901909  0.475602E-07  0.109E-04    4.12      14.7  T
     SCC iter.                  ...       10 min, 39.342 sec
     gradient                   ...        5 min,  3.871 sec
 * total energy  : -5104.0795379 Eh     change    :  -0.9601536E-04 Eh
   gradient norm :     0.0213157 Eh/a0  converged?    E=F G=F D=F
   time step     :     0.2500000 fs     power     :   0.4845003E-08
   step length   :     0.0043002 a0     speed     :   0.4160678E-03

........................................................................
.............................. CYCLE    3 ..............................
........................................................................

 iter      E             dE          RMSdq      gap      omega  full diag
   1  -5198.5924105 -0.519859E+04  0.651E-04    4.12       0.0  T
   2  -5198.5924105 -0.532355E-07  0.398E-04    4.12       4.0  T
   3  -5198.5924104  0.739701E-07  0.132E-04    4.12      12.1  T
     SCC iter.                  ...       10 min, 36.647 sec
     gradient                   ...        5 min,  3.786 sec
 * total energy  : -5104.0796482 Eh     change    :  -0.1102183E-03 Eh
   gradient norm :     0.0187569 Eh/a0  converged?    E=F G=F D=F
   time step     :     0.2500000 fs     power     :   0.5445030E-08
   step length   :     0.0055444 a0     speed     :   0.5364514E-03

........................................................................
.............................. CYCLE    4 ..............................
........................................................................

 iter      E             dE          RMSdq      gap      omega  full diag
   1  -5198.5951655 -0.519860E+04  0.778E-04    4.12       0.0  T
   2  -5198.5951655 -0.708005E-07  0.477E-04    4.12       3.4  T
   3  -5198.5951654  0.114703E-06  0.159E-04    4.12      10.1  T
     SCC iter.                  ...       10 min, 34.974 sec
     gradient                   ...        5 min,  4.564 sec
 * total energy  : -5104.0797610 Eh     change    :  -0.1128539E-03 Eh
   gradient norm :     0.0160559 Eh/a0  converged?    E=F G=F D=F
   time step     :     0.2500000 fs     power     :   0.5440498E-08
   step length   :     0.0066267 a0     speed     :   0.6411665E-03

........................................................................
.............................. CYCLE    5 ..............................
........................................................................

 iter      E             dE          RMSdq      gap      omega  full diag
   1  -5198.5984516 -0.519860E+04  0.882E-04    4.12       0.0  T
   2  -5198.5984517 -0.836553E-07  0.543E-04    4.12       3.0  T
   3  -5198.5984515  0.174722E-06  0.187E-04    4.12       8.6  T
     SCC iter.                  ...       10 min, 37.461 sec
     gradient                   ...        5 min,  7.614 sec
 * total energy  : -5104.0798664 Eh     change    :  -0.1053711E-03 Eh
   gradient norm :     0.0135521 Eh/a0  converged?    E=F G=F D=F
   time step     :     0.2500000 fs     power     :   0.4937758E-08
   step length   :     0.0075211 a0     speed     :   0.7277069E-03

........................................................................
.............................. CYCLE    6 ..............................
........................................................................

 iter      E             dE          RMSdq      gap      omega  full diag
   1  -5198.6026850 -0.519860E+04  0.106E-03    4.12       0.0  T
   2  -5198.6026851 -0.112273E-06  0.661E-04    4.12       2.4  T
   3  -5198.6026847  0.347936E-06  0.253E-04    4.12       6.4  T
     SCC iter.                  ...       10 min, 35.659 sec
     gradient                   ...        5 min,  5.209 sec
 * total energy  : -5104.0799659 Eh     change    :  -0.9949952E-04 Eh
   gradient norm :     0.0114227 Eh/a0  converged?    E=F G=F D=F
   time step     :     0.2750000 fs     power     :   0.4019541E-08
   step length   :     0.0091074 a0     speed     :   0.8010786E-03

........................................................................
.............................. CYCLE    7 ..............................
........................................................................

 iter      E             dE          RMSdq      gap      omega  full diag
   1  -5198.6080090 -0.519861E+04  0.124E-03    4.12       0.0  T
   2  -5198.6080092 -0.137115E-06  0.780E-04    4.12       2.1  T
   3  -5198.6080085  0.629365E-06  0.331E-04    4.12       4.9  T
     SCC iter.                  ...       10 min, 36.134 sec
     gradient                   ...        5 min,  5.721 sec
 * total energy  : -5104.0800507 Eh     change    :  -0.8485429E-04 Eh
   gradient norm :     0.0101098 Eh/a0  converged?    E=F G=F D=F
   time step     :     0.3025000 fs     power     :   0.2876897E-08
   step length   :     0.0106708 a0     speed     :   0.8532690E-03

........................................................................
.............................. CYCLE    8 ..............................
........................................................................

 iter      E             dE          RMSdq      gap      omega  full diag
   1  -5198.6144473 -0.519861E+04  0.140E-03    4.12       0.0  T
   2  -5198.6144475 -0.159898E-06  0.885E-04    4.12       1.8  T
   3  -5198.6144465  0.976478E-06  0.411E-04    4.12       3.9  T
     SCC iter.                  ...       10 min, 37.482 sec
     gradient                   ...        5 min,  5.169 sec
 * total energy  : -5104.0801160 Eh     change    :  -0.6522890E-04 Eh
   gradient norm :     0.0095746 Eh/a0  converged?    E=F G=F D=F
   time step     :     0.3327500 fs     power     :   0.1771346E-08
   step length   :     0.0120521 a0     speed     :   0.8761124E-03

........................................................................
.............................. CYCLE    9 ..............................
........................................................................

 iter      E             dE          RMSdq      gap      omega  full diag
   1  -5198.6217992 -0.519862E+04  0.151E-03    4.12       0.0  T
   2  -5198.6217994 -0.187763E-06  0.962E-04    4.12       1.7  T
   3  -5198.6217982  0.119373E-05  0.466E-04    4.12       3.5  T
   4  -5198.6217996 -0.140747E-05  0.520E-05    4.12      30.9  T
   5  -5198.6217996 -0.710861E-08  0.240E-05    4.12      67.0  T
     SCC iter.                  ...       17 min, 38.606 sec
     gradient                   ...        5 min,  5.459 sec
 * total energy  : -5104.0801625 Eh     change    :  -0.4654631E-04 Eh
   gradient norm :     0.0092865 Eh/a0  converged?    E=F G=F D=F
   time step     :     0.3660250 fs     power     :   0.8463492E-09
   step length   :     0.0131316 a0     speed     :   0.8678025E-03

........................................................................
.............................. CYCLE   10 ..............................
........................................................................

 iter      E             dE          RMSdq      gap      omega  full diag
   1  -5198.6295244 -0.519863E+04  0.157E-03    4.12       0.0  T
   2  -5198.6295246 -0.215794E-06  0.997E-04    4.12       1.6  T
   3  -5198.6295234  0.129154E-05  0.505E-04    4.12       3.2  T
   4  -5198.6295249 -0.156249E-05  0.545E-05    4.12      29.5  T
   5  -5198.6295249 -0.943419E-08  0.234E-05    4.12      68.7  T
     SCC iter.                  ...       17 min, 39.905 sec
     gradient                   ...        5 min,  5.968 sec
 * total energy  : -5104.0801891 Eh     change    :  -0.2659566E-04 Eh
   gradient norm :     0.0090865 Eh/a0  converged?    E=F G=F D=F
   time step     :     0.4026275 fs     power     :   0.1268601E-09
   step length   :     0.0138679 a0     speed     :   0.8331458E-03

........................................................................
.............................. CYCLE   11 ..............................
........................................................................

 iter      E             dE          RMSdq      gap      omega  full diag
   1  -5198.6368601 -0.519864E+04  0.159E-03    4.12       0.0  T
   2  -5198.6368603 -0.222306E-06  0.982E-04    4.12       1.6  T
   3  -5198.6368592  0.110785E-05  0.480E-04    4.12       3.4  T
   4  -5198.6368606 -0.132899E-05  0.590E-05    4.12      27.3  T
   5  -5198.6368606 -0.128512E-07  0.226E-05    4.12      71.2  T
     SCC iter.                  ...       17 min, 39.513 sec
     gradient                   ...        5 min,  5.287 sec
 * total energy  : -5104.0801987 Eh     change    :  -0.9554101E-05 Eh
   gradient norm :     0.0093405 Eh/a0  converged?    E=F G=F D=F
   time step     :     0.4428903 fs     power     :  -0.3924173E-09
   step length   :     0.0142452 a0     speed     :   0.7780168E-03

........................................................................
.............................. CYCLE   12 ..............................
........................................................................
 * reset velocities

 iter      E             dE          RMSdq      gap      omega  full diag
   1  -5198.6367045 -0.519864E+04  0.395E-05    4.12       0.0  T
   2  -5198.6367045 -0.292857E-09  0.301E-05    4.12      53.5  T
   3  -5198.6367045 -0.718501E-10  0.149E-05    4.12     108.0  T
     SCC iter.                  ...       10 min, 35.843 sec
     gradient                   ...        5 min,  6.710 sec
 * total energy  : -5104.0802026 Eh     change    :  -0.3964474E-05 Eh
   gradient norm :     0.0091544 Eh/a0  converged?    E=T G=F D=T
   time step     :     0.2214451 fs     power     :   0.2355648E-09
   step length   :     0.0004295 a0     speed     :   0.4690962E-04

........................................................................
.............................. CYCLE   13 ..............................
........................................................................

 iter      E             dE          RMSdq      gap      omega  full diag
   1  -5198.6363929 -0.519864E+04  0.792E-05    4.12       0.0  T
   2  -5198.6363929 -0.166710E-08  0.567E-05    4.12      28.4  T
   3  -5198.6363929  0.236196E-08  0.250E-05    4.12      64.4  T
     SCC iter.                  ...       10 min, 36.679 sec
     gradient                   ...        5 min,  7.362 sec
 * total energy  : -5104.0802103 Eh     change    :  -0.7624627E-05 Eh
   gradient norm :     0.0087899 Eh/a0  converged?    E=F G=F D=T
   time step     :     0.2214451 fs     power     :   0.4477302E-09
   step length   :     0.0008503 a0     speed     :   0.9288348E-04

........................................................................
.............................. CYCLE   14 ..............................
........................................................................

 iter      E             dE          RMSdq      gap      omega  full diag
   1  -5198.6359277 -0.519864E+04  0.118E-04    4.12       0.0  T
   2  -5198.6359277 -0.322962E-08  0.829E-05    4.12      19.4  T
   3  -5198.6359277  0.568980E-08  0.358E-05    4.12      44.9  T
     SCC iter.                  ...       10 min, 36.728 sec
     gradient                   ...        5 min,  4.669 sec
 * total energy  : -5104.0802209 Eh     change    :  -0.1068605E-04 Eh
   gradient norm :     0.0082620 Eh/a0  converged?    E=F G=F D=F
   time step     :     0.2214451 fs     power     :   0.6202429E-09
   step length   :     0.0012544 a0     speed     :   0.1370168E-03

........................................................................
.............................. CYCLE   15 ..............................
........................................................................

 iter      E             dE          RMSdq      gap      omega  full diag
   1  -5198.6353116 -0.519864E+04  0.154E-04    4.12       0.0  T
   2  -5198.6353116 -0.520140E-08  0.107E-04    4.12      15.0  T
   3  -5198.6353116  0.100235E-07  0.461E-05    4.12      34.9  T
     SCC iter.                  ...       10 min, 37.370 sec
     gradient                   ...        5 min,  5.628 sec
 * total energy  : -5104.0802338 Eh     change    :  -0.1289430E-04 Eh
   gradient norm :     0.0075947 Eh/a0  converged?    E=F G=F D=F
   time step     :     0.2214451 fs     power     :   0.7409279E-09
   step length   :     0.0016338 a0     speed     :   0.1784628E-03

........................................................................
.............................. CYCLE   16 ..............................
........................................................................

 iter      E             dE          RMSdq      gap      omega  full diag
   1  -5198.6345480 -0.519863E+04  0.186E-04    4.12       0.0  T
   2  -5198.6345480 -0.749151E-08  0.129E-04    4.12      12.4  T
   3  -5198.6345480  0.153468E-07  0.555E-05    4.12      29.0  T
     SCC iter.                  ...       10 min, 37.278 sec
     gradient                   ...        5 min,  5.849 sec
 * total energy  : -5104.0802480 Eh     change    :  -0.1417803E-04 Eh
   gradient norm :     0.0068213 Eh/a0  converged?    E=F G=F D=F
   time step     :     0.2214451 fs     power     :   0.8030123E-09
   step length   :     0.0019817 a0     speed     :   0.2164593E-03

........................................................................
.............................. CYCLE   17 ..............................
........................................................................

 iter      E             dE          RMSdq      gap      omega  full diag
   1  -5198.6336404 -0.519863E+04  0.213E-04    4.12       0.0  T
   2  -5198.6336405 -0.937871E-08  0.149E-04    4.12      10.8  T
   3  -5198.6336404  0.209784E-07  0.638E-05    4.12      25.2  T
     SCC iter.                  ...       10 min, 35.795 sec
     gradient                   ...        5 min,  6.190 sec
 * total energy  : -5104.0802625 Eh     change    :  -0.1445797E-04 Eh
   gradient norm :     0.0059856 Eh/a0  converged?    E=F G=F D=F
   time step     :     0.2214451 fs     power     :   0.8059175E-09
   step length   :     0.0022918 a0     speed     :   0.2503422E-03

........................................................................
.............................. CYCLE   18 ..............................
........................................................................

 iter      E             dE          RMSdq      gap      omega  full diag
   1  -5198.6324742 -0.519863E+04  0.260E-04    4.12       0.0  T
   2  -5198.6324742 -0.136342E-07  0.183E-04    4.12       8.8  T
   3  -5198.6324741  0.335294E-07  0.793E-05    4.12      20.3  T
     SCC iter.                  ...       10 min, 36.273 sec
     gradient                   ...        5 min,  6.970 sec
 * total energy  : -5104.0802777 Eh     change    :  -0.1522013E-04 Eh
   gradient norm :     0.0050583 Eh/a0  converged?    E=F G=F D=F
   time step     :     0.2435896 fs     power     :   0.7471862E-09
   step length   :     0.0028449 a0     speed     :   0.2825028E-03

........................................................................
.............................. CYCLE   19 ..............................
........................................................................

 iter      E             dE          RMSdq      gap      omega  full diag
   1  -5198.6309990 -0.519863E+04  0.310E-04    4.12       0.0  T
   2  -5198.6309990 -0.183381E-07  0.218E-04    4.12       7.4  T
   3  -5198.6309990  0.511382E-07  0.955E-05    4.12      16.9  T
     SCC iter.                  ...       10 min, 38.812 sec
     gradient                   ...        5 min,  4.990 sec
 * total energy  : -5104.0802924 Eh     change    :  -0.1466430E-04 Eh
   gradient norm :     0.0041488 Eh/a0  converged?    E=F G=F D=F
   time step     :     0.2679486 fs     power     :   0.6246623E-09
   step length   :     0.0034450 a0     speed     :   0.3109981E-03

........................................................................
.............................. CYCLE   20 ..............................
........................................................................

 iter      E             dE          RMSdq      gap      omega  full diag
   1  -5198.6291680 -0.519863E+04  0.355E-04    4.12       0.0  T
   2  -5198.6291680 -0.220762E-07  0.250E-04    4.12       6.4  T
   3  -5198.6291680  0.742748E-07  0.111E-04    4.12      14.4  T
     SCC iter.                  ...       10 min, 36.958 sec
     gradient                   ...        5 min,  6.988 sec
 * total energy  : -5104.0803051 Eh     change    :  -0.1274216E-04 Eh
   gradient norm :     0.0034794 Eh/a0  converged?    E=F G=F D=F
   time step     :     0.2947435 fs     power     :   0.4534623E-09
   step length   :     0.0040579 a0     speed     :   0.3330191E-03
 * RMSD in coord.:     0.0014006 a0     energy gain  -0.9340100E-03 Eh

........................................................................
.............................. CYCLE   21 ..............................
........................................................................

 iter      E             dE          RMSdq      gap      omega  full diag
   1  -5198.6274992 -0.519863E+04  0.300E-04    4.12       0.0  T
   2  -5198.6274992 -0.130676E-07  0.208E-04    4.12       7.7  T
   3  -5198.6274992  0.551645E-07  0.932E-05    4.12      17.3  T
     SCC iter.                  ...       10 min, 35.892 sec
     gradient                   ...        5 min,  3.916 sec
 * total energy  : -5104.0803129 Eh     change    :  -0.7812207E-05 Eh
   gradient norm :     0.0032941 Eh/a0  converged?    E=F G=F D=F
   time step     :     0.2500000 fs     power     :   0.3222018E-09
   step length   :     0.0035097 a0     speed     :   0.3395871E-03

........................................................................
.............................. CYCLE   22 ..............................
........................................................................

 iter      E             dE          RMSdq      gap      omega  full diag
   1  -5198.6257815 -0.519863E+04  0.284E-04    4.12       0.0  T
   2  -5198.6257815 -0.966520E-08  0.196E-04    4.12       8.2  T
   3  -5198.6257814  0.528571E-07  0.901E-05    4.12      17.9  T
     SCC iter.                  ...       10 min, 38.902 sec
     gradient                   ...        5 min,  6.521 sec
 * total energy  : -5104.0803187 Eh     change    :  -0.5815037E-05 Eh
   gradient norm :     0.0033763 Eh/a0  converged?    E=F G=F D=F
   time step     :     0.2500000 fs     power     :   0.2321588E-09
   step length   :     0.0034754 a0     speed     :   0.3362621E-03

........................................................................
.............................. CYCLE   23 ..............................
........................................................................

 iter      E             dE          RMSdq      gap      omega  full diag
   1  -5198.6240927 -0.519862E+04  0.266E-04    4.12       0.0  T
   2  -5198.6240927 -0.680939E-08  0.179E-04    4.12       9.0  T
   3  -5198.6240927  0.415630E-07  0.803E-05    4.12      20.0  T
     SCC iter.                  ...       10 min, 35.420 sec
     gradient                   ...        5 min,  4.065 sec
 * total energy  : -5104.0803234 Eh     change    :  -0.4674385E-05 Eh
   gradient norm :     0.0035596 Eh/a0  converged?    E=T G=F D=F
   time step     :     0.2500000 fs     power     :   0.1912196E-09
   step length   :     0.0033694 a0     speed     :   0.3260041E-03

........................................................................
.............................. CYCLE   24 ..............................
........................................................................

 iter      E             dE          RMSdq      gap      omega  full diag
   1  -5198.6225016 -0.519862E+04  0.250E-04    4.12       0.0  T
   2  -5198.6225017 -0.426280E-08  0.161E-04    4.12      10.0  T
   3  -5198.6225016  0.238051E-07  0.624E-05    4.12      25.8  T
     SCC iter.                  ...       10 min, 37.314 sec
     gradient                   ...        5 min,  4.527 sec
 * total energy  : -5104.0803278 Eh     change    :  -0.4390857E-05 Eh
   gradient norm :     0.0037192 Eh/a0  converged?    E=T G=F D=F
   time step     :     0.2500000 fs     power     :   0.1916075E-09
   step length   :     0.0032384 a0     speed     :   0.3133294E-03

........................................................................
.............................. CYCLE   25 ..............................
........................................................................

 iter      E             dE          RMSdq      gap      omega  full diag
   1  -5198.6210595 -0.519862E+04  0.239E-04    4.12       0.0  T
   2  -5198.6210595 -0.285127E-08  0.147E-04    4.12      10.9  T
   3  -5198.6210595  0.697855E-08  0.370E-05    4.12      43.5  T
     SCC iter.                  ...       10 min, 37.987 sec
     gradient                   ...        5 min,  5.411 sec
 * total energy  : -5104.0803325 Eh     change    :  -0.4689114E-05 Eh
   gradient norm :     0.0037949 Eh/a0  converged?    E=T G=F D=F
   time step     :     0.2500000 fs     power     :   0.2182470E-09
   step length   :     0.0031200 a0     speed     :   0.3018793E-03

........................................................................
.............................. CYCLE   26 ..............................
........................................................................

 iter      E             dE          RMSdq      gap      omega  full diag
   1  -5198.6196774 -0.519862E+04  0.258E-04    4.12       0.0  T
   2  -5198.6196774 -0.267755E-08  0.153E-04    4.12      10.5  T
   3  -5198.6196774  0.145792E-08  0.245E-05    4.12      65.6  T
     SCC iter.                  ...       10 min, 35.991 sec
     gradient                   ...        5 min,  7.956 sec
 * total energy  : -5104.0803383 Eh     change    :  -0.5845799E-05 Eh
   gradient norm :     0.0037620 Eh/a0  converged?    E=F G=F D=F
   time step     :     0.2750000 fs     power     :   0.2552489E-09
   step length   :     0.0033510 a0     speed     :   0.2947532E-03

........................................................................
.............................. CYCLE   27 ..............................
........................................................................

 iter      E             dE          RMSdq      gap      omega  full diag
   1  -5198.6184195 -0.519862E+04  0.284E-04    4.12       0.0  T
   2  -5198.6184195 -0.303862E-08  0.168E-04    4.12       9.6  T
   3  -5198.6184195  0.369346E-08  0.313E-05    4.12      51.4  T
     SCC iter.                  ...       10 min, 33.606 sec
     gradient                   ...        5 min,  4.978 sec
 * total energy  : -5104.0803455 Eh     change    :  -0.7183624E-05 Eh
   gradient norm :     0.0036061 Eh/a0  converged?    E=F G=F D=F
   time step     :     0.3025000 fs     power     :   0.2899477E-09
   step length   :     0.0036633 a0     speed     :   0.2929307E-03

........................................................................
.............................. CYCLE   28 ..............................
........................................................................

 iter      E             dE          RMSdq      gap      omega  full diag
   1  -5198.6173619 -0.519862E+04  0.322E-04    4.12       0.0  T
   2  -5198.6173619 -0.401724E-08  0.190E-04    4.12       8.5  T
   3  -5198.6173619  0.144591E-07  0.549E-05    4.12      29.3  T
     SCC iter.                  ...       10 min, 36.287 sec
     gradient                   ...        5 min,  7.373 sec
 * total energy  : -5104.0803540 Eh     change    :  -0.8531830E-05 Eh
   gradient norm :     0.0033371 Eh/a0  converged?    E=F G=F D=F
   time step     :     0.3327500 fs     power     :   0.3108189E-09
   step length   :     0.0040744 a0     speed     :   0.2961866E-03

........................................................................
.............................. CYCLE   29 ..............................
........................................................................

 iter      E             dE          RMSdq      gap      omega  full diag
   1  -5198.6165950 -0.519862E+04  0.367E-04    4.12       0.0  T
   2  -5198.6165951 -0.600176E-08  0.220E-04    4.12       7.3  T
   3  -5198.6165950  0.394484E-07  0.874E-05    4.12      18.4  T
     SCC iter.                  ...       10 min, 37.765 sec
     gradient                   ...        5 min,  4.044 sec
 * total energy  : -5104.0803635 Eh     change    :  -0.9494888E-05 Eh
   gradient norm :     0.0029952 Eh/a0  converged?    E=F G=F D=F
   time step     :     0.3660250 fs     power     :   0.3092771E-09
   step length   :     0.0045902 a0     speed     :   0.3033475E-03

........................................................................
.............................. CYCLE   30 ..............................
........................................................................

 iter      E             dE          RMSdq      gap      omega  full diag
   1  -5198.6162193 -0.519862E+04  0.416E-04    4.12       0.0  T
   2  -5198.6162193 -0.845375E-08  0.253E-04    4.12       6.4  T
   3  -5198.6162192  0.708405E-07  0.116E-04    4.12      13.9  T
     SCC iter.                  ...       10 min, 36.338 sec
     gradient                   ...        5 min,  8.440 sec
 * total energy  : -5104.0803734 Eh     change    :  -0.9909434E-05 Eh
   gradient norm :     0.0026622 Eh/a0  converged?    E=F G=F D=F
   time step     :     0.4026275 fs     power     :   0.2830745E-09
   step length   :     0.0052002 a0     speed     :   0.3124162E-03

........................................................................
.............................. CYCLE   31 ..............................
........................................................................

 iter      E             dE          RMSdq      gap      omega  full diag
   1  -5198.6163252 -0.519862E+04  0.460E-04    4.12       0.0  T
   2  -5198.6163252 -0.107284E-07  0.282E-04    4.12       5.7  T
   3  -5198.6163251  0.957816E-07  0.134E-04    4.12      12.0  T
     SCC iter.                  ...       10 min, 35.951 sec
     gradient                   ...        5 min,  5.797 sec
 * total energy  : -5104.0803831 Eh     change    :  -0.9631684E-05 Eh
   gradient norm :     0.0024407 Eh/a0  converged?    E=F G=F D=F
   time step     :     0.4428903 fs     power     :   0.2396704E-09
   step length   :     0.0058737 a0     speed     :   0.3207985E-03

........................................................................
.............................. CYCLE   32 ..............................
........................................................................

 iter      E             dE          RMSdq      gap      omega  full diag
   1  -5198.6169483 -0.519862E+04  0.490E-04    4.12       0.0  T
   2  -5198.6169483 -0.121063E-07  0.300E-04    4.12       5.4  T
   3  -5198.6169482  0.990549E-07  0.135E-04    4.12      11.9  T
     SCC iter.                  ...       10 min, 36.717 sec
     gradient                   ...        5 min,  5.327 sec
 * total energy  : -5104.0803920 Eh     change    :  -0.8933563E-05 Eh
   gradient norm :     0.0023779 Eh/a0  converged?    E=F G=F D=F
   time step     :     0.4871793 fs     power     :   0.1948578E-09
   step length   :     0.0065652 a0     speed     :   0.3259668E-03

........................................................................
.............................. CYCLE   33 ..............................
........................................................................

 iter      E             dE          RMSdq      gap      omega  full diag
   1  -5198.6180217 -0.519862E+04  0.500E-04    4.12       0.0  T
   2  -5198.6180217 -0.126502E-07  0.302E-04    4.12       5.3  T
   3  -5198.6180216  0.662303E-07  0.111E-04    4.12      14.5  T
     SCC iter.                  ...       10 min, 34.961 sec
     gradient                   ...        5 min,  5.761 sec
 * total energy  : -5104.0804005 Eh     change    :  -0.8508947E-05 Eh
   gradient norm :     0.0024332 Eh/a0  converged?    E=F G=F D=F
   time step     :     0.5358972 fs     power     :   0.1643430E-09
   step length   :     0.0072451 a0     speed     :   0.3270239E-03

........................................................................
.............................. CYCLE   34 ..............................
........................................................................

 iter      E             dE          RMSdq      gap      omega  full diag
   1  -5198.6193688 -0.519862E+04  0.488E-04    4.12       0.0  T
   2  -5198.6193688 -0.121609E-07  0.291E-04    4.12       5.5  T
   3  -5198.6193687  0.161672E-07  0.625E-05    4.12      25.7  T
     SCC iter.                  ...       10 min, 38.680 sec
     gradient                   ...        5 min,  3.736 sec
 * total energy  : -5104.0804092 Eh     change    :  -0.8688062E-05 Eh
   gradient norm :     0.0025321 Eh/a0  converged?    E=F G=F D=F
   time step     :     0.5894869 fs     power     :   0.1569201E-09
   step length   :     0.0079369 a0     speed     :   0.3256787E-03

........................................................................
.............................. CYCLE   35 ..............................
........................................................................

 iter      E             dE          RMSdq      gap      omega  full diag
   1  -5198.6207360 -0.519862E+04  0.461E-04    4.12       0.0  T
   2  -5198.6207360 -0.947966E-08  0.279E-04    4.12       5.8  T
   3  -5198.6207359  0.155851E-07  0.583E-05    4.12      27.6  T
     SCC iter.                  ...       10 min, 37.149 sec
     gradient                   ...        5 min,  6.087 sec
 * total energy  : -5104.0804191 Eh     change    :  -0.9884111E-05 Eh
   gradient norm :     0.0025530 Eh/a0  converged?    E=F G=F D=F
   time step     :     0.6484356 fs     power     :   0.1715308E-09
   step length   :     0.0087201 a0     speed     :   0.3252890E-03

........................................................................
.............................. CYCLE   36 ..............................
........................................................................

 iter      E             dE          RMSdq      gap      omega  full diag
   1  -5198.6218351 -0.519862E+04  0.442E-04    4.12       0.0  T
   2  -5198.6218351 -0.745968E-08  0.273E-04    4.12       5.9  T
   3  -5198.6218351  0.268374E-07  0.705E-05    4.12      22.8  T
     SCC iter.                  ...       10 min, 36.594 sec
     gradient                   ...        5 min,  4.393 sec
 * total energy  : -5104.0804311 Eh     change    :  -0.1196443E-04 Eh
   gradient norm :     0.0023940 Eh/a0  converged?    E=F G=F D=F
   time step     :     0.7132792 fs     power     :   0.1901390E-09
   step length   :     0.0097040 a0     speed     :   0.3290835E-03

........................................................................
.............................. CYCLE   37 ..............................
........................................................................

 iter      E             dE          RMSdq      gap      omega  full diag
   1  -5198.6224017 -0.519862E+04  0.439E-04    4.12       0.0  T
   2  -5198.6224017 -0.114833E-07  0.282E-04    4.12       5.7  T
   3  -5198.6224016  0.726850E-07  0.109E-04    4.12      14.8  T
     SCC iter.                  ...       10 min, 38.026 sec
     gradient                   ...        5 min,  4.196 sec
 * total energy  : -5104.0804446 Eh     change    :  -0.1353837E-04 Eh
   gradient norm :     0.0022775 Eh/a0  converged?    E=F G=F D=F
   time step     :     0.7846071 fs     power     :   0.1922648E-09
   step length   :     0.0109501 a0     speed     :   0.3375844E-03

........................................................................
.............................. CYCLE   38 ..............................
........................................................................

 iter      E             dE          RMSdq      gap      omega  full diag
   1  -5198.6222869 -0.519862E+04  0.464E-04    4.12       0.0  T
   2  -5198.6222869 -0.159762E-07  0.293E-04    4.12       5.5  T
   3  -5198.6222869  0.651871E-07  0.107E-04    4.12      15.0  T
     SCC iter.                  ...       10 min, 35.405 sec
     gradient                   ...        5 min,  5.359 sec
 * total energy  : -5104.0804599 Eh     change    :  -0.1527481E-04 Eh
   gradient norm :     0.0024336 Eh/a0  converged?    E=F G=F D=F
   time step     :     0.8630678 fs     power     :   0.2011962E-09
   step length   :     0.0124167 a0     speed     :   0.3479989E-03

........................................................................
.............................. CYCLE   39 ..............................
........................................................................

 iter      E             dE          RMSdq      gap      omega  full diag
   1  -5198.6216703 -0.519862E+04  0.535E-04    4.12       0.0  T
   2  -5198.6216704 -0.150194E-07  0.323E-04    4.12       5.0  T
   3  -5198.6216703  0.280397E-07  0.785E-05    4.12      20.5  T
     SCC iter.                  ...       10 min, 38.028 sec
     gradient                   ...        5 min,  2.561 sec
 * total energy  : -5104.0804792 Eh     change    :  -0.1932137E-04 Eh
   gradient norm :     0.0023952 Eh/a0  converged?    E=F G=F D=F
   time step     :     0.9493746 fs     power     :   0.2425767E-09
   step length   :     0.0141765 a0     speed     :   0.3611980E-03

........................................................................
.............................. CYCLE   40 ..............................
........................................................................

 iter      E             dE          RMSdq      gap      omega  full diag
   1  -5198.6211565 -0.519862E+04  0.627E-04    4.12       0.0  T
   2  -5198.6211565 -0.176915E-07  0.381E-04    4.12       4.2  T
   3  -5198.6211564  0.528953E-07  0.103E-04    4.12      15.7  T
     SCC iter.                  ...       10 min, 34.212 sec
     gradient                   ...        5 min,  5.114 sec
 * total energy  : -5104.0805028 Eh     change    :  -0.2362229E-04 Eh
   gradient norm :     0.0020737 Eh/a0  converged?    E=F G=F D=F
   time step     :     1.0443120 fs     power     :   0.2643478E-09
   step length   :     0.0165106 a0     speed     :   0.3824251E-03

........................................................................
.............................. CYCLE   41 ..............................
........................................................................

 iter      E             dE          RMSdq      gap      omega  full diag
   1  -5198.6216954 -0.519862E+04  0.673E-04    4.12       0.0  T
   2  -5198.6216954 -0.211767E-07  0.415E-04    4.12       3.9  T
   3  -5198.6216954  0.851078E-07  0.126E-04    4.12      12.8  T
     SCC iter.                  ...       10 min, 39.512 sec
     gradient                   ...        5 min,  3.728 sec
 * total energy  : -5104.0805282 Eh     change    :  -0.2537719E-04 Eh
   gradient norm :     0.0021493 Eh/a0  converged?    E=F G=F D=F
   time step     :     1.1487432 fs     power     :   0.2484574E-09
   step length   :     0.0193869 a0     speed     :   0.4082262E-03

........................................................................
.............................. CYCLE   42 ..............................
........................................................................

 iter      E             dE          RMSdq      gap      omega  full diag
   1  -5198.6235754 -0.519862E+04  0.714E-04    4.12       0.0  T
   2  -5198.6235755 -0.153404E-07  0.426E-04    4.12       3.8  T
   3  -5198.6235754  0.173741E-07  0.682E-05    4.12      23.6  T
     SCC iter.                  ...       10 min, 39.605 sec
     gradient                   ...        5 min,  3.582 sec
 * total energy  : -5104.0805579 Eh     change    :  -0.2968473E-04 Eh
   gradient norm :     0.0023100 Eh/a0  converged?    E=F G=F D=F
   time step     :     1.2500000 fs     power     :   0.2864612E-09
   step length   :     0.0222587 a0     speed     :   0.4307302E-03
 * RMSD in coord.:     0.0024861 a0     energy gain  -0.2527767E-03 Eh

........................................................................
.............................. CYCLE   43 ..............................
........................................................................

 iter      E             dE          RMSdq      gap      omega  full diag
   1  -5198.6239328 -0.519862E+04  0.139E-04    4.12       0.0  T
   2  -5198.6239328 -0.663022E-09  0.816E-05    4.12      19.7  T
   3  -5198.6239328  0.304044E-08  0.264E-05    4.12      61.0  T
     SCC iter.                  ...       10 min, 38.328 sec
     gradient                   ...        5 min,  4.373 sec
 * total energy  : -5104.0805640 Eh     change    :  -0.6102130E-05 Eh
   gradient norm :     0.0022713 Eh/a0  converged?    E=F G=F D=F
   time step     :     0.2500000 fs     power     :   0.3210877E-09
   step length   :     0.0043395 a0     speed     :   0.4198672E-03

........................................................................
.............................. CYCLE   44 ..............................
........................................................................

 iter      E             dE          RMSdq      gap      omega  full diag
   1  -5198.6242563 -0.519862E+04  0.146E-04    4.12       0.0  T
   2  -5198.6242563 -0.997716E-09  0.875E-05    4.12      18.4  T
   3  -5198.6242563  0.288310E-08  0.257E-05    4.12      62.7  T
     SCC iter.                  ...       10 min, 39.872 sec
     gradient                   ...        5 min,  6.101 sec
 * total energy  : -5104.0805705 Eh     change    :  -0.6551909E-05 Eh
   gradient norm :     0.0020555 Eh/a0  converged?    E=F G=F D=F
   time step     :     0.2500000 fs     power     :   0.3413393E-09
   step length   :     0.0042770 a0     speed     :   0.4138275E-03

........................................................................
.............................. CYCLE   45 ..............................
........................................................................

 iter      E             dE          RMSdq      gap      omega  full diag
   1  -5198.6245275 -0.519862E+04  0.162E-04    4.12       0.0  T
   2  -5198.6245275 -0.140426E-08  0.982E-05    4.12      16.4  T
   3  -5198.6245275  0.499949E-08  0.324E-05    4.12      49.6  T
     SCC iter.                  ...       10 min, 38.487 sec
     gradient                   ...        5 min,  6.643 sec
 * total energy  : -5104.0805772 Eh     change    :  -0.6658399E-05 Eh
   gradient norm :     0.0017997 Eh/a0  converged?    E=F G=F D=F
   time step     :     0.2500000 fs     power     :   0.3423365E-09
   step length   :     0.0042667 a0     speed     :   0.4128283E-03

........................................................................
.............................. CYCLE   46 ..............................
........................................................................

 iter      E             dE          RMSdq      gap      omega  full diag
   1  -5198.6247385 -0.519862E+04  0.177E-04    4.12       0.0  T
   2  -5198.6247385 -0.181899E-08  0.108E-04    4.12      14.9  T
   3  -5198.6247385  0.649106E-08  0.358E-05    4.12      44.9  T
     SCC iter.                  ...       10 min, 38.188 sec
     gradient                   ...        5 min,  5.867 sec
 * total energy  : -5104.0805836 Eh     change    :  -0.6437003E-05 Eh
   gradient norm :     0.0015794 Eh/a0  converged?    E=F G=F D=F
   time step     :     0.2500000 fs     power     :   0.3253503E-09
   step length   :     0.0042967 a0     speed     :   0.4157311E-03

........................................................................
.............................. CYCLE   47 ..............................
........................................................................

 iter      E             dE          RMSdq      gap      omega  full diag
   1  -5198.6248887 -0.519862E+04  0.183E-04    4.12       0.0  T
   2  -5198.6248887 -0.170803E-08  0.112E-04    4.12      14.3  T
   3  -5198.6248887  0.660202E-08  0.354E-05    4.12      45.5  T
     SCC iter.                  ...       10 min, 39.773 sec
     gradient                   ...        5 min,  4.040 sec
 * total energy  : -5104.0805896 Eh     change    :  -0.6004956E-05 Eh
   gradient norm :     0.0014893 Eh/a0  converged?    E=F G=F D=F
   time step     :     0.2500000 fs     power     :   0.3007425E-09
   step length   :     0.0043445 a0     speed     :   0.4203572E-03

........................................................................
.............................. CYCLE   48 ..............................
........................................................................

 iter      E             dE          RMSdq      gap      omega  full diag
   1  -5198.6249959 -0.519862E+04  0.196E-04    4.12       0.0  T
   2  -5198.6249959 -0.181717E-08  0.120E-04    4.12      13.5  T
   3  -5198.6249959  0.633190E-08  0.342E-05    4.12      47.0  T
     SCC iter.                  ...       10 min, 38.926 sec
     gradient                   ...        5 min,  3.815 sec
 * total energy  : -5104.0805957 Eh     change    :  -0.6102037E-05 Eh
   gradient norm :     0.0015471 Eh/a0  converged?    E=F G=F D=F
   time step     :     0.2750000 fs     power     :   0.2798219E-09
   step length   :     0.0048203 a0     speed     :   0.4239905E-03

........................................................................
.............................. CYCLE   49 ..............................
........................................................................

 iter      E             dE          RMSdq      gap      omega  full diag
   1  -5198.6250679 -0.519863E+04  0.197E-04    4.12       0.0  T
   2  -5198.6250679 -0.132059E-08  0.118E-04    4.12      13.6  T
   3  -5198.6250679  0.371710E-08  0.274E-05    4.12      58.8  T
     SCC iter.                  ...       10 min, 37.422 sec
     gradient                   ...        5 min,  6.333 sec
 * total energy  : -5104.0806022 Eh     change    :  -0.6512149E-05 Eh
   gradient norm :     0.0016798 Eh/a0  converged?    E=F G=F D=F
   time step     :     0.3025000 fs     power     :   0.2737535E-09
   step length   :     0.0053050 a0     speed     :   0.4242004E-03

........................................................................
.............................. CYCLE   50 ..............................
........................................................................

 iter      E             dE          RMSdq      gap      omega  full diag
   1  -5198.6251129 -0.519863E+04  0.189E-04    4.12       0.0  T
   2  -5198.6251129 -0.927685E-09  0.112E-04    4.12      14.3  T
   3  -5198.6251129  0.131513E-08  0.185E-05    4.12      86.8  T
     SCC iter.                  ...       10 min, 36.064 sec
     gradient                   ...        5 min,  7.091 sec
 * total energy  : -5104.0806095 Eh     change    :  -0.7214678E-05 Eh
   gradient norm :     0.0017744 Eh/a0  converged?    E=F G=F D=F
   time step     :     0.3327500 fs     power     :   0.2837241E-09
   step length   :     0.0058107 a0     speed     :   0.4223980E-03

........................................................................
.............................. CYCLE   51 ..............................
........................................................................

 iter      E             dE          RMSdq      gap      omega  full diag
   1  -5198.6251305 -0.519863E+04  0.186E-04    4.12       0.0  T
   2  -5198.6251305 -0.659384E-09  0.110E-04    4.12      14.6  T
   3  -5198.6251305  0.105683E-08  0.166E-05    4.12      96.9  T
     SCC iter.                  ...       10 min, 35.081 sec
     gradient                   ...        5 min,  4.330 sec
 * total energy  : -5104.0806178 Eh     change    :  -0.8385115E-05 Eh
   gradient norm :     0.0017561 Eh/a0  converged?    E=F G=F D=F
   time step     :     0.3660250 fs     power     :   0.3010986E-09
   step length   :     0.0063825 a0     speed     :   0.4217903E-03

........................................................................
.............................. CYCLE   52 ..............................
........................................................................

 iter      E             dE          RMSdq      gap      omega  full diag
   1  -5198.6251040 -0.519863E+04  0.199E-04    4.12       0.0  T
   2  -5198.6251040 -0.994987E-09  0.119E-04    4.12      13.5  T
   3  -5198.6251040  0.338969E-08  0.262E-05    4.12      61.4  T
     SCC iter.                  ...       10 min, 36.225 sec
     gradient                   ...        5 min,  5.575 sec
 * total energy  : -5104.0806275 Eh     change    :  -0.9658896E-05 Eh
   gradient norm :     0.0016201 Eh/a0  converged?    E=F G=F D=F
   time step     :     0.4026275 fs     power     :   0.3129696E-09
   step length   :     0.0070722 a0     speed     :   0.4248792E-03

........................................................................
.............................. CYCLE   53 ..............................
........................................................................

 iter      E             dE          RMSdq      gap      omega  full diag
   1  -5198.6249952 -0.519862E+04  0.227E-04    4.12       0.0  T
   2  -5198.6249952 -0.209093E-08  0.139E-04    4.12      11.6  T
   3  -5198.6249952  0.905857E-08  0.413E-05    4.12      38.9  T
     SCC iter.                  ...       10 min, 35.428 sec
     gradient                   ...        5 min,  7.541 sec
 * total energy  : -5104.0806382 Eh     change    :  -0.1071995E-04 Eh
   gradient norm :     0.0014692 Eh/a0  converged?    E=F G=F D=F
   time step     :     0.4428903 fs     power     :   0.3108490E-09
   step length   :     0.0079210 a0     speed     :   0.4326124E-03

........................................................................
.............................. CYCLE   54 ..............................
........................................................................

 iter      E             dE          RMSdq      gap      omega  full diag
   1  -5198.6247516 -0.519862E+04  0.258E-04    4.12       0.0  T
   2  -5198.6247516 -0.299042E-08  0.159E-04    4.12      10.1  T
   3  -5198.6247515  0.127384E-07  0.483E-05    4.12      33.3  T
     SCC iter.                  ...       10 min, 36.178 sec
     gradient                   ...        5 min,  5.494 sec
 * total energy  : -5104.0806498 Eh     change    :  -0.1153798E-04 Eh
   gradient norm :     0.0014569 Eh/a0  converged?    E=F G=F D=F
   time step     :     0.4871793 fs     power     :   0.3008157E-09
   step length   :     0.0089307 a0     speed     :   0.4434180E-03

........................................................................
.............................. CYCLE   55 ..............................
........................................................................

 iter      E             dE          RMSdq      gap      omega  full diag
   1  -5198.6243530 -0.519862E+04  0.278E-04    4.12       0.0  T
   2  -5198.6243530 -0.255659E-08  0.168E-04    4.12       9.6  T
   3  -5198.6243529  0.908130E-08  0.416E-05    4.12      38.7  T
     SCC iter.                  ...       10 min, 36.408 sec
     gradient                   ...        5 min,  5.483 sec
 * total energy  : -5104.0806623 Eh     change    :  -0.1251404E-04 Eh
   gradient norm :     0.0015486 Eh/a0  converged?    E=F G=F D=F
   time step     :     0.5358972 fs     power     :   0.2995147E-09
   step length   :     0.0100422 a0     speed     :   0.4532764E-03

........................................................................
.............................. CYCLE   56 ..............................
........................................................................

 iter      E             dE          RMSdq      gap      omega  full diag
   1  -5198.6238677 -0.519862E+04  0.291E-04    4.12       0.0  T
   2  -5198.6238677 -0.208001E-08  0.172E-04    4.12       9.4  T
   3  -5198.6238677  0.312502E-08  0.291E-05    4.12      55.3  T
     SCC iter.                  ...       10 min, 38.405 sec
     gradient                   ...        5 min,  5.715 sec
 * total energy  : -5104.0806764 Eh     change    :  -0.1411655E-04 Eh
   gradient norm :     0.0015957 Eh/a0  converged?    E=F G=F D=F
   time step     :     0.5894869 fs     power     :   0.3119050E-09
   step length   :     0.0112532 a0     speed     :   0.4617612E-03

........................................................................
.............................. CYCLE   57 ..............................
........................................................................

 iter      E             dE          RMSdq      gap      omega  full diag
   1  -5198.6234698 -0.519862E+04  0.313E-04    4.12       0.0  T
   2  -5198.6234698 -0.234832E-08  0.186E-04    4.12       8.7  T
   3  -5198.6234697  0.893124E-08  0.415E-05    4.12      38.7  T
     SCC iter.                  ...       10 min, 36.062 sec
     gradient                   ...        5 min,  9.786 sec
 * total energy  : -5104.0806927 Eh     change    :  -0.1632128E-04 Eh
   gradient norm :     0.0015328 Eh/a0  converged?    E=F G=F D=F
   time step     :     0.6484356 fs     power     :   0.3282425E-09
   step length   :     0.0126553 a0     speed     :   0.4720856E-03

........................................................................
.............................. CYCLE   58 ..............................
........................................................................

 iter      E             dE          RMSdq      gap      omega  full diag
   1  -5198.6234175 -0.519862E+04  0.358E-04    4.12       0.0  T
   2  -5198.6234175 -0.343607E-08  0.217E-04    4.12       7.4  T
   3  -5198.6234175  0.242208E-07  0.653E-05    4.12      24.6  T
     SCC iter.                  ...       10 min, 38.187 sec
     gradient                   ...        5 min,  5.969 sec
 * total energy  : -5104.0807112 Eh     change    :  -0.1849151E-04 Eh
   gradient norm :     0.0014158 Eh/a0  converged?    E=F G=F D=F
   time step     :     0.7132792 fs     power     :   0.3349517E-09
   step length   :     0.0143512 a0     speed     :   0.4866800E-03

........................................................................
.............................. CYCLE   59 ..............................
........................................................................

 iter      E             dE          RMSdq      gap      omega  full diag
   1  -5198.6239271 -0.519862E+04  0.404E-04    4.12       0.0  T
   2  -5198.6239271 -0.405362E-08  0.243E-04    4.12       6.6  T
   3  -5198.6239270  0.241425E-07  0.665E-05    4.12      24.2  T
     SCC iter.                  ...       10 min, 39.149 sec
     gradient                   ...        5 min,  4.102 sec
 * total energy  : -5104.0807318 Eh     change    :  -0.2058086E-04 Eh
   gradient norm :     0.0014730 Eh/a0  converged?    E=F G=F D=F
   time step     :     0.7846071 fs     power     :   0.3356661E-09
   step length   :     0.0163822 a0     speed     :   0.5050496E-03

........................................................................
.............................. CYCLE   60 ..............................
........................................................................

 iter      E             dE          RMSdq      gap      omega  full diag
   1  -5198.6248752 -0.519862E+04  0.429E-04    4.12       0.0  T
   2  -5198.6248752 -0.317777E-08  0.253E-04    4.12       6.3  T
   3  -5198.6248752  0.803266E-08  0.427E-05    4.12      37.6  T
     SCC iter.                  ...       10 min, 35.057 sec
     gradient                   ...        5 min,  5.098 sec
 * total energy  : -5104.0807551 Eh     change    :  -0.2332683E-04 Eh
   gradient norm :     0.0015107 Eh/a0  converged?    E=F G=F D=F
   time step     :     0.8630678 fs     power     :   0.3520832E-09
   step length   :     0.0186429 a0     speed     :   0.5224957E-03

........................................................................
.............................. CYCLE   61 ..............................
........................................................................

 iter      E             dE          RMSdq      gap      omega  full diag
   1  -5198.6258059 -0.519863E+04  0.483E-04    4.12       0.0  T
   2  -5198.6258060 -0.511773E-08  0.287E-04    4.12       5.6  T
   3  -5198.6258059  0.286509E-07  0.729E-05    4.12      22.1  T
     SCC iter.                  ...       10 min, 35.461 sec
     gradient                   ...        5 min,  5.040 sec
 * total energy  : -5104.0807820 Eh     change    :  -0.2692711E-04 Eh
   gradient norm :     0.0014016 Eh/a0  converged?    E=F G=F D=F
   time step     :     0.9493746 fs     power     :   0.3677434E-09
   step length   :     0.0212843 a0     speed     :   0.5422968E-03

........................................................................
.............................. CYCLE   62 ..............................
........................................................................

 iter      E             dE          RMSdq      gap      omega  full diag
   1  -5198.6261855 -0.519863E+04  0.549E-04    4.12       0.0  T
   2  -5198.6261855 -0.741602E-08  0.328E-04    4.12       4.9  T
   3  -5198.6261855  0.300461E-07  0.751E-05    4.12      21.4  T
     SCC iter.                  ...       10 min, 36.822 sec
     gradient                   ...        5 min,  5.919 sec
 * total energy  : -5104.0808124 Eh     change    :  -0.3035557E-04 Eh
   gradient norm :     0.0014426 Eh/a0  converged?    E=F G=F D=F
   time step     :     1.0443120 fs     power     :   0.3727398E-09
   step length   :     0.0244912 a0     speed     :   0.5672762E-03

........................................................................
.............................. CYCLE   63 ..............................
........................................................................

 iter      E             dE          RMSdq      gap      omega  full diag
   1  -5198.6259295 -0.519863E+04  0.593E-04    4.12       0.0  T
   2  -5198.6259295 -0.675936E-08  0.351E-04    4.12       4.6  T
   3  -5198.6259295  0.276150E-07  0.763E-05    4.12      21.1  T
     SCC iter.                  ...       10 min, 33.721 sec
     gradient                   ...        5 min,  5.387 sec
 * total energy  : -5104.0808472 Eh     change    :  -0.3478674E-04 Eh
   gradient norm :     0.0014540 Eh/a0  converged?    E=F G=F D=F
   time step     :     1.1487432 fs     power     :   0.3953493E-09
   step length   :     0.0281221 a0     speed     :   0.5921604E-03

........................................................................
.............................. CYCLE   64 ..............................
........................................................................

 iter      E             dE          RMSdq      gap      omega  full diag
   1  -5198.6255156 -0.519863E+04  0.682E-04    4.12       0.0  T
   2  -5198.6255156 -0.103646E-07  0.409E-04    4.12       3.9  T
   3  -5198.6255156  0.708633E-07  0.111E-04    4.12      14.4  T
     SCC iter.                  ...       10 min, 33.681 sec
     gradient                   ...        5 min,  3.707 sec
 * total energy  : -5104.0808869 Eh     change    :  -0.3975513E-04 Eh
   gradient norm :     0.0013503 Eh/a0  converged?    E=F G=F D=F
   time step     :     1.2500000 fs     power     :   0.4095886E-09
   step length   :     0.0320641 a0     speed     :   0.6204740E-03

........................................................................
.............................. CYCLE   65 ..............................
........................................................................

 iter      E             dE          RMSdq      gap      omega  full diag
   1  -5198.6257426 -0.519863E+04  0.706E-04    4.12       0.0  T
   2  -5198.6257426 -0.109430E-07  0.420E-04    4.12       3.8  T
   3  -5198.6257426  0.421678E-07  0.949E-05    4.12      17.0  T
     SCC iter.                  ...       10 min, 34.575 sec
     gradient                   ...        5 min,  4.880 sec
 * total energy  : -5104.0809274 Eh     change    :  -0.4048515E-04 Eh
   gradient norm :     0.0014713 Eh/a0  converged?    E=F G=F D=F
   time step     :     1.2500000 fs     power     :   0.4202342E-09
   step length   :     0.0335999 a0     speed     :   0.6501935E-03

........................................................................
.............................. CYCLE   66 ..............................
........................................................................

 iter      E             dE          RMSdq      gap      omega  full diag
   1  -5198.6263789 -0.519863E+04  0.745E-04    4.12       0.0  T
   2  -5198.6263789 -0.111841E-07  0.443E-04    4.12       3.6  T
   3  -5198.6263788  0.867885E-07  0.125E-04    4.12      12.8  T
     SCC iter.                  ...       10 min, 38.857 sec
     gradient                   ...        5 min,  4.577 sec
 * total energy  : -5104.0809696 Eh     change    :  -0.4219579E-04 Eh
   gradient norm :     0.0014202 Eh/a0  converged?    E=F G=F D=F
   time step     :     1.2500000 fs     power     :   0.4381802E-09
   step length   :     0.0348939 a0     speed     :   0.6752335E-03

........................................................................
.............................. CYCLE   67 ..............................
........................................................................

 iter      E             dE          RMSdq      gap      omega  full diag
   1  -5198.6266592 -0.519863E+04  0.761E-04    4.12       0.0  T
   2  -5198.6266592 -0.186837E-07  0.450E-04    4.12       3.6  T
   3  -5198.6266591  0.563195E-07  0.121E-04    4.12      13.3  T
     SCC iter.                  ...       10 min, 36.679 sec
     gradient                   ...        5 min,  5.359 sec
 * total energy  : -5104.0810125 Eh     change    :  -0.4289796E-04 Eh
   gradient norm :     0.0016340 Eh/a0  converged?    E=F G=F D=F
   time step     :     1.2500000 fs     power     :   0.4342047E-09
   step length   :     0.0362493 a0     speed     :   0.7014634E-03
 * RMSD in coord.:     0.0057401 a0     energy gain  -0.4546397E-03 Eh

........................................................................
.............................. CYCLE   68 ..............................
........................................................................

 iter      E             dE          RMSdq      gap      omega  full diag
   1  -5198.6267184 -0.519863E+04  0.148E-04    4.12       0.0  T
   2  -5198.6267184 -0.577529E-09  0.871E-05    4.12      18.5  T
   3  -5198.6267184  0.280215E-08  0.253E-05    4.12      63.5  T
     SCC iter.                  ...       10 min, 34.075 sec
     gradient                   ...        5 min,  5.480 sec
 * total energy  : -5104.0810212 Eh     change    :  -0.8728080E-05 Eh
   gradient norm :     0.0015049 Eh/a0  converged?    E=F G=F D=F
   time step     :     0.2500000 fs     power     :   0.4569379E-09
   step length   :     0.0071164 a0     speed     :   0.6885540E-03

........................................................................
.............................. CYCLE   69 ..............................
........................................................................

 iter      E             dE          RMSdq      gap      omega  full diag
   1  -5198.6267863 -0.519863E+04  0.161E-04    4.12       0.0  T
   2  -5198.6267863 -0.236923E-08  0.950E-05    4.12      16.9  T
   3  -5198.6267863  0.255295E-08  0.353E-05    4.12      45.5  T
     SCC iter.                  ...       10 min, 35.516 sec
     gradient                   ...        5 min,  6.730 sec
 * total energy  : -5104.0810300 Eh     change    :  -0.8771289E-05 Eh
   gradient norm :     0.0013044 Eh/a0  converged?    E=F G=F D=F
   time step     :     0.2500000 fs     power     :   0.4523320E-09
   step length   :     0.0070638 a0     speed     :   0.6834579E-03

........................................................................
.............................. CYCLE   70 ..............................
........................................................................

 iter      E             dE          RMSdq      gap      omega  full diag
   1  -5198.6268552 -0.519863E+04  0.163E-04    4.12       0.0  T
   2  -5198.6268552 -0.195632E-08  0.971E-05    4.12      16.6  T
   3  -5198.6268552  0.302589E-08  0.335E-05    4.12      48.0  T
     SCC iter.                  ...       10 min, 35.387 sec
     gradient                   ...        5 min,  4.734 sec
 * total energy  : -5104.0810385 Eh     change    :  -0.8514504E-05 Eh
   gradient norm :     0.0013687 Eh/a0  converged?    E=F G=F D=F
   time step     :     0.2500000 fs     power     :   0.4375167E-09
   step length   :     0.0070877 a0     speed     :   0.6857700E-03

........................................................................
[...]
  3608   6 C     3615   6 C                                       1.5387233
  3617   6 C     3618   6 C                                       1.3884333
  3618   6 C     3619   6 C                                       1.3841952
  3619   6 C     3620   6 C                                       1.3824572
  3620   6 C     3621   6 C                                       1.3847269
  3617   6 C     3622   6 C                                       1.3918841
  3621   6 C     3622   6 C                                       1.3829759
  3616   6 C     3623   6 C                                       1.5382136
  3623   6 C     3624   6 C                                       1.5399158
  3625   6 C     3626   6 C                                       1.3881902
  3626   6 C     3627   6 C                                       1.3850087
  3627   6 C     3628   6 C                                       1.3836515
  3628   6 C     3629   6 C                                       1.3852556
  3625   6 C     3630   6 C                                       1.3913437
  3629   6 C     3630   6 C                                       1.3826494
  3633   6 C     3634   6 C                                       1.3915226
  3634   6 C     3635   6 C                                       1.3827168
  3635   6 C     3636   6 C                                       1.3850502
  3636   6 C     3637   6 C                                       1.3837618
  3633   6 C     3638   6 C                                       1.3888028
  3637   6 C     3638   6 C                                       1.3847044
  3632   6 C     3639   6 C                                       1.5337597
  3639   6 C     3640   6 C                                       1.5382682
  3641   6 C     3642   6 C                                       1.3917727
  3642   6 C     3643   6 C                                       1.3823544
  3643   6 C     3644   6 C                                       1.3861984
  3644   6 C     3645   6 C                                       1.3823263
  3641   6 C     3646   6 C                                       1.3870581
  3645   6 C     3646   6 C                                       1.3832708
  3640   6 C     3647   6 C                                       1.5351569
  3647   6 C     3648   6 C                                       1.5407633
  3649   6 C     3650   6 C                                       1.3905846
  3650   6 C     3651   6 C                                       1.3851964
  3651   6 C     3652   6 C                                       1.3832002
  3652   6 C     3653   6 C                                       1.3844137
  3649   6 C     3654   6 C                                       1.3925151
  3653   6 C     3654   6 C                                       1.3824334
  3648   6 C     3655   6 C                                       1.5353742
  3655   6 C     3656   6 C                                       1.5391069
  3657   6 C     3658   6 C                                       1.3886890
  3658   6 C     3659   6 C                                       1.3831142
  3659   6 C     3660   6 C                                       1.3828500
  3660   6 C     3661   6 C                                       1.3844560
  3657   6 C     3662   6 C                                       1.3900934
  3661   6 C     3662   6 C                                       1.3837027
  3656   6 C     3663   6 C                                       1.5332274
  3663   6 C     3664   6 C                                       1.5339483
  3665   6 C     3666   6 C                                       1.3906579
  3666   6 C     3667   6 C                                       1.3841864
  3667   6 C     3668   6 C                                       1.3843927
  3668   6 C     3669   6 C                                       1.3843420
  3665   6 C     3670   6 C                                       1.3901839
  3669   6 C     3670   6 C                                       1.3840809
  3664   6 C     3671   6 C                                       1.5408274 (max)
  3671   6 C     3672   6 C                                       1.5396540
  3673   6 C     3674   6 C                                       1.3895895
  3674   6 C     3675   6 C                                       1.3841427
  3675   6 C     3676   6 C                                       1.3848077
  3676   6 C     3677   6 C                                       1.3844202
  3673   6 C     3678   6 C                                       1.3903680
  3677   6 C     3678   6 C                                       1.3831436
  3672   6 C     3679   6 C                                       1.5312032
  3679   6 C     3680   6 C                                       1.5364311
  3681   6 C     3682   6 C                                       1.3904413
  3682   6 C     3683   6 C                                       1.3831171
  3683   6 C     3684   6 C                                       1.3847947
  3684   6 C     3685   6 C                                       1.3848110
  3681   6 C     3686   6 C                                       1.3894170
  3685   6 C     3686   6 C                                       1.3838442
  3680   6 C     3687   6 C                                       1.5358634
  3687   6 C     3688   6 C                                       1.5341254
  3549   6 C     3689   1 H                                       1.0956298
  3551   6 C     3690   1 H                                       1.0923930
  3551   6 C     3691   1 H                                       1.0908840
  3552   6 C     3692   1 H                                       1.0950930
  3559   6 C     3693   1 H                                       1.0926200
  3559   6 C     3694   1 H                                       1.0924417
  3560   6 C     3695   1 H                                       1.0938125
  3567   6 C     3696   1 H                                       1.0915655
  3567   6 C     3697   1 H                                       1.0913435
  3568   6 C     3698   1 H                                       1.0947128
  3575   6 C     3699   1 H                                       1.0923409
  3576   6 C     3700   1 H                                       1.0944383
  3583   6 C     3701   1 H                                       1.0910936
  3583   6 C     3702   1 H                                       1.0928689
  3584   6 C     3703   1 H                                       1.0942749
  3591   6 C     3704   1 H                                       1.0904173
  3591   6 C     3705   1 H                                       1.0929845
  3592   6 C     3706   1 H                                       1.0953320
  3599   6 C     3707   1 H                                       1.0897355
  3599   6 C     3708   1 H                                       1.0917455
  3600   6 C     3709   1 H                                       1.0954837
  3608   6 C     3710   1 H                                       1.0951833
  3615   6 C     3711   1 H                                       1.0929207
  3615   6 C     3712   1 H                                       1.0907403
  3616   6 C     3713   1 H                                       1.0923578
  3623   6 C     3714   1 H                                       1.0933567
  3623   6 C     3715   1 H                                       1.0908979
  3624   6 C     3716   1 H                                       1.0955702
  3631   6 C     3717   1 H                                       1.0922853
  3631   6 C     3718   1 H                                       1.0910477
  3632   6 C     3719   1 H                                       1.0937278
  3639   6 C     3720   1 H                                       1.0916997
  3639   6 C     3721   1 H                                       1.0912346
  3640   6 C     3722   1 H                                       1.0946730
  3647   6 C     3723   1 H                                       1.0928174
  3647   6 C     3724   1 H                                       1.0924953
  3648   6 C     3725   1 H                                       1.0960569
  3655   6 C     3726   1 H                                       1.0921948
  3655   6 C     3727   1 H                                       1.0912235
  3656   6 C     3728   1 H                                       1.0946571
  3663   6 C     3729   1 H                                       1.0920658
  3663   6 C     3730   1 H                                       1.0893212
  3664   6 C     3731   1 H                                       1.0957166
  3671   6 C     3732   1 H                                       1.0935052
  3671   6 C     3733   1 H                                       1.0926209
  3672   6 C     3734   1 H                                       1.0933171
  3679   6 C     3735   1 H                                       1.0917727
  3679   6 C     3736   1 H                                       1.0920649
  3543   6 C     3737   1 H                                       1.0812190
  3548   6 C     3738   1 H                                       1.0806141
  3547   6 C     3739   1 H                                       1.0809566
  3546   6 C     3740   1 H                                       1.0800757
  3545   6 C     3741   1 H                                       1.0801518
  3554   6 C     3742   1 H                                       1.0800858
  3555   6 C     3743   1 H                                       1.0805880
  3556   6 C     3744   1 H                                       1.0801155
  3557   6 C     3745   1 H                                       1.0806657
  3558   6 C     3746   1 H                                       1.0799525
  3562   6 C     3747   1 H                                       1.0811275
  3563   6 C     3748   1 H                                       1.0806862
  3564   6 C     3749   1 H                                       1.0807367
  3565   6 C     3750   1 H                                       1.0811460
  3566   6 C     3751   1 H                                       1.0801158
  3570   6 C     3752   1 H                                       1.0805141
  3571   6 C     3753   1 H                                       1.0794428
  3572   6 C     3754   1 H                                       1.0797604
  3573   6 C     3755   1 H                                       1.0804421
  3574   6 C     3756   1 H                                       1.0811909
  3575   6 C     3757   1 H                                       1.0934524
  3578   6 C     3758   1 H                                       1.0811131
  3579   6 C     3759   1 H                                       1.0809300
  3580   6 C     3760   1 H                                       1.0801609
  3581   6 C     3761   1 H                                       1.0799927
  3582   6 C     3762   1 H                                       1.0785905
  3586   6 C     3763   1 H                                       1.0806088
  3587   6 C     3764   1 H                                       1.0809914
  3588   6 C     3765   1 H                                       1.0803913
  3589   6 C     3766   1 H                                       1.0806524
  3590   6 C     3767   1 H                                       1.0805123
  3594   6 C     3768   1 H                                       1.0793766
  3595   6 C     3769   1 H                                       1.0810167
  3596   6 C     3770   1 H                                       1.0804492
  3597   6 C     3771   1 H                                       1.0799396
  3598   6 C     3772   1 H                                       1.0798925
  3602   6 C     3773   1 H                                       1.0819805
  3603   6 C     3774   1 H                                       1.0804689
  3604   6 C     3775   1 H                                       1.0807037
  3605   6 C     3776   1 H                                       1.0810407
  3606   6 C     3777   1 H                                       1.0814482
  3607   6 C     3778   1 H                                       1.0905757
  3607   6 C     3779   1 H                                       1.0929710
  3610   6 C     3780   1 H                                       1.0802856
  3611   6 C     3781   1 H                                       1.0803770
  3612   6 C     3782   1 H                                       1.0790369
  3613   6 C     3783   1 H                                       1.0810630
  3614   6 C     3784   1 H                                       1.0810760
  3618   6 C     3785   1 H                                       1.0811029
  3619   6 C     3786   1 H                                       1.0787780
  3620   6 C     3787   1 H                                       1.0800275
  3621   6 C     3788   1 H                                       1.0803819
  3622   6 C     3789   1 H                                       1.0807252
  3626   6 C     3790   1 H                                       1.0809180
  3627   6 C     3791   1 H                                       1.0808953
  3628   6 C     3792   1 H                                       1.0802015
  3629   6 C     3793   1 H                                       1.0808648
  3630   6 C     3794   1 H                                       1.0807244
  3634   6 C     3795   1 H                                       1.0804584
  3635   6 C     3796   1 H                                       1.0807553
  3636   6 C     3797   1 H                                       1.0804253
  3637   6 C     3798   1 H                                       1.0813767
  3638   6 C     3799   1 H                                       1.0814978
  3642   6 C     3800   1 H                                       1.0810676
  3643   6 C     3801   1 H                                       1.0812385
  3644   6 C     3802   1 H                                       1.0799145
  3645   6 C     3803   1 H                                       1.0789011
  3646   6 C     3804   1 H                                       1.0817515
  3650   6 C     3805   1 H                                       1.0822591
  3651   6 C     3806   1 H                                       1.0813629
  3652   6 C     3807   1 H                                       1.0787929
  3653   6 C     3808   1 H                                       1.0801018
  3654   6 C     3809   1 H                                       1.0805713
  3658   6 C     3810   1 H                                       1.0799513
  3659   6 C     3811   1 H                                       1.0803171
  3660   6 C     3812   1 H                                       1.0798795
  3661   6 C     3813   1 H                                       1.0807383
  3662   6 C     3814   1 H                                       1.0809132
  3666   6 C     3815   1 H                                       1.0797093
  3667   6 C     3816   1 H                                       1.0804882
  3668   6 C     3817   1 H                                       1.0809053
  3669   6 C     3818   1 H                                       1.0801409
  3670   6 C     3819   1 H                                       1.0813850
  3674   6 C     3820   1 H                                       1.0808442
  3675   6 C     3821   1 H                                       1.0807976
  3676   6 C     3822   1 H                                       1.0801584
  3677   6 C     3823   1 H                                       1.0805024
  3678   6 C     3824   1 H                                       1.0810760
  3686   6 C     3825   1 H                                       1.0813987
  3685   6 C     3826   1 H                                       1.0814136
  3684   6 C     3827   1 H                                       1.0809570
  3683   6 C     3828   1 H                                       1.0807994
  3682   6 C     3829   1 H                                       1.0799586
  3550   6 C     3830   1 H                                       1.0879147
  3550   6 C     3831   1 H                                       1.0879000
  3550   6 C     3832   1 H                                       1.0876704
  3680   6 C     3833   1 H                                       1.0961710
  3687   6 C     3834   1 H                                       1.0921195
  3687   6 C     3835   1 H                                       1.0902930
  3688   6 C     3836   6 C                                       1.5379983
  3837   6 C     3838   6 C                                       1.3893544
  3838   6 C     3839   6 C                                       1.3811322
  3839   6 C     3840   6 C                                       1.3844641
  3840   6 C     3841   6 C                                       1.3834785
  3837   6 C     3842   6 C                                       1.3884472
  3841   6 C     3842   6 C                                       1.3838812
  3838   6 C     3843   1 H                                       1.0798404
  3839   6 C     3844   1 H                                       1.0782543
  3840   6 C     3845   1 H                                       1.0808690
  3841   6 C     3846   1 H                                       1.0793154
  3842   6 C     3847   1 H                                       1.0811820
  3836   6 C     3848   6 C                                       1.5300890
  3836   6 C     3849   1 H                                       1.0926770
  3836   6 C     3850   1 H                                       1.0918195
  3851   6 C     3852   6 C                                       1.3893619
  3852   6 C     3853   6 C                                       1.3820582
  3853   6 C     3854   6 C                                       1.3845528
  3854   6 C     3855   6 C                                       1.3837009
  3851   6 C     3856   6 C                                       1.3881116
  3855   6 C     3856   6 C                                       1.3833201
  3852   6 C     3857   1 H                                       1.0813496
  3853   6 C     3858   1 H                                       1.0802865
  3854   6 C     3859   1 H                                       1.0812503
  3855   6 C     3860   1 H                                       1.0798936
  3856   6 C     3861   1 H                                       1.0810860
  3688   6 C     3862   1 H                                       1.0955918
  3848   6 C     3863   1 H                                       1.0905845
  3848   6 C     3864   1 H                                       1.0921228

 * 2 distinct bonds (by element types)

   Z      Z             #   av. dist./Å        max./Å        min./Å
   1 H    6 C        1944     1.0850896     1.0978569     1.0771227
   6 C    6 C        1852     1.4190508     1.5408274     1.3806289


optimized geometry written to: xtbopt.xyz


           -------------------------------------------------
          | TOTAL ENERGY            -5104.085756999699 Eh   |
          | GRADIENT NORM               0.000917112932 Eh/α |
          | HOMO-LUMO GAP               4.125137784177 eV   |
           -------------------------------------------------

------------------------------------------------------------------------
 * finished run on 2024/10/08 at 04:51:26.278     
------------------------------------------------------------------------
 total:
 * wall-time:     3 d,  7 h, 43 min, 54.095 sec
 *  cpu-time:    21 d,  1 h,  5 min, 11.308 sec
 * ratio c/w:     6.335 speedup
 SCF:
 * wall-time:     0 d,  0 h, 48 min,  4.409 sec
 *  cpu-time:     0 d,  5 h, 46 min, 18.896 sec
 * ratio c/w:     7.204 speedup
 ANC optimizer:
 * wall-time:     3 d,  6 h, 54 min, 38.683 sec
 *  cpu-time:    20 d, 19 h, 17 min, 19.672 sec
 * ratio c/w:     6.327 speedup

