3864
 energy: -5104.215122542686 gnorm: 0.000830405738 xtb: 6.6.1 (8d0f1dd)
C           52.24804059842538       52.90378367534996       68.27077483097229
C           52.32398159830866       51.61268418913725       67.75680714421382
C           53.33988195840343       51.32114098787279       66.85581037774999
C           54.24471692868979       52.29298796770037       66.46348313146784
C           54.14401581225256       53.57904454361220       66.96311805334844
C           53.14302076553547       53.87976111372964       67.87226362861080
C           51.35427687531416       50.54002109624047       68.18528945420292
C           51.54338703292506       50.24226174365140       69.67699410756647
C           49.88749992770018       50.89683713042398       67.90089727625603
C           49.54336597239728       50.97488338459284       66.40141018750137
C           48.10670743833114       50.56733648723006       66.18301692329091
C           47.07141639170685       51.26510297970154       66.79440027965910
C           45.75538633240503       50.88163544106481       66.61457791925135
C           45.45041898770803       49.80019382985216       65.80662861507044
C           46.47103210105338       49.09084317789917       65.19890978650878
C           47.78765130778764       49.47041942970907       65.39203156133432
C           49.80288315179300       52.37532007860126       65.83044679754555
C           49.72784322824491       52.41457364052243       64.29893425725398
C           50.79077694733897       51.52213216293377       63.70124709131282
C           52.13835909313562       51.84986155981411       63.80556954190561
C           53.10933101425321       51.05123528297815       63.22844362946294
C           52.75152242402705       49.90889671613198       62.53324528570622
C           51.41500340809743       49.56875125703116       62.42677826758526
C           50.44678634143170       50.36659156074261       63.01083638398042
C           49.92608074050672       53.85077472443163       63.78714601569508
C           48.69977291253410       54.77823541887733       63.86170300490714
C           49.23049068161205       56.19141164031399       63.80291707992829
C           49.19480103496848       57.00273296266658       64.93019119708313
C           49.77433727054237       58.25952191884763       64.92339596535844
C           50.41151461756336       58.72177401075477       63.78571312428868
C           50.44422736235425       57.92827789422834       62.65238812473805
C           49.85586163778329       56.67748878239059       62.65990430425563
C           47.68742167784544       54.49046824656690       62.74702215861491
C           46.45392621131618       55.40073553168847       62.83522091111988
C           45.66851549986053       55.12254361782436       64.09056248464407
C           44.99048471331452       53.91864441878115       64.24979980644920
C           44.21995696057184       53.68329478950729       65.37272344771770
C           44.13279790775829       54.63903734887096       66.37129164316761
C           44.82078237627889       55.83207439086851       66.23506988434299
C           45.57581395666586       56.07190245717380       65.09964109173332
C           45.54556092030869       55.26141107223837       61.59082926010525
C           45.44472080801847       56.57915602030396       60.81067255995151
C           46.77328135013341       56.95325135460701       60.20459265154994
C           47.34704674908470       58.18711493240865       60.47915887071684
C           48.54775795997311       58.55838803712071       59.90148111112870
C           49.20415570763706       57.69850974732520       59.04012508422529
C           48.64816801830541       56.45983577251736       58.76825615265517
C           47.44681730047230       56.09089293954355       59.34467457372524
C           44.32500918348088       56.52358873580862       59.75467227013944
C           44.05510283606421       57.90449006289386       59.12252729038753
C           42.60598390679377       58.07515428757309       58.73836887317351
C           41.99962463521889       57.22188873968226       57.82333619724363
C           40.68550120043025       57.41325818254499       57.44040994539437
C           39.95364800534393       58.46944411380299       57.95507431594740
C           40.54127001035550       59.31821599259892       58.87532527569957
C           41.85196462244603       59.11325189206183       59.26901906274003
C           44.95780998022342       58.15979877438534       57.90210301266559
C           45.39482612045821       59.62502628888950       57.77847352124081
C           44.22908720648606       60.52715860689777       57.47217086335942
C           43.87387573277898       61.54213785323951       58.35140229596258
C           42.80002936758569       62.37356718650184       58.08748337412741
C           42.05457369028382       62.19667993172106       56.93624334469377
C           42.39405658019480       61.18692267599265       56.05271071162962
C           43.47309971739038       60.36559807009340       56.31720144366970
C           46.49856508253292       59.72823581652207       56.71693623590552
C           47.04353167316773       61.14642103623422       56.47903792202349
C           48.11695000519401       61.05711875391785       55.42200619907844
C           47.88455953806017       61.52553607853946       54.13633263829670
C           48.85117816011429       61.40258434720889       53.15354495746121
C           50.07742902466524       60.83179877185481       53.44361141015585
C           50.32207269214439       60.36787116617127       54.72456885442226
C           49.34544185658316       60.46621018976337       55.69708975909145
C           47.58588431223288       61.76615338550918       57.77123295958030
C           48.27623828922464       63.11521697429993       57.54301256084147
C           47.37341586639867       64.11614612016565       56.86588427153067
C           47.86071213276520       64.89777684930181       55.82539472025677
C           47.06609150884535       65.85369200274977       55.21707094845203
C           45.75703647501647       66.03536533892563       55.63076559945594
C           45.25977350902645       65.26080341125181       56.66459892547602
C           46.06242333496122       64.31899626017091       57.28128174036711
C           48.78373570141538       63.72052543558160       58.86601309208425
C           49.81452065507681       62.83247874654823       59.57722988920519
C           50.95231992263049       62.45275025545861       58.66176991730640
C           51.66763186948145       63.42111058028181       57.96450117606452
C           52.71208365968844       63.06838314618412       57.12823147549220
C           53.06342440445993       61.73740832155451       56.97551419732628
C           52.36854431827451       60.76426412972344       57.67104685050425
C           51.32761570733637       61.12411575764030       58.50933551459937
C           50.35842859550363       63.48949812786872       60.86705964117036
C           50.31915970557763       62.49637389265163       62.04118657515128
C           48.92884901075941       62.42697142773158       62.63099680600459
C           48.30800182193885       63.56392830401487       63.13747950902457
C           47.03603012627914       63.50046806025555       63.67584795967005
C           46.35950856939752       62.29293639112115       63.72448021430414
C           46.97202677071972       61.15202328661378       63.23860429755108
C           48.24432277545445       61.22037229093146       62.69722697759969
C           51.31881269448406       62.80759999229815       63.16629589403725
C           52.80779453576727       62.81920841703638       62.76141324777725
C           53.63670611178642       62.77125547381823       64.02172475710631
C           53.77381496461928       61.59595978392706       64.75274167453050
C           54.52676165602091       61.56658028361705       65.91219734111867
C           55.15182526524398       62.71517992112168       66.36745362489344
C           55.01686929554399       63.89267151567766       65.65274585856770
C           54.26571102459451       63.91699877141178       64.49060164414620
C           53.18733245110755       61.69202001922885       61.79177047049379
C           54.69498014275646       61.64954191429797       61.49462242824855
C           55.24182235092911       63.02313393076304       61.20061685726507
C           54.73909318203040       63.78489666337080       60.15112122499206
C           55.25112128457839       65.04055710466274       59.88041373039810
C           56.27942175089011       65.55603672978845       60.65200204791429
C           56.79368635798191       64.80301066807719       61.69311498994868
C           56.27805947681504       63.54697055031147       61.96207597870260
C           54.98834982495227       60.73605454777432       60.29392958353825
C           54.91840165153886       59.23334084689604       60.61477530844729
C           54.51427213080811       58.45999388189800       59.38361557411487
C           53.41777008221775       57.60733537666469       59.40990338417860
C           53.03340778323714       56.90948946769512       58.27764996668788
C           53.73431740373103       57.05958539965983       57.09417361978809
C           54.82966721876188       57.90590726033715       57.05472551079768
C           55.21278036644947       58.59767150494685       58.18932724870405
C           56.26899788218339       58.74276088665356       61.16088445145250
C           56.27523812467201       57.22855835193919       61.39787301097285
C           55.21766155332631       56.82703937367719       62.39916359909738
C           55.13460593768059       57.42816472875494       63.65021620059517
C           54.15322909790984       57.05679038207293       64.55181398026710
C           53.24086150613766       56.06917939171371       64.22344658601625
C           53.32155327647269       55.45377548964536       62.98710475397534
C           54.30122107448688       55.83114060688197       62.08596414378476
C           57.63576288598072       56.68687708109262       61.87270328568714
C           58.86485257912431       57.11974696842957       61.05270841489218
C           60.08276699415430       56.40699599739830       61.59192939541941
C           60.24334869939944       55.03467712551848       61.43770010952382
C           61.37160199087584       54.39252492478321       61.91431543352038
C           62.35847448780782       55.11121719188992       62.56600279635166
C           62.20125595373524       56.47479292323758       62.74681250198266
C           61.07220603054508       57.11350633821498       62.26461688899610
C           58.71881939115092       56.87587809814213       59.54438482986445
C           59.89042994953623       57.47484266581587       58.74423351911685
C           60.04605687640777       58.94292827971981       59.05177848795389
C           59.06091932339952       59.86260597699881       58.71038147633578
C           59.18964694660751       61.20053565987827       59.03631888698747
C           60.31731604948850       61.64683051095414       59.70404101065668
C           61.31533510405977       60.74561230713857       60.03363078082099
C           61.17807226752670       59.40661389642467       59.71093486935445
C           59.66887678459739       57.23479447976309       57.24501395834033
C           60.78973045265936       57.81127881235079       56.36570748046817
H           51.59158915577908       49.62651399989021       67.62693590611761
H           49.26603222248794       50.12069637944651       68.35678473367265
H           49.63585728528977       51.84087506970897       68.38654061552482
H           50.18490050470049       50.26553568991176       65.86786146551827
H           49.07239404264487       53.07402074102433       66.24364583413002
H           50.79486895554779       52.70628117106725       66.13984237687039
H           48.74320968042395       52.04673744776075       63.99039271955768
H           50.72750393285587       54.30784602198351       64.37224807394502
H           50.26149756855204       53.82025828695140       62.74832908056768
H           48.19929910650006       54.63370409233176       64.82568894290473
H           47.37302682692238       53.44738895373599       62.80695728623347
H           46.82117976935201       56.43207894560383       62.88584941125070
H           45.92047810902773       54.46775427752849       60.94306440935790
H           44.53854917806864       54.97829100073224       61.90258182434518
H           45.16306046398937       57.35824728233326       61.53048249270751
H           44.58085701330319       55.79895930713204       58.98084023480206
H           43.41322143143513       56.17241943859641       60.24616634197660
H           44.28234817272310       58.66024370873696       59.88251990086226
H           45.85897140839361       57.55319992120177       57.98772228279061
H           44.43151583469591       57.85916494840968       56.99660451409377
H           45.82275199970356       59.91867532986883       58.74230474811010
H           46.22828106779077       61.77559482373166       56.10351674666589
H           46.77003234989835       61.89812995136793       58.48046583022647
H           48.29858414707604       61.07144471271688       58.21191479954846
H           49.14526091760290       62.95178899363716       56.89542291982345
H           49.21797640243461       64.70048795735256       58.65431735766388
H           47.93699807451905       63.87700846470725       59.53953356265478
H           49.29222532732765       61.91985114140814       59.87602704608057
H           51.38064136011389       63.82981964008518       60.70018633921254
H           49.76273279054526       64.36931600022818       61.11139224401324
H           50.56956938788247       61.50319828144462       61.65725694979691
H           51.08336093538161       63.77622262399489       63.61291848158529
H           51.17358314486550       62.05571780642070       63.94742385059199
H           53.01904403806697       63.77104802179637       62.26272652712784
H           52.87846152801598       60.72844312069165       62.19912047871508
H           52.65671416936153       61.84155083922428       60.85163545658521
H           55.21729491475956       61.26166563890186       62.37524330914298
H           54.27713020791118       60.96848119142851       59.49839139235799
H           55.98722633623128       60.97202876221900       59.91835275684743
H           54.15729833383445       59.06315875377747       61.38265844998546
H           57.04813825895624       59.00061547705842       60.44379344458326
H           56.49573857017840       59.27257481966500       62.08747953435197
H           56.02877061161909       56.74639873912921       60.44664916011445
H           57.80501797014495       57.00276226756379       62.90599811093622
H           57.57762293321611       55.59529626492309       61.87967361222288
H           59.01004526812338       58.19386625933156       61.20875678583630
H           58.66600653638156       55.80422287241225       59.34633903133894
H           57.79033286922488       57.32325114854384       59.18987059030945
H           51.47442011534933       53.15565665993658       68.98176427598828
H           53.06010149481391       54.88039075649962       68.27249636815239
H           54.83847802781941       54.34314757018931       66.64501816808833
H           55.02817741495342       52.04686846392561       65.76159613265715
H           53.41943890104265       50.32302082594760       66.44782364308473
H           47.29132737840409       52.11260732045402       67.42752019392668
H           44.96826935876937       51.42865045660039       67.11306342177942
H           44.42261372805027       49.50294265024218       65.65816151134206
H           46.23733585658577       48.23236466886466       64.58490339949701
H           48.58170901722909       48.89813631431555       64.93331613822293
H           52.43994842671995       52.73629876338098       64.34352057986580
H           54.15092816636339       51.32695438733693       63.31779875320946
H           53.50965175216281       49.28993873972932       62.07568347400124
H           51.12163577976737       48.68604346112793       61.87816609216700
H           49.40505465882537       50.09073238631885       62.92727199292925
H           48.71294752327137       56.64151285017422       65.82928009819143
H           49.73635859145751       58.87667993182246       65.81039018080320
H           50.87634175912171       59.69685506521600       63.78740946110813
H           50.93735552278515       58.28218721321138       61.75824729402414
H           49.89327692011680       56.07358528862310       61.76607218733349
H           48.16089065222603       54.64145794490729       61.77568021171567
H           45.05640425388906       53.16064224284606       63.48261251009819
H           43.67987523699220       52.75205517623968       65.46665625896797
H           43.53023065692661       54.45661117399793       67.24991300144261
H           44.76082548771078       56.58231911468743       67.01130183578037
H           46.10054660279798       57.01200374860468       64.99486093234006
H           46.84693429998900       58.87251576974215       61.14965706523871
H           48.96591306570092       59.52850948044493       60.12946840490988
H           50.14266724785389       57.98514976361606       58.58617833626911
H           49.15092195437050       55.77812076385083       58.09810174113301
H           47.03050132670200       55.12096784779567       59.11441839123181
H           42.55958021407819       56.40111957688162       57.39930969074229
H           40.22497506460364       56.73983233720654       56.73360655703056
H           38.93167832897625       58.62457055470345       57.63925124341602
H           39.98082988218549       60.14636800810827       59.28773715015377
H           42.29801339689401       59.78225296562800       59.99220731154815
H           44.43613828973744       61.67813299418436       59.26716173708761
H           42.53950082684964       63.15693787252169       58.78685083627222
H           41.20821308841448       62.83712437758029       56.73377818130446
H           41.81085448130667       61.03114937013979       55.15605268335185
H           43.71899842356262       59.58352545105294       55.61438878046331
H           47.32408496504784       59.08187982244047       57.02486803413115
H           46.11492935914592       59.34585491753109       55.76837313934394
H           46.93613674398254       61.99263117362990       53.90699060953746
H           48.65062077599791       61.75863999702325       52.15444637116610
H           50.83585934923916       60.75314001827304       52.67776361703169
H           51.27260433182510       59.91662198616685       54.96938101350052
H           49.55154143121701       60.08390312608737       56.68474190129969
H           48.88083554443226       64.75966609332757       55.49270405380741
H           47.47447868364219       66.46397782106943       54.42315745334827
H           45.12674831983615       66.77811264818439       55.16099647151348
H           44.24102522384248       65.39508755148861       56.99961513077495
H           45.65235640438774       63.73611768154530       58.09153303195348
H           51.40943061052540       64.46426568872161       58.07702186309618
H           53.25357843135962       63.83792057157431       56.59545871154426
H           53.88143529607810       61.45581045632289       56.32852422956588
H           52.64044213811071       59.72513409422607       57.56225920042637
H           50.80475643184695       60.35456809193339       59.05844283732430
H           48.82184101313720       64.51445920738202       63.11767155199559
H           46.57035870740978       64.39626427610429       64.06191768909869
H           45.36497027185850       62.24340180850282       64.14416021513688
H           46.45782809880745       60.20230771340828       63.28662480548615
H           48.71187690142919       60.31577506139497       62.33696693749688
H           53.29571780256838       60.68748350915634       64.41617534023864
H           54.62703075567973       60.64291969303137       66.46463232030635
H           55.74010895303243       62.69250057039736       67.27345426424272
H           55.50045249165741       64.79455409534903       66.00001230570658
H           54.17307565048499       64.83971927857766       63.93436946662814
H           53.94046749663531       63.39533419706517       59.53749906984547
H           54.84646604164649       65.62132506227383       59.06369653234164
H           56.67831023834556       66.53821495803390       60.44244615146177
H           57.59753112858203       65.19545343614082       62.29985144248730
H           56.68366303871571       62.96817751653651       62.78064514075066
H           52.86094639451600       57.48761072098228       60.32920768148058
H           52.17953641788750       56.24892916178786       58.32137438079762
H           53.42660446306329       56.53040414883667       56.20546226910890
H           55.37733644387650       58.03883876909649       56.13186219748594
H           56.05355067625470       59.27330077464184       58.14174011829184
H           55.83892414946536       58.19921068178922       63.92893775179660
H           54.09896316463571       57.54099341276144       65.51717654350558
H           52.47350174012800       55.78634183980021       64.93038431960771
H           52.61903684679880       54.67882525430073       62.72010094082004
H           54.34908409172991       55.35141266383548       61.11887033196075
H           59.48270840205716       54.44728042074794       60.94475633967228
H           61.47327006691908       53.32590152372335       61.77582952830208
H           63.24372114359376       54.61384738049434       62.93637721455421
H           62.96204177197816       57.04337289106044       63.26331864131043
H           60.95875651546744       58.17935719964932       62.40949385800833
H           61.95849747981426       58.70720257961023       59.97799524463794
H           62.20337241533192       61.08654860303162       60.54748384621853
H           60.41819690702959       62.69085392646787       59.96290009703838
H           58.40898017010115       61.90043284369184       58.77224988877038
H           58.18362066827418       59.53155147575438       58.17585955303551
H           50.91803742547491       49.40488227285390       69.97932813947834
H           52.58164704437132       49.99024370942904       69.88284924424430
H           51.27512698752326       51.10597097573533       70.28049202132756
H           60.81622179036238       56.96948692671988       59.04364925089003
H           59.59773082125685       56.16032754155709       57.06883532349342
H           58.72166847203108       57.68760094759899       56.94322958920647
C           60.34639995681165       57.78432011287347       54.89756554602882
C           62.08228432912872       57.06376819012357       56.58034456829140
C           63.14652250169760       57.67666217961417       57.23030527159728
C           64.33463069541297       57.00032086788711       57.44610149338831
C           64.48317742233466       55.69629789812395       57.00553529188482
C           63.43387313145186       55.07774130659535       56.34904652996300
C           62.24626872116524       55.75496411726621       56.14244195051474
H           63.04312625609945       58.69779920139501       57.57179280938523
H           65.14914368177905       57.49469305539297       57.95734942592981
H           65.41078550224861       55.16666259368590       57.17100232632739
H           63.53920753028788       54.05934267472789       56.00384141062566
H           61.44094801025935       55.24902560102680       55.63391576776542
C           61.42878034369736       58.28728002506836       53.93751934831322
H           60.06981034706345       56.76885633049348       54.61243818261050
H           59.45701298930245       58.40954782129215       54.78605602006950
C           60.92983908726462       58.21661034678791       52.52349794891674
C           60.83229744811629       56.98863429008497       51.87788185149101
C           60.32553166226867       56.89987856639653       50.59440054949692
C           59.90367312296014       58.04350630043688       49.93532850505658
C           60.00013584281136       59.27138419332793       50.56609430092187
C           60.50813869095808       59.35567858430299       51.85150131010550
H           61.15744712624202       56.09371821877553       52.39042151854188
H           60.25248559726085       55.94052328175690       50.10277214576380
H           59.49854621273175       57.96961661782151       48.93646526473236
H           59.67624868209240       60.16931923994513       50.05968897652868
H           60.57825295729659       60.31863169373941       52.33883194566552
H           60.94866474945388       58.85702850152914       56.65397421444584
H           61.69498729049234       59.31487448223915       54.19415925858539
H           62.32242379667487       57.66831636696253       54.04822882864251
C           65.94670358786789       41.32521082890150       43.74749984790358
C           65.21973908857967       40.13965210623361       43.73409599426722
C           65.77889100818255       39.02853360681824       43.11536044598306
C           67.01703459207047       39.10413519076581       42.50132391375409
C           67.71904467542905       40.29747795642420       42.49613731794300
C           67.18197504608807       41.40560536701915       43.13112896888624
C           63.85377938611708       40.05761398671699       44.36546139879442
C           63.93279241118133       40.36162951547001       45.86178633970803
C           62.87071803187402       41.01903109966062       43.68395400962284
C           62.70119088234465       40.74233269004774       42.18301535946843
C           62.23842194162185       39.32812767965559       41.94685664227698
C           61.02360837553877       38.87429398068800       42.44901096747016
C           60.62317736835937       37.56493546328397       42.25361021124153
C           61.42898603009245       36.68694280565816       41.54858299023478
C           62.63417674676767       37.13093422487028       41.03395572134922
C           63.03286490667384       38.44157829402564       41.23137515595698
C           61.72687664888775       41.75771043632946       41.56891183058075
C           61.59337792107362       41.61294923564022       40.04778797431583
C           62.94542224375651       41.65837925115152       39.37864880234634
C           63.36204606761218       40.62179206163368       38.55373044068469
C           64.59672252094644       40.66160107664901       37.92913092012506
C           65.43746983548014       41.74448781769914       38.11878865015315
C           65.03081662135216       42.78826600545345       38.93274828711160
C           63.79580819375793       42.74501345610441       39.55223435948079
C           60.72355129266916       42.72836161784809       39.44165512994191
C           59.21139082062224       42.63798966295465       39.71562557321356
C           58.60291980386734       43.98726223567882       39.41318783011776
C           57.99345734001619       44.72294395573293       40.42139124701642
C           57.45590782986035       45.97356128595477       40.17112638136279
C           57.54812088443679       46.52494210769493       38.90587226538786
C           58.16799160482195       45.81149853126389       37.89393883452563
C           58.67654403186054       44.54893611807616       38.14250114039402
C           58.55330308704781       41.50234607067848       38.91436291859588
C           57.01736992854207       41.55064961023428       38.92927574496456
C           56.45103986056104       41.65465785733441       40.32375872104228
C           56.65799274378724       40.65574882515570       41.26751374396100
C           56.04841395596680       40.72084024107026       42.50808261362699
C           55.24282109855028       41.79792232243874       42.83773877392013
C           55.05394902608284       42.81187275858987       41.91623663998684
C           55.64462441639651       42.73099596555843       40.66810330632179
C           56.40836402672948       40.30378401116464       38.26046839111957
C           56.53533727752159       40.26203921411458       36.72541976840819
C           57.07470269112618       38.92760326039746       36.27070526097864
C           58.19211982924291       38.84882363430531       35.45087705622419
C           58.66940318641908       37.62391419144752       35.01610540968798
C           58.02859013904861       36.45644260445719       35.39195767225277
C           56.91259168644964       36.52195263484685       36.20984239301184
C           56.44362589155724       37.74644514177673       36.64714143677703
C           55.19254304238609       40.48836527035805       36.00524903626049
C           54.57597860848741       41.88648567266360       36.17039190359257
C           53.18096559201925       41.89727066873648       35.58978077444360
C           52.96449603390890       41.71057484219273       34.22813629180816
C           51.68953315191829       41.77676719759946       33.69617111995297
C           50.60202334082905       42.03336587415323       34.51417993974804
C           50.80252131487063       42.20646367971418       35.87141937059666
C           52.07849056142184       42.13094657809892       36.40165960845611
C           55.43549942305612       42.97459130304429       35.50956489107078
C           54.78602317653491       44.36535696050159       35.58246931226535
C           55.44827664345498       45.32975291157663       34.63094989719347
C           56.83165381876883       45.45030295921874       34.56614851834773
C           57.42748208493377       46.36089931994895       33.71250869012734