      -----------------------------------------------------------      
     |                   =====================                   |     
     |                           x T B                           |     
     |                   =====================                   |     
     |                         S. Grimme                         |     
     |          Mulliken Center for Theoretical Chemistry        |     
     |                    University of Bonn                     |     
      -----------------------------------------------------------      

   * xtb version 6.6.1 (8d0f1dd) compiled by 'stahn@M-Bot' on 2023-08-01

   xtb is free software: you can redistribute it and/or modify it under
   the terms of the GNU Lesser General Public License as published by
   the Free Software Foundation, either version 3 of the License, or
   (at your option) any later version.
   
   xtb is distributed in the hope that it will be useful,
   but WITHOUT ANY WARRANTY; without even the implied warranty of
   MERCHANTABILITY or FITNESS FOR A PARTICULAR PURPOSE.  See the
   GNU Lesser General Public License for more details.
   
   Cite this work as:
   * C. Bannwarth, E. Caldeweyher, S. Ehlert, A. Hansen, P. Pracht,
     J. Seibert, S. Spicher, S. Grimme, WIREs Comput. Mol. Sci., 2020, 11,
     e01493. DOI: 10.1002/wcms.1493
   
   for GFN2-xTB:
   * C. Bannwarth, S. Ehlert and S. Grimme., J. Chem. Theory Comput., 2019,
     15, 1652-1671. DOI: 10.1021/acs.jctc.8b01176
   for GFN1-xTB:
   * S. Grimme, C. Bannwarth, P. Shushkov, J. Chem. Theory Comput., 2017,
     13, 1989-2009. DOI: 10.1021/acs.jctc.7b00118
   for GFN0-xTB:
   * P. Pracht, E. Caldeweyher, S. Ehlert, S. Grimme, ChemRxiv, 2019, preprint.
     DOI: 10.26434/chemrxiv.8326202.v1
   for GFN-FF:
   * S. Spicher and S. Grimme, Angew. Chem. Int. Ed., 2020, 59, 15665-15673.
     DOI: 10.1002/anie.202004239
   
   for ALPB and GBSA implicit solvation:
   * S. Ehlert, M. Stahn, S. Spicher, S. Grimme, J. Chem. Theory Comput.,
     2021, 17, 4250-4261. DOI: 10.1021/acs.jctc.1c00471
   
   for DFT-D4:
   * E. Caldeweyher, C. Bannwarth and S. Grimme, J. Chem. Phys., 2017,
     147, 034112. DOI: 10.1063/1.4993215
   * E. Caldeweyher, S. Ehlert, A. Hansen, H. Neugebauer, S. Spicher,
     C. Bannwarth and S. Grimme, J. Chem. Phys., 2019, 150, 154122.
     DOI: 10.1063/1.5090222
   * E. Caldeweyher, J.-M. Mewes, S. Ehlert and S. Grimme, Phys. Chem. Chem. Phys.
     2020, 22, 8499-8512. DOI: 10.1039/D0CP00502A
   
   for sTDA-xTB:
   * S. Grimme and C. Bannwarth, J. Chem. Phys., 2016, 145, 054103.
     DOI: 10.1063/1.4959605
   
   in the mass-spec context:
   * V. Asgeirsson, C. Bauer and S. Grimme, Chem. Sci., 2017, 8, 4879.
     DOI: 10.1039/c7sc00601b
   * J. Koopman and S. Grimme, ACS Omega 2019, 4, 12, 15120-15133.
     DOI: 10.1021/acsomega.9b02011
   
   for metadynamics refer to:
   * S. Grimme, J. Chem. Theory Comput., 2019, 155, 2847-2862
     DOI: 10.1021/acs.jctc.9b00143
   
   for SPH calculations refer to:
   * S. Spicher and S. Grimme, J. Chem. Theory Comput., 2021, 17, 1701-1714
     DOI: 10.1021/acs.jctc.0c01306
   
   with help from (in alphabetical order)
   P. Atkinson, C. Bannwarth, F. Bohle, G. Brandenburg, E. Caldeweyher
   M. Checinski, S. Dohm, S. Ehlert, S. Ehrlich, I. Gerasimov, C. Hölzer
   A. Katbashev, J. Koopman, C. Lavigne, S. Lehtola, F. März, M. Müller,
   F. Musil, H. Neugebauer, J. Pisarek, C. Plett, P. Pracht, F. Pultar,
   J. Seibert, P. Shushkov, S. Spicher, M. Stahn, M. Steiner, T. Strunk,
   J. Stückrath, T. Rose, and J. Unsleber
   
 * started run on 2024/10/04 at 20:30:41.248     

           -------------------------------------------------
          |                Calculation Setup                |
           -------------------------------------------------

          program call               : /home/abt-grimme/AK-bin/xtb input.xyz --input input.inp --opt
          hostname                   : boar099.thch.uni-bonn.de
          coordinate file            : input.xyz
          omp threads                :                     8

   ID    Z sym.   atoms
    1    6 C      1-146, 294-300, 306, 309-314, 323-468, 616-622, 628,
                  631-636, 645-790, 938-944, 950, 953-958, 967-1112,
                  1260-1266, 1272, 1275-1280, 1289-1434, 1582-1588, 1594,
                  1597-1602, 1611-1756, 1904-1910, 1916, 1919-1924,
                  1933-2078, 2226-2232, 2238, 2241-2246, 2255-2400,
                  2548-2554, 2560, 2563-2568, 2577-2722, 2870-2876, 2882,
                  2885-2890, 2899-3044, 3192-3198, 3204, 3207-3212,
                  3221-3366, 3514-3520, 3526, 3529-3534, 3543-3688,
                  3836-3842, 3848, 3851-3856
    2    1 H      147-293, 301-305, 307, 308, 315-322, 469-615, 623-627, 629,
                  630, 637-644, 791-937, 945-949, 951, 952, 959-966,
                  1113-1259, 1267-1271, 1273, 1274, 1281-1288, 1435-1581,
                  1589-1593, 1595, 1596, 1603-1610, 1757-1903, 1911-1915,
                  1917, 1918, 1925-1932, 2079-2225, 2233-2237, 2239, 2240,
                  2247-2254, 2401-2547, 2555-2559, 2561, 2562, 2569-2576,
                  2723-2869, 2877-2881, 2883, 2884, 2891-2898, 3045-3191,
                  3199-3203, 3205, 3206, 3213-3220, 3367-3513, 3521-3525,
                  3527, 3528, 3535-3542, 3689-3835, 3843-3847, 3849, 3850,
                  3857-3864

molecular fragmentation (1/2 indicates fragments):
111111111111111111111111111111111111111111111111111111111111111111111111
111111111111111111111111111111111111111111111111111111111111111111111111
111111111111111111111111111111111111111111111111111111111111111111111111
111111111111111111111111111111111111111111111111111111111111111111111111
111111111111111111111111111111111122222222222222222222222222222222222222
222222222222222222222222222222222222222222222222222222222222222222222222
222222222222222222222222222222222222222222222222222222222222222222222222
222222222222222222222222222222222222222222222222222222222222222222222222
222222222222222222222222222222222222222222222222222222222222222222222222
222222222222222222222222222222222222222222222222222222222222222222222222
222222222222222222222222222222222222222222222222222222222222222222222222
222222222222222222222222222222222222222222222222222222222222222222222222
222222222222222222222222222222222222222222222222222222222222222222222222
222222222222222222222222222222222222222222222222222222222222222222222222
222222222222222222222222222222222222222222222222222222222222222222222222
222222222222222222222222222222222222222222222222222222222222222222222222
222222222222222222222222222222222222222222222222222222222222222222222222
222222222222222222222222222222222222222222222222222222222222222222222222
222222222222222222222222222222222222222222222222222222222222222222222222
222222222222222222222222222222222222222222222222222222222222222222222222
222222222222222222222222222222222222222222222222222222222222222222222222
222222222222222222222222222222222222222222222222222222222222222222222222
222222222222222222222222222222222222222222222222222222222222222222222222
222222222222222222222222222222222222222222222222222222222222222222222222
222222222222222222222222222222222222222222222222222222222222222222222222
222222222222222222222222222222222222222222222222222222222222222222222222
222222222222222222222222222222222222222222222222222222222222222222222222
222222222222222222222222222222222222222222222222222222222222222222222222
222222222222222222222222222222222222222222222222222222222222222222222222
222222222222222222222222222222222222222222222222222222222222222222222222
222222222222222222222222222222222222222222222222222222222222222222222222
222222222222222222222222222222222222222222222222222222222222222222222222
222222222222222222222222222222222222222222222222222222222222222222222222
222222222222222222222222222222222222222222222222222222222222222222222222
222222222222222222222222222222222222222222222222222222222222222222222222
222222222222222222222222222222222222222222222222222222222222222222222222
222222222222222222222222222222222222222222222222222222222222222222222222
222222222222222222222222222222222222222222222222222222222222222222222222
222222222222222222222222222222222222222222222222222222222222222222222222
222222222222222222222222222222222222222222222222222222222222222222222222
222222222222222222222222222222222222222222222222222222222222222222222222
222222222222222222222222222222222222222222222222222222222222222222222222
222222222222222222222222222222222222222222222222222222222222222222222222
222222222222222222222222222222222222222222222222222222222222222222222222
222222222222222222222222222222222222222222222222222222222222222222222222
222222222222222222222222222222222222222222222222222222222222222222222222
222222222222222222222222222222222222222222222222222222222222222222222222
222222222222222222222222222222222222222222222222222222222222222222222222
222222222222222222222222222222222222222222222222222222222222222222222222
222222222222222222222222222222222222222222222222222222222222222222222222
222222222222222222222222222222222222222222222222222222222222222222222222
222222222222222222222222222222222222222222222222222222222222222222222222
222222222222222222222222222222222222222222222222222222222222222222222222
222222222222222222222222222222222222222222222222
# atoms in fragment 1/2:   322  3542
 fragment masses (1/2) :     2085.00    22935.05
CMA distance (Bohr)    :  32.361
constraining FC (au)   :  0.0500

           -------------------------------------------------
          |                 G F N 2 - x T B                 |
           -------------------------------------------------

        Reference                      10.1021/acs.jctc.8b01176
      * Hamiltonian:
        H0-scaling (s, p, d)           1.850000    2.230000    2.230000
        zeta-weighting                 0.500000
      * Dispersion:
        s8                             2.700000
        a1                             0.520000
        a2                             5.000000
        s9                             5.000000
      * Repulsion:
        kExp                           1.500000    1.000000
        rExp                           1.000000
      * Coulomb:
        alpha                          2.000000
        third order                    shell-resolved
        anisotropic                    true
        a3                             3.000000
        a5                             4.000000
        cn-shift                       1.200000
        cn-exp                         4.000000
        max-rad                        5.000000


          ...................................................
          :                      SETUP                      :
          :.................................................:
          :  # basis functions                9624          :
          :  # atomic orbitals                9624          :
          :  # shells                         5784          :
          :  # electrons                      9624          :
          :  max. iterations                   250          :
          :  Hamiltonian                  GFN2-xTB          :
          :  restarted?                      false          :
          :  GBSA solvation                  false          :
          :  PC potential                    false          :
          :  electronic temp.          300.0000000     K    :
          :  accuracy                    1.0000000          :
          :  -> integral cutoff          0.2500000E+02      :
          :  -> integral neglect         0.1000000E-07      :
          :  -> SCF convergence          0.1000000E-05 Eh   :
          :  -> wf. convergence          0.1000000E-03 e    :
          :  Broyden damping             0.4000000          :
          ...................................................

 iter      E             dE          RMSdq      gap      omega  full diag
   1  -5195.6730919 -0.519567E+04  0.368E+00    4.29       0.0  T
   2  -5198.2516226 -0.257853E+01  0.217E+00    4.26       1.0  T
   3  -5198.1801697  0.714529E-01  0.494E-01    4.04       1.0  T
   4  -5198.3827886 -0.202619E+00  0.242E-01    3.94       1.0  T
   5  -5198.5373355 -0.154547E+00  0.463E-02    4.03       1.0  T
   6  -5198.5394772 -0.214167E-02  0.286E-02    4.00       1.0  T
   7  -5198.5407033 -0.122613E-02  0.111E-02    4.02       1.0  T
   8  -5198.5410107 -0.307397E-03  0.288E-03    4.02       1.0  T
   9  -5198.5410277 -0.170634E-04  0.122E-03    4.02       1.3  T
  10  -5198.5410293 -0.153458E-05  0.520E-04    4.02       3.1  T
  11  -5198.5410295 -0.215649E-06  0.277E-04    4.02       5.8  T
  12  -5198.5410297 -0.162932E-06  0.978E-05    4.02      16.5  T

   *** convergence criteria satisfied after 12 iterations ***

         #    Occupation            Energy/Eh            Energy/eV
      -------------------------------------------------------------
         1        2.0000           -0.6526201             -17.7587
       ...           ...                  ...                  ...
      4806        2.0000           -0.3823711             -10.4048
      4807        2.0000           -0.3816088             -10.3841
      4808        2.0000           -0.3814034             -10.3785
      4809        2.0000           -0.3813910             -10.3782
      4810        2.0000           -0.3808830             -10.3644
      4811        2.0000           -0.3791568             -10.3174
      4812        2.0000           -0.3774033             -10.2697 (HOMO)
      4813                         -0.2296605              -6.2494 (LUMO)
      4814                         -0.2293597              -6.2412
      4815                         -0.2288358              -6.2269
      4816                         -0.2277646              -6.1978
      4817                         -0.2271256              -6.1804
       ...                                ...                  ...
      9624                          0.6808060              18.5257
      -------------------------------------------------------------
                  HL-Gap            0.1477427 Eh            4.0203 eV
             Fermi-level           -0.3035319 Eh           -8.2595 eV

 SCC (total)                   0 d,  0 h, 47 min, 43.362 sec
 SCC setup                      ...        0 min,  0.708 sec (  0.025%)
 Dispersion                     ...        0 min,  6.804 sec (  0.238%)
 classical contributions        ...        0 min,  0.153 sec (  0.005%)
 integral evaluation            ...        0 min, 11.604 sec (  0.405%)
 iterations                     ...       42 min, 10.409 sec ( 88.372%)
 molecular gradient             ...        4 min, 46.477 sec ( 10.005%)
 printout                       ...        0 min, 27.207 sec (  0.950%)

         :::::::::::::::::::::::::::::::::::::::::::::::::::::
         ::                     SUMMARY                     ::
         :::::::::::::::::::::::::::::::::::::::::::::::::::::
         :: total energy           -5104.055210037902 Eh    ::
         :: gradient norm              0.024125896762 Eh/a0 ::
         :: HOMO-LUMO gap              4.020284755076 eV    ::
         ::.................................................::
         :: SCC energy             -5198.541029659016 Eh    ::
         :: -> isotropic ES            0.265400999369 Eh    ::
         :: -> anisotropic ES          0.779956017550 Eh    ::
         :: -> anisotropic XC          3.254125317888 Eh    ::
         :: -> dispersion             -6.990781855494 Eh    ::
         :: repulsion energy          93.362962334903 Eh    ::
         :: add. restraining           0.000000000000 Eh    ::
         :: total charge              -0.000000000028 e     ::
         :::::::::::::::::::::::::::::::::::::::::::::::::::::

      ----------------------------------------------------------- 
     |              Fast Inertial Relaxation Engine              |
      ----------------------------------------------------------- 

          ...................................................
          :                      SETUP                      :
          :.................................................:
          :   energy convergence        0.5000000E-05 Eh    :
          :   grad. convergence         0.1000000E-02 Eh/a0 :
          :   optimization log               true           :
          :   writing optlog all                1     steps :
          :   Hessian reset                    20     steps :
          :   time step scaling                 5     steps :
          :   maximium step len.        1.0000000     a0    :
          :   initial time step         0.2500000     fs    :
          :   maximum time step         1.2500000     fs    :
          :   power reset thr           0.0000000     au    :
          :   alpha parameter           0.1000000           :
          :   BFGS update                   false           :
          :   preconditioning               false           :
          ...................................................

........................................................................
.............................. CYCLE    1 ..............................
........................................................................

 iter      E             dE          RMSdq      gap      omega  full diag
   1  -5198.5421313 -0.519854E+04  0.333E-04    4.02       0.0  T
   2  -5198.5421313 -0.165774E-07  0.205E-04    4.02       7.9  T
   3  -5198.5421312  0.326763E-07  0.874E-05    4.02      18.4  T
     SCC iter.                  ...       10 min, 36.566 sec
     gradient                   ...        4 min, 47.238 sec
 * total energy  : -5104.0552761 Eh     change    :  -0.6610558E-04 Eh
   gradient norm :     0.0226416 Eh/a0  converged?    E=F G=F D=F
   time step     :     0.2500000 fs     power     :   0.3395174E-08
   step length   :     0.0028275 a0     speed     :   0.2735762E-03

........................................................................
.............................. CYCLE    2 ..............................
........................................................................

 iter      E             dE          RMSdq      gap      omega  full diag
   1  -5198.5437670 -0.519854E+04  0.489E-04    4.02       0.0  T
   2  -5198.5437670 -0.322134E-07  0.299E-04    4.02       5.4  T
   3  -5198.5437670  0.452210E-07  0.106E-04    4.02      15.2  T
     SCC iter.                  ...       10 min, 36.955 sec
     gradient                   ...        4 min, 45.488 sec
 * total energy  : -5104.0553656 Eh     change    :  -0.8948812E-04 Eh
   gradient norm :     0.0205452 Eh/a0  converged?    E=F G=F D=F
   time step     :     0.2500000 fs     power     :   0.4509860E-08
   step length   :     0.0041535 a0     speed     :   0.4018688E-03

........................................................................
.............................. CYCLE    3 ..............................
........................................................................

 iter      E             dE          RMSdq      gap      omega  full diag
   1  -5198.5459293 -0.519855E+04  0.630E-04    4.02       0.0  T
   2  -5198.5459293 -0.496921E-07  0.385E-04    4.02       4.2  T
   3  -5198.5459292  0.699220E-07  0.129E-04    4.02      12.5  T
     SCC iter.                  ...       10 min, 33.899 sec
     gradient                   ...        4 min, 46.994 sec
 * total energy  : -5104.0554681 Eh     change    :  -0.1024625E-03 Eh
   gradient norm :     0.0180450 Eh/a0  converged?    E=F G=F D=F
   time step     :     0.2500000 fs     power     :   0.5054419E-08
   step length   :     0.0053525 a0     speed     :   0.5178849E-03

........................................................................
.............................. CYCLE    4 ..............................
........................................................................

 iter      E             dE          RMSdq      gap      omega  full diag
   1  -5198.5486131 -0.519855E+04  0.752E-04    4.02       0.0  T
   2  -5198.5486132 -0.659556E-07  0.461E-04    4.02       3.5  T
   3  -5198.5486131  0.108459E-06  0.154E-04    4.02      10.5  T
     SCC iter.                  ...       10 min, 38.609 sec
     gradient                   ...        4 min, 46.459 sec
 * total energy  : -5104.0555727 Eh     change    :  -0.1045851E-03 Eh
   gradient norm :     0.0154169 Eh/a0  converged?    E=F G=F D=F
   time step     :     0.2500000 fs     power     :   0.5031507E-08
   step length   :     0.0063931 a0     speed     :   0.6185629E-03

........................................................................
.............................. CYCLE    5 ..............................
........................................................................

 iter      E             dE          RMSdq      gap      omega  full diag
   1  -5198.5518141 -0.519855E+04  0.852E-04    4.02       0.0  T
   2  -5198.5518142 -0.776809E-07  0.525E-04    4.02       3.1  T
   3  -5198.5518140  0.164563E-06  0.182E-04    4.02       8.9  T
     SCC iter.                  ...       10 min, 36.239 sec
     gradient                   ...        4 min, 47.451 sec
 * total energy  : -5104.0556699 Eh     change    :  -0.9724612E-04 Eh
   gradient norm :     0.0130015 Eh/a0  converged?    E=F G=F D=F
   time step     :     0.2500000 fs     power     :   0.4545655E-08
   step length   :     0.0072498 a0     speed     :   0.7014602E-03

........................................................................
.............................. CYCLE    6 ..............................
........................................................................

 iter      E             dE          RMSdq      gap      omega  full diag
   1  -5198.5559361 -0.519856E+04  0.103E-03    4.02       0.0  T
   2  -5198.5559363 -0.104182E-06  0.638E-04    4.03       2.5  T
   3  -5198.5559359  0.326186E-06  0.245E-04    4.03       6.6  T
     SCC iter.                  ...       10 min, 37.483 sec
     gradient                   ...        4 min, 48.098 sec
 * total energy  : -5104.0557614 Eh     change    :  -0.9144449E-04 Eh
   gradient norm :     0.0109846 Eh/a0  converged?    E=F G=F D=F
   time step     :     0.2750000 fs     power     :   0.3679990E-08
   step length   :     0.0087690 a0     speed     :   0.7713120E-03

........................................................................
.............................. CYCLE    7 ..............................
........................................................................

 iter      E             dE          RMSdq      gap      omega  full diag
   1  -5198.5611133 -0.519856E+04  0.120E-03    4.03       0.0  T
   2  -5198.5611134 -0.126860E-06  0.751E-04    4.03       2.1  T
   3  -5198.5611128  0.587081E-06  0.320E-04    4.03       5.0  T
     SCC iter.                  ...       10 min, 37.863 sec
     gradient                   ...        4 min, 46.927 sec
 * total energy  : -5104.0558391 Eh     change    :  -0.7768036E-04 Eh
   gradient norm :     0.0097878 Eh/a0  converged?    E=F G=F D=F
   time step     :     0.3025000 fs     power     :   0.2621824E-08
   step length   :     0.0102588 a0     speed     :   0.8203283E-03

........................................................................
.............................. CYCLE    8 ..............................
........................................................................

 iter      E             dE          RMSdq      gap      omega  full diag
   1  -5198.5673564 -0.519857E+04  0.134E-03    4.03       0.0  T
   2  -5198.5673566 -0.147829E-06  0.850E-04    4.03       1.9  T
   3  -5198.5673557  0.901836E-06  0.397E-04    4.03       4.1  T
     SCC iter.                  ...       10 min, 36.963 sec
     gradient                   ...        4 min, 45.824 sec
 * total energy  : -5104.0558987 Eh     change    :  -0.5964215E-04 Eh
   gradient norm :     0.0093227 Eh/a0  converged?    E=F G=F D=F
   time step     :     0.3327500 fs     power     :   0.1616889E-08
   step length   :     0.0115682 a0     speed     :   0.8409376E-03

........................................................................
.............................. CYCLE    9 ..............................
........................................................................

 iter      E             dE          RMSdq      gap      omega  full diag
   1  -5198.5744569 -0.519857E+04  0.144E-03    4.03       0.0  T
   2  -5198.5744571 -0.174045E-06  0.921E-04    4.03       1.7  T
   3  -5198.5744560  0.108986E-05  0.448E-04    4.03       3.6  T
   4  -5198.5744573 -0.128998E-05  0.508E-05    4.03      31.7  T
   5  -5198.5744573 -0.702312E-08  0.231E-05    4.03      69.6  T
     SCC iter.                  ...       17 min, 38.517 sec
     gradient                   ...        4 min, 48.071 sec
 * total energy  : -5104.0559417 Eh     change    :  -0.4298713E-04 Eh
   gradient norm :     0.0090356 Eh/a0  converged?    E=F G=F D=F
   time step     :     0.3660250 fs     power     :   0.7858098E-09
   step length   :     0.0125937 a0     speed     :   0.8322553E-03

........................................................................
.............................. CYCLE   10 ..............................
........................................................................

 iter      E             dE          RMSdq      gap      omega  full diag
   1  -5198.5818812 -0.519858E+04  0.150E-03    4.03       0.0  T
   2  -5198.5818814 -0.199911E-06  0.954E-04    4.03       1.7  T
   3  -5198.5818802  0.117334E-05  0.486E-04    4.03       3.3  T
   4  -5198.5818816 -0.142886E-05  0.529E-05    4.03      30.4  T
   5  -5198.5818816 -0.896216E-08  0.225E-05    4.03      71.4  T
     SCC iter.                  ...       17 min, 40.081 sec
     gradient                   ...        4 min, 47.624 sec
 * total energy  : -5104.0559667 Eh     change    :  -0.2503599E-04 Eh
   gradient norm :     0.0087872 Eh/a0  converged?    E=F G=F D=F
   time step     :     0.4026275 fs     power     :   0.1335017E-09
   step length   :     0.0133049 a0     speed     :   0.7993247E-03

........................................................................
.............................. CYCLE   11 ..............................
........................................................................

 iter      E             dE          RMSdq      gap      omega  full diag
   1  -5198.5888779 -0.519859E+04  0.151E-03    4.03       0.0  T
   2  -5198.5888781 -0.203891E-06  0.938E-04    4.03       1.7  T
   3  -5198.5888771  0.101348E-05  0.464E-04    4.03       3.5  T
   4  -5198.5888783 -0.122204E-05  0.566E-05    4.03      28.4  T
   5  -5198.5888784 -0.116752E-07  0.217E-05    4.03      74.2  T
     SCC iter.                  ...       17 min, 40.388 sec
     gradient                   ...        4 min, 48.419 sec
 * total energy  : -5104.0559760 Eh     change    :  -0.9308320E-05 Eh
   gradient norm :     0.0232034 Eh/a0  converged?    E=F G=F D=F
   time step     :     0.4428903 fs     power     :  -0.2534368E-09
   step length   :     0.0136821 a0     speed     :   0.7472600E-03

........................................................................
.............................. CYCLE   12 ..............................
........................................................................
 * reset velocities

 iter      E             dE          RMSdq      gap      omega  full diag
   1  -5198.5886926 -0.519859E+04  0.121E-04    4.03       0.0  T
   2  -5198.5886926 -0.291493E-08  0.773E-05    4.03      20.8  T
   3  -5198.5886926  0.387627E-08  0.373E-05    4.03      43.2  T
     SCC iter.                  ...       10 min, 39.315 sec
     gradient                   ...        4 min, 48.133 sec
 * total energy  : -5104.0559794 Eh     change    :  -0.3358095E-05 Eh
   gradient norm :     0.0088423 Eh/a0  converged?    E=T G=F D=F
   time step     :     0.2214451 fs     power     :   0.1838091E-09
   step length   :     0.0010668 a0     speed     :   0.1165312E-03

........................................................................
.............................. CYCLE   13 ..............................
........................................................................

 iter      E             dE          RMSdq      gap      omega  full diag
   1  -5198.5883279 -0.519859E+04  0.130E-04    4.03       0.0  T
   2  -5198.5883279 -0.356613E-08  0.850E-05    4.03      18.9  T
   3  -5198.5883279  0.419550E-08  0.354E-05    4.03      45.4  T
     SCC iter.                  ...       10 min, 36.557 sec
     gradient                   ...        4 min, 47.605 sec
 * total energy  : -5104.0559863 Eh     change    :  -0.6927081E-05 Eh
   gradient norm :     0.0085158 Eh/a0  converged?    E=F G=F D=F
   time step     :     0.2214451 fs     power     :   0.3944205E-09
   step length   :     0.0012271 a0     speed     :   0.1340372E-03

........................................................................
.............................. CYCLE   14 ..............................
........................................................................

 iter      E             dE          RMSdq      gap      omega  full diag
   1  -5198.5878007 -0.519859E+04  0.148E-04    4.03       0.0  T
   2  -5198.5878007 -0.447562E-08  0.100E-04    4.03      16.1  T
   3  -5198.5878007  0.781165E-08  0.421E-05    4.03      38.2  T
     SCC iter.                  ...       10 min, 35.070 sec
     gradient                   ...        4 min, 47.030 sec
 * total energy  : -5104.0559961 Eh     change    :  -0.9807186E-05 Eh
   gradient norm :     0.0080410 Eh/a0  converged?    E=F G=F D=F
   time step     :     0.2214451 fs     power     :   0.5588598E-09
   step length   :     0.0014831 a0     speed     :   0.1620007E-03

........................................................................
.............................. CYCLE   15 ..............................
........................................................................

 iter      E             dE          RMSdq      gap      omega  full diag
   1  -5198.5871231 -0.519859E+04  0.171E-04    4.03       0.0  T
   2  -5198.5871231 -0.605723E-08  0.118E-04    4.03      13.7  T
   3  -5198.5871231  0.116506E-07  0.498E-05    4.03      32.3  T
     SCC iter.                  ...       10 min, 36.657 sec
     gradient                   ...        4 min, 48.292 sec
 * total energy  : -5104.0560080 Eh     change    :  -0.1188698E-04 Eh
   gradient norm :     0.0074401 Eh/a0  converged?    E=F G=F D=F
   time step     :     0.2214451 fs     power     :   0.6730775E-09
   step length   :     0.0017696 a0     speed     :   0.1932956E-03

........................................................................
.............................. CYCLE   16 ..............................
........................................................................

 iter      E             dE          RMSdq      gap      omega  full diag
   1  -5198.5863050 -0.519859E+04  0.194E-04    4.03       0.0  T
   2  -5198.5863050 -0.772980E-08  0.135E-04    4.03      11.9  T
   3  -5198.5863049  0.165574E-07  0.577E-05    4.03      27.9  T
     SCC iter.                  ...       10 min, 35.994 sec
     gradient                   ...        4 min, 50.757 sec
 * total energy  : -5104.0560211 Eh     change    :  -0.1306975E-04 Eh
   gradient norm :     0.0067424 Eh/a0  converged?    E=F G=F D=F
   time step     :     0.2214451 fs     power     :   0.7340336E-09
   step length   :     0.0020534 a0     speed     :   0.2242938E-03

........................................................................
.............................. CYCLE   17 ..............................
........................................................................

 iter      E             dE          RMSdq      gap      omega  full diag
   1  -5198.5853555 -0.519859E+04  0.216E-04    4.03       0.0  T
   2  -5198.5853555 -0.938599E-08  0.151E-04    4.03      10.7  T
   3  -5198.5853555  0.217597E-07  0.648E-05    4.03      24.8  T
     SCC iter.                  ...       10 min, 39.024 sec
     gradient                   ...        4 min, 48.771 sec
 * total energy  : -5104.0560345 Eh     change    :  -0.1343132E-04 Eh
   gradient norm :     0.0059847 Eh/a0  converged?    E=F G=F D=F
   time step     :     0.2214451 fs     power     :   0.7421752E-09
   step length   :     0.0023165 a0     speed     :   0.2530337E-03

........................................................................
.............................. CYCLE   18 ..............................
........................................................................

 iter      E             dE          RMSdq      gap      omega  full diag
   1  -5198.5841633 -0.519858E+04  0.259E-04    4.03       0.0  T
   2  -5198.5841633 -0.134432E-07  0.182E-04    4.03       8.8  T
   3  -5198.5841633  0.333521E-07  0.793E-05    4.03      20.3  T
     SCC iter.                  ...       10 min, 32.145 sec
     gradient                   ...        4 min, 50.010 sec
 * total energy  : -5104.0560488 Eh     change    :  -0.1426019E-04 Eh
   gradient norm :     0.0051350 Eh/a0  converged?    E=F G=F D=F
   time step     :     0.2435896 fs     power     :   0.6948326E-09
   step length   :     0.0028308 a0     speed     :   0.2810993E-03

........................................................................
.............................. CYCLE   19 ..............................
........................................................................

 iter      E             dE          RMSdq      gap      omega  full diag
   1  -5198.5826890 -0.519858E+04  0.305E-04    4.03       0.0  T
   2  -5198.5826890 -0.175951E-07  0.215E-04    4.03       7.5  T
   3  -5198.5826890  0.486843E-07  0.943E-05    4.03      17.1  T
     SCC iter.                  ...       10 min, 38.077 sec
     gradient                   ...        4 min, 46.032 sec
 * total energy  : -5104.0560626 Eh     change    :  -0.1386418E-04 Eh
   gradient norm :     0.0042820 Eh/a0  converged?    E=F G=F D=F
   time step     :     0.2679486 fs     power     :   0.5887919E-09
   step length   :     0.0033939 a0     speed     :   0.3063823E-03

........................................................................
.............................. CYCLE   20 ..............................
........................................................................

 iter      E             dE          RMSdq      gap      omega  full diag
   1  -5198.5808981 -0.519858E+04  0.349E-04    4.03       0.0  T
   2  -5198.5808981 -0.214586E-07  0.246E-04    4.03       6.5  T
   3  -5198.5808980  0.677828E-07  0.109E-04    4.03      14.8  T
     SCC iter.                  ...       10 min, 35.066 sec
     gradient                   ...        4 min, 46.428 sec
 * total energy  : -5104.0560748 Eh     change    :  -0.1216954E-04 Eh
   gradient norm :     0.0036125 Eh/a0  converged?    E=F G=F D=F
   time step     :     0.2947435 fs     power     :   0.4352140E-09
   step length   :     0.0039734 a0     speed     :   0.3260861E-03
 * RMSD in coord.:     0.0013454 a0     energy gain  -0.8647602E-03 Eh

........................................................................
.............................. CYCLE   21 ..............................
........................................................................

 iter      E             dE          RMSdq      gap      omega  full diag
   1  -5198.5792938 -0.519858E+04  0.296E-04    4.03       0.0  T
   2  -5198.5792938 -0.131758E-07  0.204E-04    4.03       7.9  T
   3  -5198.5792938  0.480686E-07  0.895E-05    4.03      18.0  T
     SCC iter.                  ...       10 min, 36.627 sec
     gradient                   ...        4 min, 47.469 sec
 * total energy  : -5104.0560824 Eh     change    :  -0.7619371E-05 Eh
   gradient norm :     0.0033778 Eh/a0  converged?    E=F G=F D=F
   time step     :     0.2500000 fs     power     :   0.3142051E-09
   step length   :     0.0034268 a0     speed     :   0.3315636E-03

........................................................................
.............................. CYCLE   22 ..............................
........................................................................

 iter      E             dE          RMSdq      gap      omega  full diag
   1  -5198.5776610 -0.519858E+04  0.282E-04    4.03       0.0  T
   2  -5198.5776610 -0.105019E-07  0.192E-04    4.03       8.4  T
   3  -5198.5776610  0.442105E-07  0.851E-05    4.03      18.9  T
     SCC iter.                  ...       10 min, 35.093 sec
     gradient                   ...        4 min, 45.616 sec
 * total energy  : -5104.0560881 Eh     change    :  -0.5696063E-05 Eh
   gradient norm :     0.0034058 Eh/a0  converged?    E=F G=F D=F
   time step     :     0.2500000 fs     power     :   0.2271398E-09
   step length   :     0.0033926 a0     speed     :   0.3282503E-03

........................................................................
.............................. CYCLE   23 ..............................
........................................................................

 iter      E             dE          RMSdq      gap      omega  full diag
   1  -5198.5760649 -0.519858E+04  0.266E-04    4.03       0.0  T
   2  -5198.5760649 -0.736600E-08  0.176E-04    4.03       9.1  T
   3  -5198.5760649  0.328673E-07  0.741E-05    4.03      21.7  T
     SCC iter.                  ...       10 min, 36.049 sec
     gradient                   ...        4 min, 48.009 sec
 * total energy  : -5104.0560927 Eh     change    :  -0.4564405E-05 Eh
   gradient norm :     0.0035645 Eh/a0  converged?    E=T G=F D=F
   time step     :     0.2500000 fs     power     :   0.1843365E-09
   step length   :     0.0032912 a0     speed     :   0.3184381E-03

........................................................................
.............................. CYCLE   24 ..............................
........................................................................

 iter      E             dE          RMSdq      gap      omega  full diag
   1  -5198.5745642 -0.519857E+04  0.249E-04    4.03       0.0  T
   2  -5198.5745642 -0.488126E-08  0.159E-04    4.03      10.1  T
   3  -5198.5745642  0.178807E-07  0.567E-05    4.03      28.4  T
     SCC iter.                  ...       10 min, 32.957 sec
     gradient                   ...        4 min, 47.588 sec
 * total energy  : -5104.0560969 Eh     change    :  -0.4260949E-05 Eh
   gradient norm :     0.0037291 Eh/a0  converged?    E=T G=F D=F
   time step     :     0.2500000 fs     power     :   0.1819299E-09
   step length   :     0.0031633 a0     speed     :   0.3060696E-03

........................................................................
.............................. CYCLE   25 ..............................
........................................................................

 iter      E             dE          RMSdq      gap      omega  full diag
   1  -5198.5732032 -0.519857E+04  0.236E-04    4.03       0.0  T
   2  -5198.5732032 -0.315777E-08  0.144E-04    4.03      11.1  T
   3  -5198.5732032  0.545060E-08  0.354E-05    4.03      45.4  T
     SCC iter.                  ...       10 min, 36.222 sec
     gradient                   ...        4 min, 47.138 sec
 * total energy  : -5104.0561014 Eh     change    :  -0.4505232E-05 Eh
   gradient norm :     0.0038249 Eh/a0  converged?    E=T G=F D=F
   time step     :     0.2500000 fs     power     :   0.2074071E-09
   step length   :     0.0030457 a0     speed     :   0.2946893E-03

........................................................................
.............................. CYCLE   26 ..............................
........................................................................

 iter      E             dE          RMSdq      gap      omega  full diag
   1  -5198.5718947 -0.519857E+04  0.252E-04    4.03       0.0  T
   2  -5198.5718947 -0.293130E-08  0.150E-04    4.03      10.7  T
   3  -5198.5718947  0.199452E-08  0.266E-05    4.03      60.5  T
     SCC iter.                  ...       10 min, 37.138 sec
     gradient                   ...        4 min, 46.477 sec
 * total energy  : -5104.0561071 Eh     change    :  -0.5635229E-05 Eh
   gradient norm :     0.0038148 Eh/a0  converged?    E=F G=F D=F
   time step     :     0.2750000 fs     power     :   0.2456490E-09
   step length   :     0.0032689 a0     speed     :   0.2875290E-03

........................................................................
.............................. CYCLE   27 ..............................
........................................................................

 iter      E             dE          RMSdq      gap      omega  full diag
   1  -5198.5706952 -0.519857E+04  0.276E-04    4.03       0.0  T
   2  -5198.5706952 -0.328055E-08  0.163E-04    4.03       9.9  T
   3  -5198.5706952  0.400723E-08  0.332E-05    4.03      48.4  T
     SCC iter.                  ...       10 min, 36.038 sec
     gradient                   ...        4 min, 46.499 sec
 * total energy  : -5104.0561141 Eh     change    :  -0.7028601E-05 Eh
   gradient norm :     0.0036727 Eh/a0  converged?    E=F G=F D=F
   time step     :     0.3025000 fs     power     :   0.2837107E-09
   step length   :     0.0035736 a0     speed     :   0.2857550E-03

........................................................................
.............................. CYCLE   28 ..............................
........................................................................

 iter      E             dE          RMSdq      gap      omega  full diag
   1  -5198.5696735 -0.519857E+04  0.312E-04    4.03       0.0  T
   2  -5198.5696735 -0.494401E-08  0.184E-04    4.03       8.7  T
   3  -5198.5696735  0.139289E-07  0.549E-05    4.03      29.3  T
     SCC iter.                  ...       10 min, 37.318 sec
     gradient                   ...        4 min, 45.859 sec
 * total energy  : -5104.0561225 Eh     change    :  -0.8427238E-05 Eh
   gradient norm :     0.0033983 Eh/a0  converged?    E=F G=F D=F
   time step     :     0.3327500 fs     power     :   0.3085502E-09
   step length   :     0.0039797 a0     speed     :   0.2892998E-03

........................................................................
.............................. CYCLE   29 ..............................
........................................................................

 iter      E             dE          RMSdq      gap      omega  full diag
   1  -5198.5689135 -0.519857E+04  0.357E-04    4.03       0.0  T
   2  -5198.5689135 -0.742966E-08  0.214E-04    4.03       7.5  T
   3  -5198.5689135  0.347391E-07  0.844E-05    4.03      19.1  T
     SCC iter.                  ...       10 min, 35.631 sec
     gradient                   ...        4 min, 45.397 sec
 * total energy  : -5104.0561321 Eh     change    :  -0.9548148E-05 Eh
   gradient norm :     0.0030326 Eh/a0  converged?    E=F G=F D=F
   time step     :     0.3660250 fs     power     :   0.3094354E-09
   step length   :     0.0044947 a0     speed     :   0.2970359E-03

........................................................................
.............................. CYCLE   30 ..............................
........................................................................

 iter      E             dE          RMSdq      gap      omega  full diag
   1  -5198.5685130 -0.519857E+04  0.406E-04    4.03       0.0  T
   2  -5198.5685130 -0.108384E-07  0.246E-04    4.03       6.5  T
   3  -5198.5685129  0.604196E-07  0.111E-04    4.03      14.6  T
     SCC iter.                  ...       10 min, 36.113 sec
     gradient                   ...        4 min, 45.898 sec
 * total energy  : -5104.0561420 Eh     change    :  -0.9878448E-05 Eh
   gradient norm :     0.0026774 Eh/a0  converged?    E=F G=F D=F
   time step     :     0.4026275 fs     power     :   0.2828893E-09
   step length   :     0.0051077 a0     speed     :   0.3068574E-03

........................................................................
.............................. CYCLE   31 ..............................
........................................................................

 iter      E             dE          RMSdq      gap      omega  full diag
   1  -5198.5685669 -0.519857E+04  0.449E-04    4.03       0.0  T
   2  -5198.5685669 -0.127566E-07  0.275E-04    4.03       5.8  T
   3  -5198.5685668  0.806431E-07  0.127E-04    4.03      12.7  T
     SCC iter.                  ...       10 min, 36.755 sec
     gradient                   ...        4 min, 50.195 sec
 * total energy  : -5104.0561516 Eh     change    :  -0.9605286E-05 Eh
   gradient norm :     0.0024713 Eh/a0  converged?    E=F G=F D=F
   time step     :     0.4428903 fs     power     :   0.2381214E-09
   step length   :     0.0057841 a0     speed     :   0.3159020E-03

........................................................................
.............................. CYCLE   32 ..............................
........................................................................

 iter      E             dE          RMSdq      gap      omega  full diag
   1  -5198.5691213 -0.519857E+04  0.477E-04    4.03       0.0  T
   2  -5198.5691213 -0.128302E-07  0.291E-04    4.03       5.5  T
   3  -5198.5691212  0.835407E-07  0.127E-04    4.03      12.7  T
     SCC iter.                  ...       10 min, 38.794 sec
     gradient                   ...        4 min, 45.384 sec
 * total energy  : -5104.0561605 Eh     change    :  -0.8940293E-05 Eh
   gradient norm :     0.0024588 Eh/a0  converged?    E=F G=F D=F
   time step     :     0.4871793 fs     power     :   0.1954978E-09
   step length   :     0.0064731 a0     speed     :   0.3213956E-03

........................................................................
.............................. CYCLE   33 ..............................
........................................................................

 iter      E             dE          RMSdq      gap      omega  full diag
   1  -5198.5701238 -0.519857E+04  0.485E-04    4.03       0.0  T
   2  -5198.5701238 -0.118425E-07  0.292E-04    4.03       5.5  T
   3  -5198.5701238  0.552636E-07  0.103E-04    4.03      15.7  T
     SCC iter.                  ...       10 min, 37.917 sec
     gradient                   ...        4 min, 48.017 sec
 * total energy  : -5104.0561692 Eh     change    :  -0.8684550E-05 Eh
   gradient norm :     0.0025350 Eh/a0  converged?    E=F G=F D=F
   time step     :     0.5358972 fs     power     :   0.1723730E-09
   step length   :     0.0071532 a0     speed     :   0.3228728E-03

........................................................................
.............................. CYCLE   34 ..............................
........................................................................

 iter      E             dE          RMSdq      gap      omega  full diag
   1  -5198.5714189 -0.519857E+04  0.476E-04    4.03       0.0  T
   2  -5198.5714189 -0.119435E-07  0.284E-04    4.03       5.7  T
   3  -5198.5714189  0.124273E-07  0.568E-05    4.03      28.3  T
     SCC iter.                  ...       10 min, 35.987 sec
     gradient                   ...        4 min, 47.298 sec
 * total energy  : -5104.0561785 Eh     change    :  -0.9296235E-05 Eh
   gradient norm :     0.0025921 Eh/a0  converged?    E=F G=F D=F
   time step     :     0.5894869 fs     power     :   0.1719121E-09
   step length   :     0.0078698 a0     speed     :   0.3229270E-03

........................................................................
.............................. CYCLE   35 ..............................
........................................................................

 iter      E             dE          RMSdq      gap      omega  full diag
   1  -5198.5727686 -0.519857E+04  0.457E-04    4.03       0.0  T
   2  -5198.5727686 -0.117589E-07  0.277E-04    4.03       5.8  T
   3  -5198.5727686  0.175514E-07  0.626E-05    4.03      25.7  T
     SCC iter.                  ...       10 min, 37.808 sec
     gradient                   ...        4 min, 46.555 sec
 * total energy  : -5104.0561892 Eh     change    :  -0.1068877E-04 Eh
   gradient norm :     0.0025664 Eh/a0  converged?    E=F G=F D=F
   time step     :     0.6484356 fs     power     :   0.1866412E-09
   step length   :     0.0087083 a0     speed     :   0.3248509E-03

........................................................................
.............................. CYCLE   36 ..............................
........................................................................

 iter      E             dE          RMSdq      gap      omega  full diag
   1  -5198.5738814 -0.519857E+04  0.448E-04    4.03       0.0  T
   2  -5198.5738814 -0.100108E-07  0.276E-04    4.03       5.8  T
   3  -5198.5738814  0.285627E-07  0.745E-05    4.03      21.6  T
     SCC iter.                  ...       10 min, 36.452 sec
     gradient                   ...        4 min, 47.689 sec
 * total energy  : -5104.0562018 Eh     change    :  -0.1263150E-04 Eh
   gradient norm :     0.0024219 Eh/a0  converged?    E=F G=F D=F
   time step     :     0.7132792 fs     power     :   0.2016144E-09
   step length   :     0.0097545 a0     speed     :   0.3307968E-03

........................................................................
.............................. CYCLE   37 ..............................
........................................................................

 iter      E             dE          RMSdq      gap      omega  full diag
   1  -5198.5744729 -0.519857E+04  0.451E-04    4.03       0.0  T
   2  -5198.5744729 -0.118080E-07  0.287E-04    4.03       5.6  T
   3  -5198.5744729  0.680793E-07  0.107E-04    4.03      15.0  T
     SCC iter.                  ...       10 min, 35.690 sec
     gradient                   ...        4 min, 45.023 sec
 * total energy  : -5104.0562161 Eh     change    :  -0.1428150E-04 Eh
   gradient norm :     0.0023273 Eh/a0  converged?    E=F G=F D=F
   time step     :     0.7846071 fs     power     :   0.2043098E-09
   step length   :     0.0110518 a0     speed     :   0.3407178E-03

........................................................................
.............................. CYCLE   38 ..............................
........................................................................

 iter      E             dE          RMSdq      gap      omega  full diag
   1  -5198.5743726 -0.519857E+04  0.478E-04    4.03       0.0  T
   2  -5198.5743727 -0.165010E-07  0.299E-04    4.03       5.4  T
   3  -5198.5743726  0.579466E-07  0.102E-04    4.03      15.7  T
     SCC iter.                  ...       10 min, 36.421 sec
     gradient                   ...        4 min, 46.515 sec
 * total energy  : -5104.0562323 Eh     change    :  -0.1616202E-04 Eh
   gradient norm :     0.0024457 Eh/a0  converged?    E=F G=F D=F
   time step     :     0.8630678 fs     power     :   0.2142356E-09
   step length   :     0.0125773 a0     speed     :   0.3524998E-03

........................................................................
.............................. CYCLE   39 ..............................
........................................................................

 iter      E             dE          RMSdq      gap      omega  full diag
   1  -5198.5737434 -0.519857E+04  0.548E-04    4.03       0.0  T
   2  -5198.5737434 -0.174987E-07  0.331E-04    4.03       4.9  T
   3  -5198.5737434  0.264554E-07  0.785E-05    4.03      20.5  T
     SCC iter.                  ...       10 min, 36.571 sec
     gradient                   ...        4 min, 52.365 sec
 * total energy  : -5104.0562523 Eh     change    :  -0.2006268E-04 Eh
   gradient norm :     0.0024131 Eh/a0  converged?    E=F G=F D=F
   time step     :     0.9493746 fs     power     :   0.2517625E-09
   step length   :     0.0144072 a0     speed     :   0.3670773E-03

........................................................................
.............................. CYCLE   40 ..............................
........................................................................

 iter      E             dE          RMSdq      gap      omega  full diag
   1  -5198.5731897 -0.519857E+04  0.637E-04    4.03       0.0  T
   2  -5198.5731897 -0.179489E-07  0.386E-04    4.03       4.2  T
   3  -5198.5731897  0.489672E-07  0.100E-04    4.03      16.1  T
     SCC iter.                  ...       10 min, 35.725 sec
     gradient                   ...        4 min, 46.381 sec
 * total energy  : -5104.0562768 Eh     change    :  -0.2452208E-04 Eh
   gradient norm :     0.0021330 Eh/a0  converged?    E=F G=F D=F
   time step     :     1.0443120 fs     power     :   0.2742665E-09
   step length   :     0.0167880 a0     speed     :   0.3888515E-03

........................................................................
.............................. CYCLE   41 ..............................
........................................................................

 iter      E             dE          RMSdq      gap      omega  full diag
   1  -5198.5736482 -0.519857E+04  0.688E-04    4.03       0.0  T
   2  -5198.5736482 -0.239434E-07  0.422E-04    4.03       3.8  T
   3  -5198.5736482  0.740620E-07  0.119E-04    4.03      13.5  T
     SCC iter.                  ...       10 min, 39.439 sec
     gradient                   ...        4 min, 45.278 sec
 * total energy  : -5104.0563035 Eh     change    :  -0.2666286E-04 Eh
   gradient norm :     0.0021718 Eh/a0  converged?    E=F G=F D=F
   time step     :     1.1487432 fs     power     :   0.2619549E-09
   step length   :     0.0197173 a0     speed     :   0.4151834E-03

........................................................................
.............................. CYCLE   42 ..............................
........................................................................

 iter      E             dE          RMSdq      gap      omega  full diag
   1  -5198.5754081 -0.519858E+04  0.738E-04    4.03       0.0  T
   2  -5198.5754081 -0.182481E-07  0.439E-04    4.03       3.7  T
   3  -5198.5754081  0.202072E-07  0.745E-05    4.03      21.6  T
     SCC iter.                  ...       10 min, 34.792 sec
     gradient                   ...        4 min, 46.591 sec
 * total energy  : -5104.0563344 Eh     change    :  -0.3089099E-04 Eh
   gradient norm :     0.0023345 Eh/a0  converged?    E=F G=F D=F
   time step     :     1.2500000 fs     power     :   0.2971391E-09
   step length   :     0.0226823 a0     speed     :   0.4389262E-03
 * RMSD in coord.:     0.0025150 a0     energy gain  -0.2595925E-03 Eh

........................................................................
.............................. CYCLE   43 ..............................
........................................................................

 iter      E             dE          RMSdq      gap      omega  full diag
   1  -5198.5757424 -0.519858E+04  0.143E-04    4.03       0.0  T
   2  -5198.5757424 -0.802174E-09  0.840E-05    4.03      19.2  T
   3  -5198.5757424  0.306227E-08  0.260E-05    4.03      61.9  T
     SCC iter.                  ...       10 min, 35.234 sec
     gradient                   ...        4 min, 48.375 sec
 * total energy  : -5104.0563407 Eh     change    :  -0.6344224E-05 Eh
   gradient norm :     0.0022760 Eh/a0  converged?    E=F G=F D=F
   time step     :     0.2500000 fs     power     :   0.3323143E-09
   step length   :     0.0044234 a0     speed     :   0.4279884E-03

........................................................................
.............................. CYCLE   44 ..............................
........................................................................

 iter      E             dE          RMSdq      gap      omega  full diag
   1  -5198.5760404 -0.519858E+04  0.149E-04    4.03       0.0  T
   2  -5198.5760404 -0.912223E-09  0.892E-05    4.03      18.0  T
   3  -5198.5760404  0.282580E-08  0.257E-05    4.03      62.5  T
     SCC iter.                  ...       10 min, 36.859 sec
     gradient                   ...        4 min, 48.427 sec
 * total energy  : -5104.0563476 Eh     change    :  -0.6824348E-05 Eh
   gradient norm :     0.0020765 Eh/a0  converged?    E=F G=F D=F
   time step     :     0.2500000 fs     power     :   0.3539941E-09
   step length   :     0.0043624 a0     speed     :   0.4220903E-03

........................................................................
.............................. CYCLE   45 ..............................
........................................................................

 iter      E             dE          RMSdq      gap      omega  full diag
   1  -5198.5762905 -0.519858E+04  0.165E-04    4.03       0.0  T
   2  -5198.5762905 -0.184718E-08  0.995E-05    4.03      16.2  T
   3  -5198.5762905  0.445834E-08  0.310E-05    4.03      51.9  T
     SCC iter.                  ...       10 min, 32.922 sec
     gradient                   ...        4 min, 48.204 sec
 * total energy  : -5104.0563545 Eh     change    :  -0.6911665E-05 Eh
   gradient norm :     0.0018116 Eh/a0  converged?    E=F G=F D=F
   time step     :     0.2500000 fs     power     :   0.3544013E-09
   step length   :     0.0043534 a0     speed     :   0.4212126E-03

........................................................................
.............................. CYCLE   46 ..............................
........................................................................

 iter      E             dE          RMSdq      gap      omega  full diag
   1  -5198.5764867 -0.519858E+04  0.179E-04    4.03       0.0  T
   2  -5198.5764867 -0.225646E-08  0.109E-04    4.03      14.8  T
   3  -5198.5764867  0.526234E-08  0.331E-05    4.03      48.7  T
     SCC iter.                  ...       10 min, 35.512 sec
     gradient                   ...        4 min, 47.642 sec
 * total energy  : -5104.0563611 Eh     change    :  -0.6659003E-05 Eh
   gradient norm :     0.0015923 Eh/a0  converged?    E=F G=F D=F
   time step     :     0.2500000 fs     power     :   0.3360732E-09
   step length   :     0.0043860 a0     speed     :   0.4243657E-03

........................................................................
.............................. CYCLE   47 ..............................
........................................................................

 iter      E             dE          RMSdq      gap      omega  full diag
   1  -5198.5766308 -0.519858E+04  0.185E-04    4.03       0.0  T
   2  -5198.5766308 -0.212276E-08  0.113E-04    4.03      14.3  T
   3  -5198.5766308  0.496493E-08  0.319E-05    4.03      50.4  T
     SCC iter.                  ...       10 min, 36.778 sec
     gradient                   ...        4 min, 46.034 sec
 * total energy  : -5104.0563673 Eh     change    :  -0.6175044E-05 Eh
   gradient norm :     0.0015181 Eh/a0  converged?    E=F G=F D=F
   time step     :     0.2500000 fs     power     :   0.3108049E-09
   step length   :     0.0044353 a0     speed     :   0.4291377E-03

........................................................................
.............................. CYCLE   48 ..............................
........................................................................

 iter      E             dE          RMSdq      gap      omega  full diag
   1  -5198.5767420 -0.519858E+04  0.198E-04    4.03       0.0  T
   2  -5198.5767420 -0.198816E-08  0.120E-04    4.03      13.4  T
   3  -5198.5767420  0.497676E-08  0.310E-05    4.03      51.8  T
     SCC iter.                  ...       10 min, 37.173 sec
     gradient                   ...        4 min, 47.645 sec
 * total energy  : -5104.0563737 Eh     change    :  -0.6362670E-05 Eh
   gradient norm :     0.0015914 Eh/a0  converged?    E=F G=F D=F
   time step     :     0.2750000 fs     power     :   0.2909530E-09
   step length   :     0.0049176 a0     speed     :   0.4325520E-03

........................................................................
.............................. CYCLE   49 ..............................
........................................................................

 iter      E             dE          RMSdq      gap      omega  full diag
   1  -5198.5768290 -0.519858E+04  0.198E-04    4.03       0.0  T
   2  -5198.5768290 -0.161890E-08  0.119E-04    4.03      13.5  T
   3  -5198.5768290  0.335149E-08  0.260E-05    4.03      61.8  T
     SCC iter.                  ...       10 min, 34.826 sec
     gradient                   ...        4 min, 46.355 sec
 * total energy  : -5104.0563805 Eh     change    :  -0.6794983E-05 Eh
   gradient norm :     0.0017214 Eh/a0  converged?    E=F G=F D=F
   time step     :     0.3025000 fs     power     :   0.2869771E-09
   step length   :     0.0054087 a0     speed     :   0.4324942E-03

........................................................................
.............................. CYCLE   50 ..............................
........................................................................

 iter      E             dE          RMSdq      gap      omega  full diag
   1  -5198.5768980 -0.519858E+04  0.193E-04    4.03       0.0  T
   2  -5198.5768980 -0.115688E-08  0.114E-04    4.03      14.1  T
   3  -5198.5768980  0.163436E-08  0.195E-05    4.03      82.5  T
     SCC iter.                  ...       10 min, 35.738 sec
     gradient                   ...        4 min, 49.871 sec
 * total energy  : -5104.0563881 Eh     change    :  -0.7672436E-05 Eh
   gradient norm :     0.0017981 Eh/a0  converged?    E=F G=F D=F
   time step     :     0.3327500 fs     power     :   0.2981972E-09
   step length   :     0.0059266 a0     speed     :   0.4308234E-03

........................................................................
.............................. CYCLE   51 ..............................
........................................................................

 iter      E             dE          RMSdq      gap      omega  full diag
   1  -5198.5769451 -0.519858E+04  0.192E-04    4.03       0.0  T
   2  -5198.5769451 -0.811269E-09  0.114E-04    4.03      14.1  T
   3  -5198.5769451  0.106047E-08  0.171E-05    4.03      94.1  T
     SCC iter.                  ...       10 min, 38.904 sec
     gradient                   ...        4 min, 48.833 sec
 * total energy  : -5104.0563969 Eh     change    :  -0.8810511E-05 Eh
   gradient norm :     0.0017621 Eh/a0  converged?    E=F G=F D=F
   time step     :     0.3660250 fs     power     :   0.3148978E-09
   step length   :     0.0065178 a0     speed     :   0.4307273E-03

........................................................................
.............................. CYCLE   52 ..............................
........................................................................

 iter      E             dE          RMSdq      gap      omega  full diag
   1  -5198.5769484 -0.519858E+04  0.206E-04    4.03       0.0  T
   2  -5198.5769484 -0.136788E-08  0.123E-04    4.03      13.0  T
   3  -5198.5769484  0.294858E-08  0.249E-05    4.03      64.6  T
     SCC iter.                  ...       10 min, 38.471 sec
     gradient                   ...        4 min, 47.028 sec
 * total energy  : -5104.0564070 Eh     change    :  -0.1006394E-04 Eh
   gradient norm :     0.0016263 Eh/a0  converged?    E=F G=F D=F
   time step     :     0.4026275 fs     power     :   0.3248379E-09
   step length   :     0.0072314 a0     speed     :   0.4344426E-03

........................................................................
.............................. CYCLE   53 ..............................
........................................................................

 iter      E             dE          RMSdq      gap      omega  full diag
   1  -5198.5768637 -0.519858E+04  0.234E-04    4.03       0.0  T
   2  -5198.5768637 -0.242562E-08  0.143E-04    4.03      11.3  T
   3  -5198.5768637  0.769705E-08  0.386E-05    4.03      41.7  T
     SCC iter.                  ...       10 min, 36.335 sec
     gradient                   ...        4 min, 47.583 sec
 * total energy  : -5104.0564180 Eh     change    :  -0.1102844E-04 Eh
   gradient norm :     0.0014991 Eh/a0  converged?    E=F G=F D=F
   time step     :     0.4428903 fs     power     :   0.3217677E-09
   step length   :     0.0081032 a0     speed     :   0.4425625E-03

........................................................................
.............................. CYCLE   54 ..............................
........................................................................

 iter      E             dE          RMSdq      gap      omega  full diag
   1  -5198.5766356 -0.519858E+04  0.264E-04    4.03       0.0  T
   2  -5198.5766356 -0.310320E-08  0.162E-04    4.03       9.9  T
   3  -5198.5766356  0.120126E-07  0.475E-05    4.03      33.9  T
     SCC iter.                  ...       10 min, 34.013 sec
     gradient                   ...        4 min, 46.465 sec
 * total energy  : -5104.0564300 Eh     change    :  -0.1195485E-04 Eh
   gradient norm :     0.0015028 Eh/a0  converged?    E=F G=F D=F
   time step     :     0.4871793 fs     power     :   0.3134301E-09
   step length   :     0.0091276 a0     speed     :   0.4531950E-03

........................................................................
.............................. CYCLE   55 ..............................
........................................................................

 iter      E             dE          RMSdq      gap      omega  full diag
   1  -5198.5762477 -0.519858E+04  0.285E-04    4.03       0.0  T
   2  -5198.5762477 -0.244472E-08  0.173E-04    4.03       9.3  T
   3  -5198.5762477  0.971249E-08  0.436E-05    4.03      36.9  T
     SCC iter.                  ...       10 min, 36.223 sec
     gradient                   ...        4 min, 47.110 sec
 * total energy  : -5104.0564431 Eh     change    :  -0.1308971E-04 Eh
   gradient norm :     0.0015792 Eh/a0  converged?    E=F G=F D=F
   time step     :     0.5358972 fs     power     :   0.3143186E-09
   step length   :     0.0102551 a0     speed     :   0.4628860E-03

........................................................................
.............................. CYCLE   56 ..............................
........................................................................

 iter      E             dE          RMSdq      gap      omega  full diag
   1  -5198.5757753 -0.519858E+04  0.302E-04    4.03       0.0  T
   2  -5198.5757753 -0.242471E-08  0.179E-04    4.03       9.0  T
   3  -5198.5757753  0.381078E-08  0.321E-05    4.03      50.2  T
     SCC iter.                  ...       10 min, 36.804 sec
     gradient                   ...        4 min, 46.795 sec
 * total energy  : -5104.0564580 Eh     change    :  -0.1487152E-04 Eh
   gradient norm :     0.0016106 Eh/a0  converged?    E=F G=F D=F
   time step     :     0.5894869 fs     power     :   0.3267638E-09
   step length   :     0.0114995 a0     speed     :   0.4718689E-03

........................................................................
.............................. CYCLE   57 ..............................
........................................................................

 iter      E             dE          RMSdq      gap      omega  full diag
   1  -5198.5753998 -0.519858E+04  0.327E-04    4.03       0.0  T
   2  -5198.5753998 -0.260206E-08  0.194E-04    4.03       8.3  T
   3  -5198.5753998  0.870932E-08  0.422E-05    4.03      38.1  T
     SCC iter.                  ...       10 min, 38.545 sec
     gradient                   ...        4 min, 47.724 sec
 * total energy  : -5104.0564750 Eh     change    :  -0.1703534E-04 Eh
   gradient norm :     0.0015545 Eh/a0  converged?    E=F G=F D=F
   time step     :     0.6484356 fs     power     :   0.3422566E-09
   step length   :     0.0129451 a0     speed     :   0.4828969E-03

........................................................................
.............................. CYCLE   58 ..............................
........................................................................

 iter      E             dE          RMSdq      gap      omega  full diag
   1  -5198.5753744 -0.519858E+04  0.375E-04    4.03       0.0  T
   2  -5198.5753744 -0.349064E-08  0.226E-04    4.03       7.1  T
   3  -5198.5753744  0.221899E-07  0.629E-05    4.03      25.6  T
     SCC iter.                  ...       10 min, 37.995 sec
     gradient                   ...        4 min, 46.831 sec
 * total energy  : -5104.0564943 Eh     change    :  -0.1932136E-04 Eh
   gradient norm :     0.0014475 Eh/a0  converged?    E=F G=F D=F
   time step     :     0.7132792 fs     power     :   0.3494183E-09
   step length   :     0.0146819 a0     speed     :   0.4978943E-03

........................................................................
.............................. CYCLE   59 ..............................
........................................................................

 iter      E             dE          RMSdq      gap      omega  full diag
   1  -5198.5758847 -0.519858E+04  0.423E-04    4.03       0.0  T
   2  -5198.5758847 -0.472664E-08  0.254E-04    4.03       6.3  T
   3  -5198.5758847  0.222253E-07  0.654E-05    4.03      24.6  T
     SCC iter.                  ...       10 min, 36.654 sec
     gradient                   ...        4 min, 45.820 sec
 * total energy  : -5104.0565157 Eh     change    :  -0.2140859E-04 Eh
   gradient norm :     0.0014988 Eh/a0  converged?    E=F G=F D=F
   time step     :     0.7846071 fs     power     :   0.3510715E-09
   step length   :     0.0167545 a0     speed     :   0.5165280E-03

........................................................................
.............................. CYCLE   60 ..............................
........................................................................

 iter      E             dE          RMSdq      gap      omega  full diag
   1  -5198.5767790 -0.519858E+04  0.454E-04    4.03       0.0  T
   2  -5198.5767790 -0.381624E-08  0.268E-04    4.03       6.0  T
   3  -5198.5767790  0.935324E-08  0.474E-05    4.03      33.9  T
     SCC iter.                  ...       10 min, 36.783 sec
     gradient                   ...        4 min, 46.343 sec
 * total energy  : -5104.0565401 Eh     change    :  -0.2436913E-04 Eh
   gradient norm :     0.0015321 Eh/a0  converged?    E=F G=F D=F
   time step     :     0.8630678 fs     power     :   0.3677431E-09
   step length   :     0.0190718 a0     speed     :   0.5345167E-03

........................................................................
.............................. CYCLE   61 ..............................
........................................................................

 iter      E             dE          RMSdq      gap      omega  full diag
   1  -5198.5776235 -0.519858E+04  0.514E-04    4.03       0.0  T
   2  -5198.5776235 -0.528689E-08  0.305E-04    4.03       5.3  T
   3  -5198.5776235  0.275068E-07  0.723E-05    4.03      22.3  T
     SCC iter.                  ...       10 min, 34.904 sec
     gradient                   ...        4 min, 48.064 sec
 * total energy  : -5104.0565682 Eh     change    :  -0.2807339E-04 Eh
   gradient norm :     0.0014230 Eh/a0  converged?    E=F G=F D=F
   time step     :     0.9493746 fs     power     :   0.3832610E-09
   step length   :     0.0217794 a0     speed     :   0.5549108E-03

........................................................................
.............................. CYCLE   62 ..............................
........................................................................

 iter      E             dE          RMSdq      gap      omega  full diag
   1  -5198.5779696 -0.519858E+04  0.585E-04    4.03       0.0  T
   2  -5198.5779696 -0.810451E-08  0.348E-04    4.03       4.6  T
   3  -5198.5779696  0.294867E-07  0.776E-05    4.03      20.7  T
     SCC iter.                  ...       10 min, 36.663 sec
     gradient                   ...        4 min, 48.490 sec
 * total energy  : -5104.0565997 Eh     change    :  -0.3156941E-04 Eh
   gradient norm :     0.0014727 Eh/a0  converged?    E=F G=F D=F
   time step     :     1.0443120 fs     power     :   0.3883532E-09
   step length   :     0.0250591 a0     speed     :   0.5804316E-03

........................................................................
.............................. CYCLE   63 ..............................
........................................................................

 iter      E             dE          RMSdq      gap      omega  full diag
   1  -5198.5777770 -0.519858E+04  0.637E-04    4.03       0.0  T
   2  -5198.5777770 -0.672753E-08  0.376E-04    4.03       4.3  T
   3  -5198.5777770  0.258251E-07  0.740E-05    4.03      21.8  T
     SCC iter.                  ...       10 min, 37.024 sec
     gradient                   ...        4 min, 45.611 sec
 * total energy  : -5104.0566360 Eh     change    :  -0.3627299E-04 Eh
   gradient norm :     0.0014656 Eh/a0  converged?    E=F G=F D=F
   time step     :     1.1487432 fs     power     :   0.4116861E-09
   step length   :     0.0287629 a0     speed     :   0.6056546E-03

........................................................................
.............................. CYCLE   64 ..............................
........................................................................

 iter      E             dE          RMSdq      gap      omega  full diag
   1  -5198.5774026 -0.519858E+04  0.734E-04    4.03       0.0  T
   2  -5198.5774026 -0.111804E-07  0.438E-04    4.03       3.7  T
   3  -5198.5774025  0.692762E-07  0.113E-04    4.03      14.3  T
     SCC iter.                  ...       10 min, 37.080 sec
     gradient                   ...        4 min, 47.025 sec
 * total energy  : -5104.0566771 Eh     change    :  -0.4112102E-04 Eh
   gradient norm :     0.0013854 Eh/a0  converged?    E=F G=F D=F
   time step     :     1.2500000 fs     power     :   0.4244739E-09
   step length   :     0.0328024 a0     speed     :   0.6347621E-03

........................................................................
.............................. CYCLE   65 ..............................
........................................................................

 iter      E             dE          RMSdq      gap      omega  full diag
   1  -5198.5776237 -0.519858E+04  0.757E-04    4.03       0.0  T
   2  -5198.5776237 -0.117798E-07  0.448E-04    4.03       3.6  T
   3  -5198.5776237  0.364225E-07  0.906E-05    4.03      17.8  T
     SCC iter.                  ...       10 min, 36.156 sec
     gradient                   ...        4 min, 45.595 sec
 * total energy  : -5104.0567194 Eh     change    :  -0.4224932E-04 Eh
   gradient norm :     0.0014848 Eh/a0  converged?    E=F G=F D=F
   time step     :     1.2500000 fs     power     :   0.4371206E-09
   step length   :     0.0343317 a0     speed     :   0.6643559E-03

........................................................................
.............................. CYCLE   66 ..............................
........................................................................

 iter      E             dE          RMSdq      gap      omega  full diag
   1  -5198.5782911 -0.519858E+04  0.801E-04    4.03       0.0  T
   2  -5198.5782911 -0.128421E-07  0.476E-04    4.03       3.4  T
   3  -5198.5782911  0.928749E-07  0.130E-04    4.03      12.4  T
     SCC iter.                  ...       10 min, 33.920 sec
     gradient                   ...        4 min, 49.881 sec
 * total energy  : -5104.0567633 Eh     change    :  -0.4392664E-04 Eh
   gradient norm :     0.0014423 Eh/a0  converged?    E=F G=F D=F
   time step     :     1.2500000 fs     power     :   0.4532058E-09
   step length   :     0.0356621 a0     speed     :   0.6901002E-03

........................................................................
.............................. CYCLE   67 ..............................
........................................................................

 iter      E             dE          RMSdq      gap      omega  full diag
   1  -5198.5785436 -0.519858E+04  0.814E-04    4.03       0.0  T
   2  -5198.5785436 -0.196187E-07  0.480E-04    4.03       3.3  T
   3  -5198.5785435  0.542395E-07  0.120E-04    4.03      13.4  T
     SCC iter.                  ...       10 min, 38.609 sec
     gradient                   ...        4 min, 46.999 sec
 * total energy  : -5104.0568077 Eh     change    :  -0.4441724E-04 Eh
   gradient norm :     0.0016675 Eh/a0  converged?    E=F G=F D=F
   time step     :     1.2500000 fs     power     :   0.4498570E-09
   step length   :     0.0370228 a0     speed     :   0.7164313E-03
 * RMSD in coord.:     0.0058720 a0     energy gain  -0.4733278E-03 Eh

........................................................................
.............................. CYCLE   68 ..............................
........................................................................

 iter      E             dE          RMSdq      gap      omega  full diag
   1  -5198.5785938 -0.519858E+04  0.159E-04    4.03       0.0  T
   2  -5198.5785938 -0.552063E-09  0.935E-05    4.03      17.2  T
   3  -5198.5785938  0.301497E-08  0.270E-05    4.03      59.7  T
     SCC iter.                  ...       10 min, 36.151 sec
     gradient                   ...        4 min, 48.765 sec
 * total energy  : -5104.0568168 Eh     change    :  -0.9096018E-05 Eh
   gradient norm :     0.0015281 Eh/a0  converged?    E=F G=F D=F
   time step     :     0.2500000 fs     power     :   0.4736647E-09
   step length   :     0.0072650 a0     speed     :   0.7029326E-03

........................................................................
.............................. CYCLE   69 ..............................
........................................................................

 iter      E             dE          RMSdq      gap      omega  full diag
   1  -5198.5786526 -0.519858E+04  0.172E-04    4.03       0.0  T
   2  -5198.5786526 -0.270393E-08  0.102E-04    4.03      15.8  T
   3  -5198.5786526  0.276941E-08  0.370E-05    4.03      43.4  T
     SCC iter.                  ...       10 min, 38.810 sec
     gradient                   ...        4 min, 47.021 sec
 * total energy  : -5104.0568259 Eh     change    :  -0.9043416E-05 Eh
   gradient norm :     0.0013160 Eh/a0  converged?    E=F G=F D=F
   time step     :     0.2500000 fs     power     :   0.4678061E-09
   step length   :     0.0072109 a0     speed     :   0.6976915E-03

........................................................................
.............................. CYCLE   70 ..............................
........................................................................

 iter      E             dE          RMSdq      gap      omega  full diag
   1  -5198.5787128 -0.519858E+04  0.174E-04    4.03       0.0  T
   2  -5198.5787128 -0.234468E-08  0.103E-04    4.03      15.5  T
   3  -5198.5787128  0.322416E-08  0.345E-05    4.03      46.6  T
     SCC iter.                  ...       10 min, 36.487 sec
     gradient                   ...        4 min, 48.457 sec
 * total energy  : -5104.0568345 Eh     change    :  -0.8683244E-05 Eh
   gradient norm :     0.0013871 Eh/a0  converged?    E=F G=F D=F
   time step     :     0.2500000 fs     power     :   0.4511199E-09
   step length   :     0.0072372 a0     speed     :   0.7002357E-03

........................................................................
[...]
  3608   6 C     3615   6 C                                       1.5343876
  3615   6 C     3616   6 C                                       1.5370589
  3617   6 C     3618   6 C                                       1.3895558
  3618   6 C     3619   6 C                                       1.3838981
  3619   6 C     3620   6 C                                       1.3838514
  3620   6 C     3621   6 C                                       1.3850119
  3617   6 C     3622   6 C                                       1.3896265
  3621   6 C     3622   6 C                                       1.3832798
  3623   6 C     3624   6 C                                       1.5367118
  3625   6 C     3626   6 C                                       1.3904899
  3626   6 C     3627   6 C                                       1.3832451
  3627   6 C     3628   6 C                                       1.3846511
  3628   6 C     3629   6 C                                       1.3838243
  3625   6 C     3630   6 C                                       1.3893559
  3629   6 C     3630   6 C                                       1.3842359
  3624   6 C     3631   6 C                                       1.5341298
  3631   6 C     3632   6 C                                       1.5321720
  3633   6 C     3634   6 C                                       1.3890419
  3634   6 C     3635   6 C                                       1.3822176
  3635   6 C     3636   6 C                                       1.3828357
  3636   6 C     3637   6 C                                       1.3830601
  3633   6 C     3638   6 C                                       1.3882208
  3637   6 C     3638   6 C                                       1.3823173
  3632   6 C     3639   6 C                                       1.5383506
  3639   6 C     3640   6 C                                       1.5376367
  3641   6 C     3642   6 C                                       1.3903452
  3642   6 C     3643   6 C                                       1.3832561
  3643   6 C     3644   6 C                                       1.3840081
  3644   6 C     3645   6 C                                       1.3834770
  3641   6 C     3646   6 C                                       1.3897139
  3645   6 C     3646   6 C                                       1.3840992
  3640   6 C     3647   6 C                                       1.5351058
  3647   6 C     3648   6 C                                       1.5332700
  3649   6 C     3650   6 C                                       1.3900799
  3650   6 C     3651   6 C                                       1.3831870
  3651   6 C     3652   6 C                                       1.3847233
  3652   6 C     3653   6 C                                       1.3835485
  3649   6 C     3654   6 C                                       1.3888120
  3653   6 C     3654   6 C                                       1.3830356
  3648   6 C     3655   6 C                                       1.5389901
  3655   6 C     3656   6 C                                       1.5373642
  3657   6 C     3658   6 C                                       1.3898742
  3658   6 C     3659   6 C                                       1.3829339
  3659   6 C     3660   6 C                                       1.3845852
  3660   6 C     3661   6 C                                       1.3838051
  3657   6 C     3662   6 C                                       1.3896538
  3661   6 C     3662   6 C                                       1.3835921
  3656   6 C     3663   6 C                                       1.5328125
  3663   6 C     3664   6 C                                       1.5343996
  3665   6 C     3666   6 C                                       1.3882180
  3666   6 C     3667   6 C                                       1.3838337
  3667   6 C     3668   6 C                                       1.3834159
  3668   6 C     3669   6 C                                       1.3844969
  3665   6 C     3670   6 C                                       1.3906724
  3669   6 C     3670   6 C                                       1.3822388
  3671   6 C     3672   6 C                                       1.5329254
  3673   6 C     3674   6 C                                       1.3886115
  3674   6 C     3675   6 C                                       1.3842386
  3675   6 C     3676   6 C                                       1.3834660
  3676   6 C     3677   6 C                                       1.3850419
  3673   6 C     3678   6 C                                       1.3910781
  3677   6 C     3678   6 C                                       1.3827425
  3672   6 C     3679   6 C                                       1.5390360
  3679   6 C     3680   6 C                                       1.5380794
  3681   6 C     3682   6 C                                       1.3907770
  3682   6 C     3683   6 C                                       1.3830048
  3683   6 C     3684   6 C                                       1.3849640
  3684   6 C     3685   6 C                                       1.3832263
  3681   6 C     3686   6 C                                       1.3884611
  3685   6 C     3686   6 C                                       1.3837023
  3680   6 C     3687   6 C                                       1.5352927
  3549   6 C     3689   1 H                                       1.0960399
  3551   6 C     3690   1 H                                       1.0928574
  3551   6 C     3691   1 H                                       1.0919762
  3552   6 C     3692   1 H                                       1.0952452
  3559   6 C     3693   1 H                                       1.0902901
  3559   6 C     3694   1 H                                       1.0916075
  3560   6 C     3695   1 H                                       1.0948598
  3567   6 C     3696   1 H                                       1.0919156
  3567   6 C     3697   1 H                                       1.0928949
  3568   6 C     3698   1 H                                       1.0939126
  3575   6 C     3699   1 H                                       1.0910757
  3576   6 C     3700   1 H                                       1.0949657
  3583   6 C     3701   1 H                                       1.0929614
  3583   6 C     3702   1 H                                       1.0929511
  3584   6 C     3703   1 H                                       1.0944229
  3591   6 C     3704   1 H                                       1.0902469
  3591   6 C     3705   1 H                                       1.0906535
  3592   6 C     3706   1 H                                       1.0955687
  3599   6 C     3707   1 H                                       1.0906623
  3599   6 C     3708   1 H                                       1.0913093
  3600   6 C     3709   1 H                                       1.0941953
  3608   6 C     3710   1 H                                       1.0942667
  3615   6 C     3711   1 H                                       1.0915135
  3615   6 C     3712   1 H                                       1.0928739
  3616   6 C     3713   1 H                                       1.0941669
  3623   6 C     3714   1 H                                       1.0936943
  3623   6 C     3715   1 H                                       1.0926114
  3624   6 C     3716   1 H                                       1.0953669
  3631   6 C     3717   1 H                                       1.0898578
  3631   6 C     3718   1 H                                       1.0903463
  3632   6 C     3719   1 H                                       1.0942350
  3639   6 C     3720   1 H                                       1.0928730
  3639   6 C     3721   1 H                                       1.0933647
  3640   6 C     3722   1 H                                       1.0932155
  3647   6 C     3723   1 H                                       1.0910285
  3647   6 C     3724   1 H                                       1.0910791
  3648   6 C     3725   1 H                                       1.0943666
  3655   6 C     3726   1 H                                       1.0932852
  3655   6 C     3727   1 H                                       1.0928409
  3656   6 C     3728   1 H                                       1.0945162
  3663   6 C     3729   1 H                                       1.0908245
  3663   6 C     3730   1 H                                       1.0911788
  3664   6 C     3731   1 H                                       1.0946978
  3671   6 C     3732   1 H                                       1.0918944
  3671   6 C     3733   1 H                                       1.0908171
  3672   6 C     3734   1 H                                       1.0954739
  3679   6 C     3735   1 H                                       1.0922369
  3679   6 C     3736   1 H                                       1.0923182
  3543   6 C     3737   1 H                                       1.0813441
  3548   6 C     3738   1 H                                       1.0806629
  3547   6 C     3739   1 H                                       1.0802899
  3546   6 C     3740   1 H                                       1.0802137
  3545   6 C     3741   1 H                                       1.0796216
  3554   6 C     3742   1 H                                       1.0813199
  3555   6 C     3743   1 H                                       1.0806436
  3556   6 C     3744   1 H                                       1.0804891
  3557   6 C     3745   1 H                                       1.0804507
  3558   6 C     3746   1 H                                       1.0796699
  3562   6 C     3747   1 H                                       1.0812502
  3563   6 C     3748   1 H                                       1.0806309
  3564   6 C     3749   1 H                                       1.0805128
  3565   6 C     3750   1 H                                       1.0804891
  3566   6 C     3751   1 H                                       1.0813301
  3570   6 C     3752   1 H                                       1.0811145
  3571   6 C     3753   1 H                                       1.0803708
  3572   6 C     3754   1 H                                       1.0799886
  3573   6 C     3755   1 H                                       1.0819006
  3574   6 C     3756   1 H                                       1.0799425
  3575   6 C     3757   1 H                                       1.0904997
  3578   6 C     3758   1 H                                       1.0804036
  3579   6 C     3759   1 H                                       1.0807618
  3580   6 C     3760   1 H                                       1.0797689
  3581   6 C     3761   1 H                                       1.0815360
  3582   6 C     3762   1 H                                       1.0813604
  3586   6 C     3763   1 H                                       1.0791017
  3587   6 C     3764   1 H                                       1.0794063
  3588   6 C     3765   1 H                                       1.0800315
  3589   6 C     3766   1 H                                       1.0806449
  3590   6 C     3767   1 H                                       1.0814278
  3594   6 C     3768   1 H                                       1.0811017
  3595   6 C     3769   1 H                                       1.0806312
  3596   6 C     3770   1 H                                       1.0799986
  3597   6 C     3771   1 H                                       1.0799313
  3598   6 C     3772   1 H                                       1.0802991
  3602   6 C     3773   1 H                                       1.0797810
  3603   6 C     3774   1 H                                       1.0805108
  3604   6 C     3775   1 H                                       1.0800005
  3605   6 C     3776   1 H                                       1.0805224
  3606   6 C     3777   1 H                                       1.0794771
  3607   6 C     3778   1 H                                       1.0918458
  3607   6 C     3779   1 H                                       1.0932423
  3610   6 C     3780   1 H                                       1.0800345
  3611   6 C     3781   1 H                                       1.0815013
  3612   6 C     3782   1 H                                       1.0797398
  3613   6 C     3783   1 H                                       1.0802195
  3614   6 C     3784   1 H                                       1.0807911
  3618   6 C     3785   1 H                                       1.0806335
  3619   6 C     3786   1 H                                       1.0801373
  3620   6 C     3787   1 H                                       1.0808380
  3621   6 C     3788   1 H                                       1.0814585
  3622   6 C     3789   1 H                                       1.0804953
  3626   6 C     3790   1 H                                       1.0800845
  3627   6 C     3791   1 H                                       1.0814988
  3628   6 C     3792   1 H                                       1.0801589
  3629   6 C     3793   1 H                                       1.0799396
  3630   6 C     3794   1 H                                       1.0811246
  3634   6 C     3795   1 H                                       1.0793563
  3635   6 C     3796   1 H                                       1.0791543
  3636   6 C     3797   1 H                                       1.0796980
  3637   6 C     3798   1 H                                       1.0777847
  3638   6 C     3799   1 H                                       1.0817093
  3642   6 C     3800   1 H                                       1.0805706
  3643   6 C     3801   1 H                                       1.0801579
  3644   6 C     3802   1 H                                       1.0798034
  3645   6 C     3803   1 H                                       1.0803615
  3646   6 C     3804   1 H                                       1.0810750
  3650   6 C     3805   1 H                                       1.0802374
  3651   6 C     3806   1 H                                       1.0817932
  3652   6 C     3807   1 H                                       1.0810596
  3653   6 C     3808   1 H                                       1.0801533
  3654   6 C     3809   1 H                                       1.0810028
  3658   6 C     3810   1 H                                       1.0801136
  3659   6 C     3811   1 H                                       1.0804514
  3660   6 C     3812   1 H                                       1.0804957
  3661   6 C     3813   1 H                                       1.0804006
  3662   6 C     3814   1 H                                       1.0810825
  3666   6 C     3815   1 H                                       1.0803068
  3667   6 C     3816   1 H                                       1.0799559
  3668   6 C     3817   1 H                                       1.0803943
  3669   6 C     3818   1 H                                       1.0806276
  3670   6 C     3819   1 H                                       1.0812427
  3674   6 C     3820   1 H                                       1.0812946
  3675   6 C     3821   1 H                                       1.0802494
  3676   6 C     3822   1 H                                       1.0801839
  3677   6 C     3823   1 H                                       1.0805691
  3678   6 C     3824   1 H                                       1.0802462
  3686   6 C     3825   1 H                                       1.0801639
  3685   6 C     3826   1 H                                       1.0788241
  3684   6 C     3827   1 H                                       1.0807834
  3683   6 C     3828   1 H                                       1.0806051
  3682   6 C     3829   1 H                                       1.0800048
  3550   6 C     3830   1 H                                       1.0878275
  3550   6 C     3831   1 H                                       1.0878103
  3550   6 C     3832   1 H                                       1.0879288
  3680   6 C     3833   1 H                                       1.0939127
  3687   6 C     3834   1 H                                       1.0912571
  3687   6 C     3835   1 H                                       1.0919903
  3688   6 C     3836   6 C                                       1.5346463
  3837   6 C     3838   6 C                                       1.3884128
  3838   6 C     3839   6 C                                       1.3836981
  3839   6 C     3840   6 C                                       1.3834745
  3840   6 C     3841   6 C                                       1.3849612
  3837   6 C     3842   6 C                                       1.3906930
  3841   6 C     3842   6 C                                       1.3834670
  3838   6 C     3843   1 H                                       1.0798975
  3839   6 C     3844   1 H                                       1.0806150
  3840   6 C     3845   1 H                                       1.0802440
  3841   6 C     3846   1 H                                       1.0806010
  3842   6 C     3847   1 H                                       1.0808675
  3836   6 C     3848   6 C                                       1.5316155
  3836   6 C     3849   1 H                                       1.0924969
  3836   6 C     3850   1 H                                       1.0922658
  3851   6 C     3852   6 C                                       1.3905352
  3852   6 C     3853   6 C                                       1.3833409
  3853   6 C     3854   6 C                                       1.3847099
  3854   6 C     3855   6 C                                       1.3834262
  3851   6 C     3856   6 C                                       1.3892988
  3855   6 C     3856   6 C                                       1.3838018
  3852   6 C     3857   1 H                                       1.0808221
  3853   6 C     3858   1 H                                       1.0806805
  3854   6 C     3859   1 H                                       1.0804929
  3855   6 C     3860   1 H                                       1.0807670
  3856   6 C     3861   1 H                                       1.0812601
  3688   6 C     3862   1 H                                       1.0946729
  3848   6 C     3863   1 H                                       1.0923452
  3848   6 C     3864   1 H                                       1.0948865

 * 2 distinct bonds (by element types)

   Z      Z             #   av. dist./Å        max./Å        min./Å
   1 H    6 C        1944     1.0851062     1.0979352     1.0774276
   6 C    6 C        1853     1.4191646     1.5408010     1.3810093


optimized geometry written to: xtbopt.xyz


           -------------------------------------------------
          | TOTAL ENERGY            -5104.061385628924 Eh   |
          | GRADIENT NORM               0.000783057215 Eh/α |
          | HOMO-LUMO GAP               4.021706027551 eV   |
           -------------------------------------------------

------------------------------------------------------------------------
 * finished run on 2024/10/08 at 02:01:37.132     
------------------------------------------------------------------------
 total:
 * wall-time:     3 d,  5 h, 30 min, 55.883 sec
 *  cpu-time:    20 d, 19 h, 52 min, 44.388 sec
 * ratio c/w:     6.449 speedup
 SCF:
 * wall-time:     0 d,  0 h, 47 min, 43.545 sec
 *  cpu-time:     0 d,  5 h, 46 min,  5.756 sec
 * ratio c/w:     7.252 speedup
 ANC optimizer:
 * wall-time:     3 d,  4 h, 42 min,  2.377 sec
 *  cpu-time:    20 d, 14 h,  5 min,  7.176 sec
 * ratio c/w:     6.442 speedup

