3864
 energy: -5104.063957618213 gnorm: 0.000819886035 xtb: 6.6.1 (8d0f1dd)
C           30.41468915745981       45.55766257032099       56.93731535842609
C           29.14427600092601       45.68137015326037       57.48670478250806
C           28.13244977749239       46.21003301268014       56.69498906676434
C           28.37992111926862       46.60195718584153       55.39133476550910
C           29.64894727124218       46.47280488768591       54.85558279302968
C           30.66608539060406       45.95337212388632       55.63639932109114
C           28.84349774312246       45.21941502197877       58.89156156533200
C           28.88419820620312       43.68915405660384       58.95004914753354
C           29.80975792359389       45.81790941452543       59.91947507536845
C           29.79770768361603       47.35379788958480       59.91822828975739
C           28.44963627762107       47.87594678208306       60.33995392088784
C           27.64403861611155       48.54266161007673       59.42541944682233
C           26.39496270032675       49.01194704977856       59.79101033147721
C           25.93137478580692       48.82273861105379       61.08139370570258
C           26.72582642877128       48.16070449382830       62.00160414535564
C           27.97302411648692       47.69048847206713       61.63216204469274
C           30.92875124012483       47.87614385489911       60.81236309534674
C           30.97158831282772       49.40753409910807       60.93442817497110
C           30.91182218802292       50.06810669756283       59.58177034515384
C           29.86111057153795       50.92045177783805       59.26691600602694
C           29.77203194574844       51.50082838183530       58.01405316460485
C           30.73652805066203       51.23941668706057       57.05630101402392
C           31.79964041420272       50.40936495165440       57.36617950880489
C           31.88342186903128       49.82897549331719       58.61821987563933
C           32.23700415800531       49.79472153702618       61.71343625756139
C           32.52276734866798       51.30051258858015       61.75391699026655
C           31.33642159829917       52.11973075652205       62.18902785517776
C           30.93378961217497       53.22191700889461       61.44530315307284
C           29.88966137262955       54.02453726524517       61.87083145832275
C           29.22836262392485       53.73352776651761       63.05133437019519
C           29.61093586616660       52.62992825101320       63.79528680660830
C           30.65666632484115       51.83220400616610       63.36714301838753
C           33.70005491750788       51.56241477089075       62.70706894611769
C           34.26971186657958       52.97792887616341       62.56464898871916
C           35.10485283781983       53.09327702110028       61.31287417306588
C           34.76055204135464       53.99695869225410       60.31537143569396
C           35.51980333069960       54.11107223108196       59.16347110442411
C           36.64140514110181       53.31793903975803       58.99333526406843
C           36.99860718941338       52.41349378169875       59.97938688608369
C           36.23609921277181       52.30559387584210       61.12833474609707
C           35.09355846571139       53.37036935817815       63.80117398526578
C           34.22270419956286       53.67801812282831       65.03584437318291
C           34.18298701878074       52.52548890141702       66.00751491244193
C           32.97888925449455       51.90372819211807       66.31548507894266
C           32.93339199215416       50.84278002667580       67.20255177328293
C           34.09373504290068       50.39395029855013       67.80800028360484
C           35.29437635068248       51.02174973415885       67.52709838751545
C           35.33974062709217       52.07652319863197       66.63342327983494
C           34.71771278358463       54.94727112565528       65.75187451105793
C           34.32890305806038       56.22943432064616       64.98832126215414
C           35.31733456241860       57.32502481526621       65.31331246112198
C           36.46687658123086       57.44144073207949       64.53746445552943
C           37.42308974267865       58.40453493377139       64.80557015755403
C           37.24530314534800       59.27961584881081       65.86474723868751
C           36.11496003129164       59.16531643528099       66.65480630888435
C           35.16394944702877       58.19570736287922       66.38529769540763
C           32.86967180769275       56.59212832016680       65.27806888159789
C           32.31698821585929       57.71850774589478       64.38885621738383
C           31.03367022201179       58.23330228325983       64.99188060239268
C           30.96687341277100       59.51777025876207       65.51398930043018
C           29.79757633191157       59.99547436022196       66.07835803596542
C           28.67160789294267       59.19359843444943       66.12351998846005
C           28.72658819590605       57.90909685717446       65.60919340427790
C           29.89842778252407       57.43169018387655       65.05243792667621
C           32.10251681162467       57.23049013658891       62.94816103575040
C           31.30950108353825       58.21773982311986       62.07750992961183
C           30.85363954748036       57.53115216887858       60.81533932981009
C           31.77639710456663       56.99918185734348       59.92164732683806
C           31.36392435433138       56.37645691028224       58.75838548531146
C           30.01294833945518       56.26809292313493       58.47083755973414
C           29.08280542771885       56.79203929920791       59.35164629685008
C           29.50271304771071       57.41921955347336       60.51316769156053
C           32.12895655363198       59.46340215304284       61.72568529083296
C           31.25308044387137       60.56429802706234       61.10543795118016
C           30.58174435580101       61.35761862061430       62.19531210979028
C           31.32001949080524       62.19265634457665       63.02637522541445
C           30.70388541457354       62.91589862951904       64.03039280312238
C           29.33732017324015       62.81030805415539       64.22609734777491
C           28.59344339913188       61.97606034462588       63.41126165352039
C           29.21295394950071       61.25911205735869       62.40301642637500
C           32.08912717496175       61.46050104594296       60.17812634306631
C           32.22351546526850       60.83783398300291       58.77927003945445
C           30.93394712749126       60.99243896738063       58.01177750923415
C           30.47654040166392       62.24967102338786       57.63291762219799
C           29.30302524654112       62.38890840585398       56.91550807016471
C           28.56466103302979       61.27093551823347       56.56477517783624
C           29.01135928828716       60.01522835112432       56.93469013957037
C           30.18846742765755       59.87898019285900       57.64998826858407
C           33.39281186088085       61.44508810090955       57.98123313026250
C           34.67296459361339       60.59891442504416       58.05074082931629
C           35.20503707867744       60.48877330232803       59.45495214304810
C           35.29185664418997       59.24901767218709       60.07577706748787
C           35.74386990458780       59.13645129185723       61.37917576324492
C           36.13094557953298       60.26462361220256       62.08028904466784
C           36.07583768798195       61.50277840163266       61.46305319486736
C           35.61543388745010       61.61300044187682       60.16327630867218
C           35.72527929831424       61.18823591526324       57.10415938098761
C           37.05663356326881       60.42591325152863       57.12198359503974
C           36.88433046991522       58.94966777277972       56.84852109656501
C           37.48709061310410       58.00474696495248       57.66846521178990
C           37.39520342264610       56.65105737300144       57.39375153055352
C           36.67524234891518       56.21352210056651       56.29660031683117
C           36.05144229396665       57.14020421185010       55.47942763708311
C           36.15877937590331       58.49175901075100       55.75262100067780
C           38.01990892009594       61.05623826455103       56.09182236859327
C           39.41712706946364       61.39793819748490       56.63165528451702
C           40.16164697771199       62.12994465282647       55.54313598786558
C           40.48318315280196       63.47339500846245       55.68608862815716
C           41.11558480476899       64.16588399344381       54.66856149744812
C           41.42793777045407       63.52616889276409       53.48262414046643
C           41.11426171833169       62.18676693577582       53.33292215078979
C           40.49282346071512       61.49315155354260       54.35309080814790
C           40.16450845343114       60.14452314333876       57.09670933135759
C           41.60821636389922       60.42823036842910       57.52974878304086
C           41.66603709758831       61.52676219936384       58.56096064143749
C           40.99130285362850       61.41276958614051       59.77143044578650
C           41.05574604669879       62.42107814834620       60.71573490701994
C           41.80278387465323       63.56065023622391       60.46737651884708
C           42.48461530753030       63.68210495841318       59.26887464791869
C           42.41557658325491       62.67209070865096       58.32480132438164
C           42.26618646823935       59.16294654035719       58.10486650948802
C           42.59987576144044       58.09923445601872       57.04609160060050
C           42.65442449428176       56.73706519080007       57.69523194974695
C           41.62285593535780       55.82770718229450       57.49245558855774
C           41.66003220905559       54.56936658963413       58.06610943488468
C           42.73465633833302       54.19862325142242       58.85514534119458
C           43.75532310681508       55.10316780464596       59.08813070029497
C           43.71038556904507       56.36261200979928       58.51715281529233
C           43.90634724074155       58.44224934979947       56.32328482300779
C           44.24000742603290       57.42254310237183       55.22526662741750
C           43.28312323060684       57.57510166012476       54.07237405013180
C           43.36526146320915       58.66028900822877       53.20841679516747
C           42.47687130323927       58.79977115702162       52.15912061862025
C           41.47295082910112       57.86560017782205       51.97521215295692
C           41.36897466767288       56.78398486064251       52.83306883358817
C           42.27713961403724       56.63943166036667       53.86734811397911
C           45.70080222655407       57.56645820198182       54.78641835343915
C           46.08259528938320       56.54606423340550       53.71333076606122
C           45.85889592051474       55.11456803194328       54.13429232556925
C           45.42647060721588       54.18857831384419       53.19272459925985
C           45.28150115286520       52.85186559048836       53.51698915247478
C           45.55203996985311       52.42106065114327       54.80366450087011
C           45.96064221596908       53.33703043055048       55.75705460731651
C           46.12726757264770       54.66747069509723       55.42173660870230
C           47.55397738963447       56.70297633604104       53.29675896971224
C           47.81600430463214       57.96346414643909       52.45217504589215
H           27.83003469163097       45.54624889147551       59.15005681006743
H           29.53496686093725       45.45253722223810       60.91155266197754
H           30.82473701677320       45.47332624219474       59.71233795296418
H           29.99051211228288       47.69467970869371       58.89514104703723
H           30.83682835168515       47.45015049694804       61.81407657939620
H           31.87616536693260       47.52613021687220       60.39555462172863
H           30.09605563345715       49.73593192682224       61.50466338516598
H           32.14751229845342       49.40861343363319       62.73152617804404
H           33.10086732543768       49.30482774001220       61.25673181920585
H           32.81204700625147       51.61980449243941       60.74623239745022
H           34.49134300110870       50.83901638182684       62.49857508279772
H           33.43157889795768       53.67960988118205       62.48013132384452
H           35.79758031208669       52.57301286089813       64.04094815418594
H           35.68549666435556       54.25226022055359       63.54887613475670
H           33.19736198241665       53.85936241928674       64.69658920586386
H           34.29247620432147       54.98941813837781       66.75728677054892
H           35.80336048155075       54.89490512575298       65.85693294255130
H           34.42083007159563       56.01632666571271       63.91893216732480
H           32.25182301084120       55.70311347540290       65.13734072557222
H           32.76474058004485       56.88430714473554       66.32463393752053
H           33.04738017910951       58.53440897153215       64.38315300380147
H           30.42560008406863       58.53762470908359       62.63891796893031
H           32.60911397312600       59.85510301117495       62.62310425412920
H           32.92004996697318       59.18926123600457       61.02776919378647
H           30.47346778748005       60.09378467918084       60.49638239328412
H           31.61159852978816       62.43877806836784       60.09123671643229
H           33.07921126988386       61.60564529617331       60.61163699217253
H           32.41359309479846       59.76623214122061       58.89829964738163
H           33.10217120604302       61.51859884725037       56.92996207630045
H           33.59747001711844       62.45681772223735       58.33490862288253
H           34.42844124494842       59.58992320035767       57.69864067375966
H           35.31631266129046       61.19936087052670       56.09197460782725
H           35.92431882692996       62.22503542242796       57.38396391331097
H           37.48233632075249       60.53948285754537       58.12452125060299
H           38.13176487608710       60.38298453650701       55.24288424433995
H           37.58231176174374       61.98060622779618       55.70640129904891
H           39.30522478545663       62.07192528675286       57.48875485385398
H           39.62708176276188       59.70447398513675       57.93519451093976
H           40.16591047004222       59.40996060025665       56.29020725697627
H           42.17317271381916       60.75685460845540       56.65132912592409
H           43.19122747572855       59.44804688496588       58.61322817803046
H           41.59678027408012       58.72540571597963       58.85066405953587
H           41.79771273307691       58.07835481122639       56.30224778912193
H           43.81912220717451       59.43564214114645       55.87829114405642
H           44.72806668058158       58.47680623129004       57.04144125032761
H           44.11240963897481       56.41914776489246       55.64674322388458
H           45.88234256209828       58.56982779347702       54.39942381128864
H           46.34392537087133       57.44684216963951       55.66010706729784
H           31.22037344141557       45.14637123192517       57.52759812509937
H           31.65911032583534       45.84352993268815       55.22524111990630
H           29.84051086460104       46.77517632710129       53.83717335523482
H           27.58158869441105       47.00719543619407       54.78719005493241
H           27.13799274211284       46.31262016558517       57.10723099532267
H           28.00354589121882       48.69365837558383       58.41726474746510
H           25.78116628214257       49.52735569741859       59.06625200701161
H           24.95630971216876       49.18797864117717       61.36915822709094
H           26.37071724343559       48.00855628059285       63.01097485353609
H           28.57978590109438       47.17353649747782       62.36174752986210
H           29.10222970025945       51.12669334199168       60.00853756584709
H           28.94352900026504       52.15627223983578       57.78593343544811
H           30.66675910091622       51.68767662528114       56.07541859167819
H           32.56996289370388       50.21042552321375       56.63537911091227
H           32.71716244152713       49.18080131535215       58.83860061232377
H           31.43998495715418       53.45365081484534       60.51852770515554
H           29.59540230494045       54.87894997773805       61.27992685660569
H           28.41490752907957       54.36045212573273       63.38694274451345
H           29.09333240699227       52.39221071145880       64.71410214572541
H           30.94549097142241       50.97491515396265       63.95787148749228
H           33.36800795576082       51.40976470435456       63.73519159121673
H           33.88188638668137       54.61528899793863       60.44035802958089
H           35.23479478608517       54.81816238699091       58.39740181650810
H           37.23810726450626       53.40306844847196       58.09642464247720
H           37.87343199447617       51.79027772105250       59.85519063077325
H           36.52717237810486       51.59467165596705       61.88874260686330
H           32.06633150941250       52.25749240175327       65.85480362082573
H           31.98890664238191       50.36811457829383       67.42626539854595
H           34.06148852928514       49.56308494353269       68.49685454418137
H           36.20243101662798       50.69091532521337       68.00993741486204
H           36.28329354534600       52.55766260855560       66.42473021449996
H           36.61735814626138       56.76885014237182       63.70300271545320
H           38.30091095047057       58.47464972861416       64.17796753170482
H           37.97493851271368       60.04921213062483       66.07379069602696
H           35.97439091281924       59.83953251498590       67.48735813168229
H           34.29371430212519       58.12983893076031       67.01997823289386
H           31.83972704786872       60.15436865714553       65.47561952494357
H           29.76586393492973       60.99749408576425       66.47911724699580
H           27.75568178969573       59.56603326899177       66.55816697645122
H           27.85113520315999       57.27619952378240       65.64359697602602
H           29.92719488153861       56.42824003830561       64.65310743511391
H           33.07380053865473       57.04776812608807       62.48609865818553
H           31.56079661580419       56.28048476441339       62.96739124095623
H           32.83304699688145       57.07441108403340       60.13440306532215
H           32.09867978008614       55.98231483740807       58.07098109927248
H           29.68792588354690       55.78329933347570       57.56197251277965
H           28.02714978285676       56.71419099204891       59.13465924930731
H           28.77173415373188       57.82437479249617       61.19938789757815
H           32.38753990997175       62.28081162177033       62.88227724220739
H           31.29168996528355       63.56504393299969       64.66412914011828
H           28.85467757679175       63.37752373067092       65.00878876168180
H           27.52702989633798       61.88572827638668       63.55897792655515
H           28.62465282567008       60.61814927471749       61.76108053220625
H           31.04682568806370       63.12904251943876       57.89638129808596
H           28.96224568114608       63.37318002311508       56.62770801780704
H           27.64790110806038       61.38021881936871       56.00419841091684
H           28.44448998335698       59.13587879305665       56.66507404264873
H           30.53305284823892       58.89412940654275       57.92934890750178
H           35.00467067793649       58.36225052655319       59.52611357593190
H           35.79390756674437       58.16853227770005       61.85489731886351
H           36.47651587244263       60.17478182854416       63.09935048739726
H           36.38726230694198       62.38792881236542       61.99928409584778
H           35.57103520315891       62.58742988758472       59.69843072729407
H           38.03734400004173       58.32641571938097       58.53989856637293
H           37.88883286503052       55.94077824110381       58.04164452629444
H           36.58543030595764       55.16007076263178       56.07722442593966
H           35.48430163587327       56.80070166242334       54.62418943992459
H           35.66473973904125       59.19640106809290       55.10228012619965
H           40.23640493904583       63.98170890063184       56.60792790914444
H           41.36064150571606       65.20973408927308       54.79809860781509
H           41.91618279243590       64.06794487304657       52.68682411636032
H           41.34851691797031       61.66857900719538       52.41485150634943
H           40.26491806866486       60.44674414869445       54.21291049155282
H           40.40991074865798       60.52763726471358       59.98173830068412
H           40.52254532375178       62.31712810735895       61.65000328169249
H           41.85435869831926       64.34833382158706       61.20484104662814
H           43.07056425247888       64.56750924508195       59.06738723167314
H           42.94146561334258       62.77717338414386       57.38590196750286
H           40.78169207032111       56.11003796035188       56.87363162715532
H           40.85531000129083       53.87163335542861       57.88510220043545
H           42.77494955399660       53.21079324505458       59.28998584812206
H           44.59228357662248       54.82344039787542       59.71119174868523
H           44.51217392325226       57.06181196327263       58.70793937703738
H           44.13494201898219       59.40264183724401       53.35443582090254
H           42.57091211957059       59.63450487687776       51.47970257562593
H           40.77699570192286       57.97919911046471       51.15679325564201
H           40.58917360723652       56.04931365101901       52.68936387878788
H           42.21030957285386       55.78979145067725       54.53244583938624
H           46.46491678270217       55.35947606002966       56.17848941814227
H           46.15092355589731       53.01038176148060       56.76703074069965
H           45.45150047356262       51.37904771991786       55.07286843060774
H           44.94645695831405       52.15459619102361       52.76353645698980
H           45.19750803087291       54.51770619281686       52.18828783074546
H           28.61647761494703       43.33923678819215       59.94478213884549
H           28.18378145529339       43.26504224062802       58.23396690167006
H           29.88032445555755       43.32321684396229       58.71141019093053
H           45.45897116258286       56.73175233672317       52.83083527305695
H           48.17505745467658       56.71198942606366       54.19453955610829
H           47.83427071568119       55.81684527576182       52.72312942720313
C           48.77182997788659       57.65236859874630       51.28885226436778
C           48.35392765275560       59.11187256793399       53.26798041139055
C           49.51978302335661       58.99041718093312       54.01327487341166
C           50.00206347515400       60.05270973537411       54.75581651691856
C           49.32464755456873       61.25940240884074       54.76425414667003
C           48.17432770030796       61.40504502565084       54.00867328643137
C           47.70087039557270       60.33826132631377       53.26556615229768
H           50.06531417694881       58.05839132841291       54.00977674717433
H           50.91112414688736       59.93798351068205       55.32566275091911
H           49.69749040628059       62.08371521469744       55.35420565440678
H           47.64170039996762       62.34554698804239       53.99540820493240
H           46.80686090690151       60.46190117355757       52.67063526276255
C           48.05846480116916       56.92328433405461       50.14221765941060
H           49.18493704389913       58.58817475231974       50.90696342301384
H           49.60624101545292       57.04803786205259       51.65051546071951
C           47.06758167080429       57.82694501300588       49.46596624994999
C           47.52237778251470       58.85770834420871       48.65307053291231
C           46.63422162263369       59.71822977900904       48.03885482619157
C           45.27087750985173       59.56378173928447       48.22576680478272
C           44.80656988584272       58.55179718927052       49.04791086226759
C           45.69932089619125       57.68948711004436       49.66190505245737
H           48.58313604801225       58.98585926321492       48.49540262251480
H           47.01753662651832       60.51049299077581       47.41303503978925
H           44.57199455746563       60.22375548470512       47.73289391284690
H           43.74446298000556       58.43860167428959       49.21387256516254
H           45.32433012217190       56.89863153882930       50.29730176826784
H           46.86842336272662       58.28818929528354       52.00828453844801
H           48.80929346053686       56.59728918799145       49.41743037212265
H           47.54759624259056       56.03755872781597       50.52503526879458
C           52.42169032611003       35.62714152477903       44.52655785750568
C           52.94484461424737       36.38110478473457       45.56924997964979
C           52.07012506656844       36.85407516619350       46.54115123969627
C           50.71880818565480       36.56611626904893       46.48787119950787
C           50.21459361268778       35.79380702947233       45.45723833341931
C           51.07097701072966       35.33111518484218       44.47386674845369
C           54.41075537120890       36.73061759963181       45.65663196655725
C           55.32135422275632       35.56046442380540       45.28821708457786
C           54.71825067993239       37.96445813403086       44.78039309645549
C           55.64022055814157       38.98345059812762       45.47125685131883
C           56.25613633886097       39.90755589801975       44.45209251704533
C           55.47857570869618       40.74235699830813       43.65700364444458
C           56.06889385232141       41.62111242350917       42.76631398572645
C           57.44803546702129       41.68334016116281       42.65698124968263
C           58.22830266798106       40.85042055213848       43.43731256604522
C           57.63638931501391       39.96627295923251       44.31950535140797
C           54.87225400804872       39.77552804719027       46.54541399476302
C           55.58310490985808       41.05878616507281       46.99468277320046
C           56.94195703088029       40.80582553035020       47.59994728683175
C           58.06060588348534       41.44738472352378       47.07825079691191
C           59.30787624463765       41.29681347578567       47.65843456597200
C           59.45831595482630       40.49170471261763       48.77400622044708
C           58.35709552696893       39.82948822499248       49.28904696251868
C           57.10989054541395       39.98903228515251       48.71200504263745
C           54.72427514425151       41.85714926047871       47.99449001913764
C           53.49079382072885       42.53040143273569       47.37654358571947
C           52.62967586060255       43.16073542471509       48.44919421350973
C           53.14288171197457       44.00106356270997       49.43052704874439
C           52.30897350186475       44.59707814794479       50.35995594372118
C           50.95155131672890       44.33357383336785       50.35386650658020
C           50.43125757458014       43.46567508392958       49.41183524001551
C           51.26465849253753       42.89934513336904       48.46652670819218
C           53.77063823048414       43.52536525092731       46.22584226186506
C           54.58066944421979       44.79449908597892       46.55147348632292
C           54.14753058078293       45.90953603247543       45.62977884650832
C           53.57208231555620       47.06983222289661       46.13371421884346
C           53.18912680431051       48.09840628380783       45.28866813420220
C           53.37138964822356       47.97651780505460       43.92229553023444
C           53.92417791322307       46.81591893829975       43.40722813131183
C           54.30771941650432       45.79343264074278       44.25387390616250
C           56.10200074940678       44.58689719938564       46.44648480836448
C           56.89176566364991       45.74989062506531       47.06575424951347
C           56.50728122912343       45.91471884464906       48.51554565791150
C           55.88282184301647       47.07277503089961       48.95847585581044
C           55.51323094233983       47.21823773706904       50.28369411691430
C           55.75705085399836       46.19924130803048       51.18566494623554
C           56.39373226911420       45.04525561953134       50.76205556398216
C           56.77189952290264       44.90832313184471       49.43838999325199
C           58.41245783079227       45.51318741561086       46.99130462825830
C           59.12811715221375       45.89966245992974       45.68073528394507
C           60.18749678497240       44.86050902626164       45.39775593477074
C           60.21464669328536       44.16698659264051       44.19668814681915
C           61.17855262092190       43.20206941765922       43.95864348453372
C           62.13099061293360       42.91177132805476       44.91893346125312
C           62.11431962228291       43.60214536208474       46.11902891373806
C           61.15461550417324       44.56830573149375       46.35587784623124
C           59.82084212518234       47.27664902232595       45.74318816921473
C           58.85668648352540       48.47763713741433       45.73351622064204
C           58.44030766964782       48.82457380589983       44.32627800475181
C           57.15644973113394       48.53806701117405       43.87667137677453
C           56.76546015468641       48.85780775930775       42.58799388208060