3536
 energy: -3716.243159636725 gnorm: 0.000672164973 xtb: 6.6.1 (8d0f1dd)
C           45.86109538252482       37.32085396174045       49.25588443907720
C           45.54890105742455       38.69823158216371       48.67593231569055
C           44.12608957917898       38.70767337130697       48.11850248334954
C           46.53274779944149       39.09184535768888       47.56782416929848
C           48.00624849751449       39.17570776324541       47.98074130962517
C           48.22124005858930       40.22553780404176       49.06967942655432
C           48.89658315580022       39.52890631367659       46.78063029013714
C           48.87013323910062       38.55290991600968       45.59847375641284
C           49.16323603600348       37.12169855190321       46.04963016487433
C           49.90394235416059       38.96604595866269       44.54032100975239
C           49.60030403618481       40.25585440974086       43.76351164278007
C           48.43187261423299       40.05126552254451       42.80214844628409
C           50.87738803526462       40.67661360821806       43.02146514465613
C           50.76796767818143       41.89304228529291       42.09133001599857
C           52.10958820235070       42.09358746274035       41.38567586972251
C           50.35579187872744       43.14452333003382       42.87349160996090
C           50.20761444821358       44.43721511502875       42.05738647817408
C           49.93407448334850       45.59572017701086       43.01484271416056
C           49.08812450481705       44.29329031986357       41.01948667133416
C           48.84353371731894       45.50110295559493       40.10415985655073
C           47.55115709332360       45.26878404987294       39.32001441121835
C           50.01662316863606       45.72087869969078       39.14162739836404
C           50.06131493912624       47.11539621278511       38.49712975863002
C           50.84730981818947       47.04845978592646       37.18853878999361
C           50.67242859311248       48.13081648946505       39.47018946810395
C           50.60945586538916       49.59377436966730       38.99688350907375
C           51.96881170926850       50.05912524548213       38.47585317409220
C           50.17129633967289       50.53769965175080       40.12496600864403
C           48.70760716487283       50.40085167830865       40.55485809026578
C           47.77320502297673       50.97791168442959       39.49101266630142
C           48.45601197275312       51.12542747473442       41.88411136050650
C           49.06845656580623       50.49003731392789       43.13757727237215
C           48.37604049963952       49.17318827500121       43.47865275078683
C           48.93998685730024       51.45555750448914       44.32510450180131
C           49.97213759624409       52.59468513483836       44.34310654516207
C           51.30496942700123       52.08392660914298       44.88537206049030
C           49.41181722331046       53.74580014102828       45.19124461479556
C           50.30195263491912       54.97900094119100       45.41441491191720
C           49.90909255500254       55.62882008132552       46.74422163473593
C           50.18177134177459       56.03785662535936       44.30830749259681
C           50.85409136669872       55.73811155048187       42.96032142799837
C           52.37162653906286       55.69520835661516       43.10213260975320
C           50.42390617798548       56.82086211763919       41.95903343916876
C           51.07926333975507       56.78184238005917       40.57125945532015
C           50.65894098078950       58.03677030864084       39.80418201832796
C           50.69715180871694       55.51673247489929       39.79391354425349
C           51.58009535076500       55.22819146067429       38.56818305892047
C           50.81135768438547       54.35607875011677       37.57684645252745
C           52.89816005323653       54.57050716559942       38.99729507145709
C           53.96513841386009       54.47087868094014       37.89054816950332
C           54.04289833012795       53.05923369646186       37.31073818111260
C           55.35094668245551       54.87218249061011       38.41854809513296
C           55.53758966094121       56.38553659581527       38.58237579239678
C           55.86771924395982       57.03018382588832       37.23651868272746
C           56.65212061668394       56.69724023772722       39.59125394702539
C           56.22916141516637       56.57074097841524       41.06168389633296
C           55.36212791018551       57.75841860834730       41.46960907309056
C           57.48502748016769       56.47325504876655       41.93950337947317
C           57.25157831378785       56.39629590544988       43.45599108819660
C           58.59902627975126       56.44659673268168       44.17293161211650
C           56.48695342710815       55.12138858624406       43.82057580782755
C           56.07669346777314       54.95309210717688       45.29127108059171
C           55.34248572670520       53.61912555919164       45.42271979795539
C           55.20617085011134       56.13370507501371       45.73875059581189
C           54.48925999985808       55.99090255348383       47.08769397987363
C           53.56277053065509       57.19013474047561       47.28210751968397
C           55.50612427927313       55.87236495722573       48.22754979256224
C           54.93479305024711       55.88193686272580       49.65252171635198
C           56.09917959008542       55.82273909726562       50.64008606662065
C           53.96581562607444       54.71774239779585       49.87179658010140
C           53.24072325904118       54.68179991419579       51.22408445369403
C           52.45299748232606       53.37419890651252       51.30903373824625
C           52.29330107103338       55.87642076183885       51.42815909738246
C           52.88916624191889       57.05415754253269       52.21030937127247
C           52.99284587018116       56.71200169214810       53.69609496595018
C           52.03652978355896       58.31961013840518       52.04345665574535
C           52.14929426580896       59.01588334265809       50.68217426020836
C           53.50099343551317       59.70415398024159       50.51786787748947
C           51.03027868950624       60.05379842499594       50.51696789686836
C           49.68049147518066       59.46448517184034       50.08583114645847
C           49.69566387150151       59.14878904955773       48.59181144737408
C           48.57111785353099       60.46500750644050       50.42617422793737
C           47.13503172772699       60.03352035195340       50.10251883872976
C           46.20325973922365       61.21448307743676       50.36797473585498
C           46.75011783642231       58.80369428930770       50.93298984452038
C           45.27706351904732       58.37915875419321       50.88714571678242
C           45.08599369309005       57.17613984915820       51.80880714730613
C           44.82114609464885       58.06012231240540       49.46064952679492
C           43.32885355257078       57.75198137796502       49.35736934963725
C           42.86197893979563       57.71476889476113       47.90869096574776
H           46.83004179648565       37.30735626671146       49.74739592180050
H           45.10869503207378       37.04199411268704       49.99064096679029
H           45.86365568518606       36.56976546216457       48.46785056235012
H           43.41666894701165       56.96377576093813       47.34964610394275
H           41.80109844165954       57.47678737127211       47.85464218997571
H           43.02274565605752       58.68025239835896       47.43351789995882
H           45.03505218086216       58.91645885694967       48.81838021661660
H           45.39632434201000       57.21374429246436       49.07634076917032
H           47.35414659944508       57.95585914803571       50.60179494389969
H           47.00808041149535       59.00522766247163       51.97653698204427
H           47.07414360747816       59.78562012752974       49.03877373561201
H           45.18502455966502       60.99686286870324       50.05821295151239
H           46.19608409985367       61.45995773693605       51.42742803470765
H           46.53886514501038       62.08910777017347       49.81453571329776
H           48.62183125079945       60.69646917316114       51.49400552713589
H           48.78479196433619       61.38938927344543       49.88438355218567
H           50.91281076614606       60.58503501763430       51.46467955984482
H           51.32890770438112       60.79220968126216       49.76857747004746
H           44.65999453447883       59.20019011980644       51.26876891650531
H           45.60830734439072       56.31076719944785       51.41012300991540
H           45.48387569757978       57.38670038497246       52.79937993050195
H           44.03489079243892       56.92664780373407       51.91454011417800
H           49.51186371118781       58.53603526549593       50.63952198148375
H           49.70577443122972       60.07136360088058       48.01371825591024
H           50.58215175782583       58.57762328636950       48.32826272344669
H           48.82504561677219       58.56595340852459       48.30249496067682
H           52.05131300598596       58.26895519620838       49.88938007476973
H           53.60944681520792       60.50361506075587       51.24760311473403
H           54.32394944031471       59.00876637400619       50.65289425233691
H           53.58386287491598       60.13166717737057       49.52077182303691
H           50.99214484050504       58.05371160039738       52.22465411319397
H           52.32779842728111       59.03816810187126       52.81244161775040
H           53.89677382003188       57.25933819382970       51.84448501961593
H           53.49925694501236       57.50783619606317       54.23887143510851
H           51.99952287962468       56.58722874801889       54.12159465390040
H           53.54929625052200       55.78995208172851       53.84931344146542
H           51.95056776002079       56.21970143288026       50.45046141138738
H           51.40554248634150       55.53813313935090       51.96873818933844
H           53.98445615397724       54.67039837484050       52.02563177406414
H           53.11377962398799       52.51924773420549       51.17815798119563
H           51.96341084024610       53.27900510573104       52.27507213704684
H           51.69223136297214       53.33624029928605       50.53189704351443
H           53.20305735559164       54.73438110127429       49.09022367924924
H           54.52830471237697       53.78670929011165       49.75609105326166
H           54.40026600194430       56.82270587654062       49.79835447054655
H           56.82094658098401       56.60747551489658       50.42471899091642
H           55.76291272866219       55.95197522526784       51.66550869570753
H           56.61213784853312       54.86741734433556       50.56427609981048
H           56.08163404966699       54.95338972272979       48.09466227951174
H           56.20663484394660       56.70914957134713       48.13960869113490
H           53.86829435452761       55.09148263974016       47.05731056121738
H           54.13506222164935       58.09944101741119       47.44844659686209
H           52.94285356471605       57.33481939562964       46.39953267923141
H           52.90413171800036       57.03803297532686       48.13235187418074
H           55.82786687186369       57.03038124916002       45.78248328918388
H           54.44835589004609       56.29922489941986       44.97041711032969
H           56.97769254571772       54.91011360738632       45.91115014065952
H           55.94306408950666       52.81401826756129       45.00504761098492
H           55.13441478274276       53.37838544314892       46.46057142695271
H           54.39967456743055       53.64818865171898       44.88005001009284
H           55.57451311743993       55.07584191185792       43.22234799076218
H           57.11044576045177       54.26844698770001       43.53796445238736
H           56.67133825810199       57.27070667940554       43.75956256481398
H           59.18318849072625       55.55653212460787       43.94817196037138
H           59.16869027148005       57.31732684020778       43.85344972776695
H           58.46520963731419       56.50762274185895       45.24924675962110
H           58.05597149084925       55.59173299235228       41.63212364855180
H           58.10840775871517       57.34853062253770       41.73153470505108
H           55.64485380043535       55.65208460523384       41.17248920929646
H           54.93141371374661       57.60752407679683       42.45521638742400
H           55.96105603131085       58.66604940986511       41.48479343788145
H           54.54516933413900       57.90492018408962       40.76662880478070
H           57.48854234620222       56.02136997735472       39.39453012956328
H           57.01176032453174       57.71602202901522       39.42503481577079
H           54.59933196477286       56.81948879059026       38.94101777442238
H           56.84104599797358       56.69224636978061       36.88485929775405
H           55.12544254787767       56.77061368453137       36.48487598183848
H           55.89502416412083       58.11453033261143       37.32427747587770
H           55.51351150521482       54.37098053256322       39.37505079350844
H           56.11764301201126       54.50858543301654       37.73027087281455
H           53.69388841103060       55.15515739851286       37.07898665886257
H           54.38841132876137       52.35798431379048       38.06820232180954
H           53.07423787210909       52.72309460908673       36.95269065106648
H           54.73699821582132       53.02785795589237       36.47279699427686
H           53.30781079651190       55.15383383931690       39.82300422768485
H           52.68296787125502       53.57223014278198       39.38531147412753
H           51.81661889362267       56.17440238961287       38.06875701816509
H           49.87909173174324       54.83886158057945       37.28884712589564
H           51.39092834375005       54.18605351618117       36.67308824529420
H           50.57110788005615       53.39249379803642       38.02293171853177
H           50.74740131360571       54.65043142748576       40.45536002868743
H           49.65767046043384       55.61803148453885       39.47252538967189
H           52.16517532137537       56.81568188578163       40.69256118307841
H           50.98305105208028       58.93212378377205       40.33128716162499
H           51.09468746651624       58.05880341961526       38.80829737271081
H           49.57565288637237       58.07469676298498       39.70059069225760
H           49.34051936406133       56.76253572901892       41.82558892652316
H           50.64184029578028       57.79669518568070       42.40271601536093
H           50.50586641940770       54.76776540004354       42.60029846749125
H           52.66255814202025       55.04396123359908       43.92115900513873
H           52.83957293642001       55.31728425078119       42.19701383792208
H           52.75644476406760       56.69386394496727       43.30147149338775
H           49.11917180031136       56.22377864701458       44.13461042198464
H           50.61117009724697       56.97101199262413       44.68567791698138
H           51.34294447373086       54.66324757010476       45.50463042776495
H           50.04319245676167       54.93131173012146       47.56855322567640
H           50.52165412137680       56.50447691933594       46.94182893364199
H           48.86640134868271       55.93981969311629       46.72353211101694
H           48.46916637083626       54.07825653943424       44.74696241469313
H           49.17162122743246       53.32327801435537       46.17187012290121
H           50.12852373241567       52.93871956134313       43.31739969591170
H           52.10462175587681       52.79769300887625       44.71024509915797
H           51.23623948675744       51.90133064772743       45.95599303586779
H           51.58503091953117       51.15423947164633       44.39747921761210
H           47.93085156411329       51.87590509529736       44.30942308190225
H           49.03727988586712       50.89178787833280       45.25594954813785
H           50.12934316811496       50.28701777575874       42.96265047980322
H           48.84207717860770       48.70814848917482       44.34335074787178
H           47.32711505330189       49.34880967637639       43.70348913536478
H           48.43120330758649       48.47027985398480       42.65236438666054
H           48.82671815020517       52.14824198584055       41.78050309928881
H           47.37679478300834       51.18660411349626       42.04345233757648
H           48.46447686869943       49.34063969491557       40.67213098119360
H           47.91802980221928       50.48792885942181       38.53120259528806
H           46.73247518961949       50.84430798114391       39.77964950294214
H           47.95607954281436       52.04316443387481       39.36273937176007
H           50.82257979182540       50.35761138267143       40.98245937425335
H           50.33661156437563       51.57078850513440       39.80607604045650
H           49.88652833318509       49.66976580226834       38.17803980893008
H           52.69169324780535       50.08134122073049       39.28882502584163
H           52.34356294005956       49.39801187990141       37.69943492618773
H           51.89299736350779       51.06108892797837       38.05961874443128
H           50.15040177777988       48.03970776307280       40.42337864746049
H           51.71244346168897       47.85774913461812       39.65013814172286
H           49.03891713286258       47.43268048243684       38.26269403327893
H           51.87941799316707       46.76063195574600       37.37988254838319
H           50.40677489684391       46.31321173833258       36.51736518383660
H           50.84384808189444       48.00829995871515       36.67894104419531
H           50.96018383414837       45.56342583246266       39.66646891537987
H           49.95460246806967       44.96254310544657       38.35674689816941
H           48.70575353821948       46.39436333594096       40.71875899115521
H           47.63342941365320       44.37016541822088       38.71071162374009
H           46.70770343421399       45.14526742497081       39.99550997469495
H           47.33506844926965       46.10720620842478       38.66261061685819
H           49.30313250545767       43.43588591916840       40.37833825166084
H           48.15960334896835       44.07487170932451       41.55553675256343
H           51.15491532974625       44.63872692941568       41.55074148700059
H           50.66612277967103       45.60145582661214       43.81838137570037
H           49.99730665735731       46.55092104682858       42.50201356878955
H           48.94337738552206       45.50652692840958       43.45560136451661
H           49.40288666234857       42.95335131883336       43.37083734082212
H           51.10409308953912       43.31297258775898       43.65228183332488
H           50.01624477420638       41.67283240238233       41.32892820866422
H           52.43442649293837       41.16449211750683       40.92051342168473
H           52.03217382848472       42.84735396082856       40.60652285791558
H           52.87202455901162       42.40575341672294       42.09666602686216
H           51.65410306301897       40.88081730444231       43.76300381958819
H           51.21544524142356       39.82427023165539       42.42476349969864
H           49.33313252999482       41.04141466987630       44.47512423247252
H           48.13773136202904       40.98982359800917       42.34001306876698
H           48.70468815165258       39.34823943170232       42.01718767941905
H           47.56512054312945       39.65687384751504       43.32671113663660
H           50.87060054219987       39.07487311339700       45.03721566192866
H           50.00284866096663       38.15439381408474       43.81395863586434
H           47.87683528964467       38.56834188482553       45.14025803410279
H           50.10148449944276       37.08325876168234       46.59835896320885
H           48.37332686573583       36.74075779872300       46.69133504753155
H           49.24093382574301       36.46040992785714       45.18844579662437
H           48.60539723908643       40.52027858146089       46.42574122466916
H           49.92874978673584       39.59774001718683       47.13514147901545
H           48.32652806185554       38.20765191962168       48.37436504668904
H           47.70125787766980       39.95774843906662       49.98500305302408
H           49.28082140888968       40.31547165824657       49.30081853087024
H           47.85671477434710       41.19628098200026       48.73832077926661
H           46.43028198909901       38.36172967777842       46.76245392022003
H           46.23283685656192       40.06468547627836       47.16679284977702
H           45.59872146024687       39.43709498680207       49.48122256074482
H           43.88511487746968       39.67903953417866       47.69184928204187
H           44.01716208530918       37.95758716296336       47.33726470856782
H           43.40449632519872       38.49072318558954       48.90335861549703
H           43.11055920750101       56.79092559719385       49.82464678856474
H           42.76518478187565       58.51980902190230       49.89296025567541
C           45.50586471739388       47.61026389123627       41.57942913681896
C           44.53515933372795       47.90025248285986       42.72049775119260
C           43.71173897005968       46.65054245750024       43.03081507777767
C           43.60436622988278       49.07191804005229       42.38382803169049
C           44.25277335000951       50.46472181079147       42.42809534555252
C           44.56295377106340       50.87904565858616       43.86450288711374
C           43.30147605678854       51.45937432877651       41.74198564409199
C           43.63991248276463       52.95116856641307       41.87964366360057
C           42.53215559429366       53.77620784304026       41.22620244060189
C           45.00789819494418       53.27798626708298       41.27319405773063
C           45.50015671349538       54.72529708317579       41.44059474108253
C           46.88081485645432       54.84359298258854       40.79529756153470
C           45.53943432342799       55.11766142686984       42.92194889681061
C           46.12460523147507       56.49608390110209       43.26349309983752
C           46.03472132170651       56.68702422493869       44.77797673887373
C           45.38653122763692       57.60567231783739       42.50606508887115
C           45.72021023783778       59.04901076557309       42.91022384183901
C           44.86429634687130       59.99629067705322       42.06906815075005
C           47.21633493493918       59.34072826291141       42.74383606559456
C           47.66834137874762       60.77504287912030       43.06189905299313
C           49.17167220169756       60.88255047686577       42.80621397181216
C           47.32342771029475       61.15206508096856       44.50692760191932
C           47.66526800856227       62.58331212128172       44.94849804931440
C           47.34758283740150       62.71852021225478       46.43785536931566
C           46.89352155714010       63.61639855546118       44.11945549381698
C           47.18463202032981       65.09380443982261       44.42627330770715
C           46.15980183178603       65.95630333034205       43.68772830532093
C           48.61500299481926       65.46315317575605       44.01316309746579
C           49.10038555001439       66.85448027680168       44.44940708276808
C           50.34000476788619       67.23188151629121       43.63799350663906
C           49.41012865883034       66.87276091609984       45.95069028850667
C           49.58321794728447       68.26088204787874       46.58787489596512
C           50.11596432643486       68.08688704313747       48.00955659684403
C           48.25390435709439       69.02818405081962       46.56660623147021
C           48.18722142315732       70.34891647910345       47.34950387538309
C           46.76312638024127       70.89602596097637       47.23763273677906
C           49.22083833986415       71.35728942621697       46.83648829092753
C           49.27611772371082       72.69231832800523       47.59439271817874
C           50.18715338287662       73.65534121960248       46.83068852125754
C           49.75282767059927       72.51812727670578       49.04989078340080
C           48.82189064127752       73.14789233824017       50.09394224868965
C           48.87828285963653       74.67310571581230       50.02582965581706
C           49.18457663216644       72.67372547380299       51.51012598758521
C           48.62546302377756       71.29165428584336       51.87250997367992
C           47.13536196981998       71.38650320739696       52.19774892143886
C           49.37077079645258       70.68437526662326       53.07036581302120
C           50.76795009438963       70.13790624922302       52.75189225517830
C           50.67078671492910       68.84562802517182       51.94255722402978
C           51.55805253443666       69.86190095645085       54.04062794268765
C           52.11110757126414       71.09696351742815       54.76208818068711
C           53.25322503780604       71.72751912698277       53.96476565073606
C           52.62563533195491       70.72284335601876       56.16273979589023
C           51.54632657945884       70.45957163471691       57.21957410944074
C           50.80065254590388       71.74655700225959       57.57539297997830
C           52.14845274175362       69.88040860409929       58.51009650985871
C           52.82467853257251       68.50843443029942       58.40434199224604
C           51.87697535510961       67.46073875996605       57.82188613223489
C           53.29338490285434       68.01884092812725       59.78341638051391
C           54.28275131208819       68.91321103824849       60.53898324328497
C           55.51735009148207       69.22551308898090       59.69248135331604
C           54.73966858948739       68.23473437226968       61.84062131936464
C           53.64079191261399       67.88777231436113       62.85075184445058
C           52.83969384078180       69.12617630341477       63.25285121380507
C           54.23817002532763       67.25628665250298       64.11732979313906
C           54.97715608281638       65.91912903004187       63.94982506938778
C           54.08935432132535       64.88321212492595       63.26525778797218
C           55.42115869962786       65.45068240875581       65.34403063606145
C           56.32120008016280       64.20985763267797       65.40073003040278
C           56.50838902047163       63.80017083983302       66.86221266484300
C           57.68397821419804       64.44005759329360       64.72541990805514
C           57.79566694204077       63.82140081402676       63.32619440670928
C           58.00510617182429       62.31245594592668       63.43246450581988
C           58.95373135240951       64.43832052378357       62.53454848663691
C           58.69320602565212       65.85117071553543       62.00083107126212
C           57.72242603426812       65.80056994542612       60.82410885827424
C           60.00743564599667       66.51067672868801       61.56037758429328
C           60.88428228163919       66.97810247995839       62.73105228432065
C           60.44359078385606       68.37507661753801       63.17499309585907
C           62.38036891584511       67.00388070158782       62.37832088682877
C           63.17497026754302       65.69299744868161       62.53760423988957
C           62.82002760995854       64.64175845152548       61.48979334291871
C           63.06838180570733       65.13568772780218       63.96336405977834
C           64.11254114201530       64.05024549621017       64.29448794494496
C           63.49536058250020       62.65540205910561       64.21249103429849
C           64.70163035581612       64.30088771042435       65.68945616568406
C           65.86126941155750       63.38424084940625       66.09766762422137
C           66.27781246313650       63.70537547755342       67.53389405869966
C           67.06259015672681       63.45006491073088       65.14307955320388
C           67.64627651529696       64.84239814706442       64.91108714182094
C           68.87234796451054       64.78242947967075       64.00669728835949
H           44.96321663058064       47.30042157249463       40.68796721895264
H           46.09406031102806       48.48925485972097       41.33201257558742
H           46.19082924540243       46.81274430423800       41.85898134780577
H           69.27776915998101       65.77873911042158       63.84368582930254
H           69.64961070883062       64.16636690226213       64.45478828166955
H           68.61310834930492       64.35603814632678       63.04032545722328
H           67.85041288704484       62.80683174976187       65.54672796076684
H           66.77193483582506       63.03123518544889       64.17696165831413
H           65.04339569898771       65.33673409180304       65.75091340189550
H           63.90065704883224       64.18438173501261       66.42591920022451
H           64.92257004910405       64.11908585431290       63.56207280746440
H           64.25731263569190       61.88863245252345       64.31835123402259
H           62.76100483817882       62.52028732574247       65.00414044465428
H           62.99862309174297       62.50772356025495       63.25831614903367
H           63.18525357304081       65.97255369894053       64.65652978259249
H           62.07215360598531       64.72139323971115       64.12287440260567
H           62.49310961168575       67.35776002248990       61.34992191964463
H           62.86289963400787       67.74439178799358       63.02352687617164
H           65.50396890750392       62.34841941156090       66.08643491662461
H           66.58703487380654       64.74355026998494       67.62934405128421
H           65.44547763098142       63.54167921629899       68.21600980460882