3536
 energy: -3716.268258984187 gnorm: 0.000671098631 xtb: 6.6.1 (8d0f1dd)
C           59.64494165945595       54.83226088431330       34.59620228702907
C           60.27783861739697       56.17571574900744       34.23547829087855
C           59.47528649147473       56.83985949793135       33.11950483354547
C           61.74191758853129       55.95344118031660       33.83811178212396
C           62.58226596062266       57.22385360719044       33.65120092207950
C           63.93133459916461       56.84065639792426       33.04046439010669
C           62.77657511067655       57.98584855970324       34.97587533446987
C           62.31274244961502       59.44645897078365       34.93600496687554
C           63.26292048641425       60.29160158426475       34.08911589892310
C           62.21948191277186       60.02631624531271       36.35552408758404
C           60.95299269568783       59.61626302173273       37.11606333823952
C           59.73880228661169       60.38037485089090       36.58449877940069
C           61.08085101894243       59.88263604483964       38.62289700249017
C           62.12301445628869       59.05680094059979       39.38880239528015
C           61.94899143243189       57.55750728481088       39.15159996274238
C           62.01706679902767       59.30978136988901       40.90092047303735
C           62.11523065221344       60.76723919013219       41.35801634219633
C           63.46598060083353       61.37369810342097       40.97663069152131
C           61.92808810987505       60.87955298946913       42.87732919492574
C           60.58376069288521       60.39743890252547       43.44396098145611
C           59.39414836072875       60.84617396420788       42.59477239542893
C           60.37051982213665       60.94499593062918       44.86460521239593
C           61.49472484447119       60.69667430216752       45.87428255805715
C           61.70704350506325       59.20163372662756       46.10306228612630
C           61.18976721676323       61.37316264225456       47.22124181879429
C           60.97566215248624       62.89088574422273       47.17155071268758
C           62.17507840853975       63.59803804304760       46.53777148748394
C           60.73778942140566       63.48317396976749       48.56986762812182
C           59.56215242425750       62.90526747854508       49.36822111883509
C           58.26719480039117       62.91474462947547       48.55438905957971
C           59.31773779307571       63.70900229407940       50.65653117309927
C           60.52020344626399       63.90273047567739       51.58649857872164
C           61.17744405462109       62.56631849297182       51.93267107075729
C           60.11736644199078       64.59071176444628       52.90289566362243
C           59.31066597447535       65.88996688646120       52.79891394490756
C           59.98035641279180       66.90619339623797       51.87453289748017
C           59.14315298574964       66.55780498371064       54.17463204905592
C           58.61747757973767       65.69031957266530       55.32431887325825
C           57.26716101264614       65.06455111320237       54.99617293586012
C           58.50372823477589       66.55236351997326       56.59079180619423
C           58.46303962208394       65.74439023626969       57.89377874931844
C           57.88429660991237       66.59766568414186       59.02154958185481
C           59.86799731866336       65.25337117942885       58.25778889309262
C           59.88932759472160       64.12498646903921       59.30320183108833
C           60.87017810469386       64.47029100923156       60.42372749995352
C           60.26201797933197       62.77184036580118       58.68289795149812
C           59.26529404085498       62.20084700632301       57.66110443116146
C           57.98019365738341       61.75578762145037       58.34970500508291
C           59.94759888886910       61.03359704825758       56.92972252243604
C           59.06945733623242       60.14204070128993       56.03759474363430
C           59.94812291214632       59.03236839272184       55.45965720813820
C           58.38735284254737       60.94262884171332       54.92297667833825
C           57.47938697563301       60.14068353334213       53.97388992638837
C           56.98913978535169       61.06894598659658       52.86571057487478
C           56.30606917434368       59.51060800377451       54.73135164816291
C           55.25263820667915       58.75098641289165       53.90517855451760
C           54.18809831021797       58.23667409298847       54.87541422279308
C           55.87128326957243       57.60010024060583       53.10121045458296
C           54.91333031756638       56.85658745761559       52.15265823306906
C           55.54726885945231       55.52489822434627       51.75044815579836
C           54.58400331230771       57.70942799961701       50.91427697546398
C           53.13842258288960       57.66122453925591       50.39140284455252
C           52.14194823485941       58.10389042795340       51.46276501670518
C           52.68445133637253       56.31066812296993       49.82540488291417
C           53.44190025408475       55.77626998456163       48.60275868922306
C           53.44686575664346       56.78739081590152       47.45670799966776
C           52.78786554758597       54.47576652646158       48.10883541382901
C           53.03226253848341       53.24334141370369       48.98920657847156
C           54.41410542535308       52.66065939998609       48.69453499786420
C           51.97193259187245       52.15678221456349       48.75656548793722
C           50.53439282026806       52.52105325839191       49.14197224339333
C           50.41429527430699       52.83129074105115       50.63289389079253
C           49.55757538658993       51.38622497662756       48.80419948838868
C           49.51319708729002       50.91447260143983       47.34379736365592
C           49.40573843454873       52.08732247163378       46.37226104040867
C           48.30839134514956       49.97738810353260       47.17610451922330
C           48.37592356006856       49.05730681079151       45.94699746981400
C           46.96183568331934       48.71540149646965       45.48699331410819
C           49.17824605774333       47.79559272695440       46.28698606302177
C           49.43767077193868       46.80824436784323       45.13933117188808
C           50.00547057050996       45.51597022947450       45.72685330251313
C           50.39620207397926       47.39416427832990       44.09707958152374
C           50.45020785563693       46.63705915717956       42.76211360958647
C           51.70394479005985       47.06079387550396       41.99853377568319
C           49.18741474061302       46.90711642816998       41.93627667900751
C           48.98769614241673       46.01012519886067       40.70870927009592
C           47.74775290750266       46.47632372429801       39.94333308312657
C           48.90189144302776       44.51141345362324       41.03750930319656
C           47.83440622988860       44.12329829070821       42.05871490246263
C           47.71904890380720       42.60878517049905       42.19008710628118
H           58.61876651362450       54.96382812531017       34.93287023522837
H           59.63695859941137       54.17176946837129       33.73119612115377
H           60.20681082113940       54.34547949932001       35.39020324263479
H           47.44132387628487       42.16004638633356       41.23810432204329
H           48.66593260674658       42.17548354724366       42.50506411889409
H           46.96147232508446       42.34180370419655       42.92452439303209
H           48.70275022894822       43.97478671304291       40.10485860056393
H           49.87454883483664       44.16634380250256       41.39668868224654
H           48.30792011954959       46.80757667308453       42.57341549287121
H           49.21938826727744       47.94511024049614       41.59562628537553
H           50.52174827392312       45.56588018027872       42.96785932385645
H           51.68187680232168       48.12989380931997       41.79880027251940
H           52.59619015652325       46.83926347916499       42.58096799103097
H           51.78598199307312       46.53637742278799       41.04984714616649
H           50.11933452923581       48.42771945648204       43.88245089423378
H           51.39803319290179       47.40849828791924       44.53114452308623
H           50.14311481855285       48.09969741450082       46.69937906685660
H           48.64060390470652       47.26179713753816       47.07484078700055
H           49.84777418921060       46.13573528866429       40.04012428622404
H           46.87146363899022       46.47974762611668       40.58762018303542
H           47.89371640751557       47.48746411560873       39.56871935363960
H           47.54944897525083       45.82619671440170       39.09336031017651
H           48.48483381377659       46.56566200687647       44.66012027103240
H           50.91931038415753       45.72580741730302       46.27942046942542
H           49.29040699195068       45.05722026047732       46.40621160963455
H           50.23645597281298       44.79368616180322       44.94753989036478
H           48.87449496696691       49.59343988387612       45.13413740533408
H           46.98063301013193       48.09717116734159       44.59321305983198
H           46.42713214519920       48.17800524226217       46.26822249976168
H           46.40653869740602       49.62185888652165       45.25434567326663
H           48.20761141078201       49.35439268826359       48.06830972459484
H           47.41113020291915       50.59621062858891       47.11286720431684
H           50.42629675134803       50.35427142471514       47.12000677791318
H           49.18677991017493       51.73451569572170       45.36714281538166
H           48.60507730183787       52.75641762309016       46.67776298131805
H           50.33291037865840       52.65159486541901       46.32910894761476
H           49.79418630209189       50.52515620665562       49.43553637411515
H           48.55305435926932       51.72185234319237       49.07781206036077
H           50.22244542685543       53.41024043868536       48.58725704682407
H           51.01161532222517       53.69656744419610       50.90656708562714
H           49.37887798993719       53.04497208060459       50.89197841127416
H           50.74230517332597       51.97748254738976       51.22334518996452
H           51.99513060076313       51.89212771046977       47.69835213243136
H           52.25906118174220       51.26657484529897       49.32275973035184
H           53.01027167310730       53.53463164825056       50.04251365063731
H           55.19127294808030       53.40475806136439       48.84716142482766
H           54.62771434077055       51.81442918899621       49.34306872988849
H           54.46847802189328       52.31902502462605       47.66151139275484
H           51.71671199888632       54.66119143707088       48.01634762781601
H           53.15864423338861       54.24997151027621       47.10477277718669
H           54.47909850631862       55.56926215591005       48.88318745970487
H           52.42696043765656       57.05787273291708       47.19208321810191
H           53.99163702230376       57.69011387546828       47.72165503709974
H           53.92238669831421       56.36010051683819       46.57482962680837
H           52.72926612687440       55.57082754031952       50.62658001222822
H           51.63176501633490       56.41517262355377       49.54298956714234
H           53.08007183747578       58.40037064284208       49.58396323246696
H           51.15581449406732       58.24165283564614       51.02241750568745
H           52.04805087905857       57.35805600877669       52.24749573227684
H           52.45327179592634       59.04301347786638       51.91351434057992
H           54.79080655172557       58.75720974155360       51.14627817681961
H           55.26207605491924       57.43305772680893       50.10336038064068
H           53.99259848841852       56.63086797340740       52.69377991574921
H           55.73256059376118       54.90542059769608       52.62567614252477
H           54.89987753425926       54.96761163162866       51.08028476979211
H           56.49748900608827       55.69273037136372       51.24708793510179
H           56.70030098220477       57.97986707962685       52.50201870430792
H           56.28804070555196       56.88182117165735       53.81201385846118
H           54.77029973006716       59.45361454156610       53.21860429895578
H           54.60778850270641       57.48125592634139       55.53676779170851
H           53.81173430086842       59.05164057728895       55.48970449103162
H           53.34245424738141       57.80153426419488       54.35135267301629
H           56.70784783697482       58.81736265253969       55.47195872465552
H           55.78969124548652       60.30837692495936       55.27461035748243
H           58.07680512294822       59.34777087845158       53.51610774738363
H           56.34149753198344       61.83984366834591       53.27791414920664
H           57.83323397790962       61.55421328755094       52.38008011389977
H           56.43976116317354       60.52224945908307       52.10380903808917
H           57.78978209362354       61.74176301764594       55.36699929361827
H           59.17048620477400       61.41985020093098       54.32609130107858
H           58.30630116934496       59.67812052535752       56.66775318564459
H           60.50384665008440       58.53574350720217       56.25143655959847
H           59.34832031539024       58.28361041930179       54.94998292152863
H           60.66507890947985       59.44517727170374       54.75194645099022
H           60.76211445786731       61.43752926643206       56.32152875403042
H           60.39867113373010       60.38768323224365       57.68852118352923
H           59.02151709485877       62.97929904302156       56.93291383935263
H           57.56055462730352       62.56322168033380       58.94372225722184
H           57.23313281401876       61.45834843370922       57.61975465560258
H           58.17347460148368       60.91187775663742       59.00714908732730
H           61.23645529928751       62.87805499532188       58.19815522957104
H           60.37824775417123       62.03995603827304       59.48642307555328
H           58.89863216280460       64.03836608448553       59.75817906358755
H           60.59347020635420       65.41061365577379       60.89698849959379
H           60.87376599500738       63.69830602042772       61.18999499600042
H           61.88107260520100       64.57097322949620       60.03167362320875
H           60.37549559925026       64.91013891774541       57.35572578295827
H           60.43491642857212       66.11086124278006       58.63006838707570
H           57.81008893287358       64.87791160895084       57.75580601071020
H           57.90193164167214       66.05977490764889       59.96681534913760
H           58.46315113218101       67.51211380054980       59.14103323468724
H           56.85339544649992       66.87215242067070       58.80706762604410
H           59.35145759551289       67.24126355623517       56.64337293445364
H           57.59898170723203       67.16073315962394       56.51276337791788
H           59.33896490369071       64.88982380145126       55.51110505044406
H           56.87569216963567       64.52461671871029       55.85478876209505
H           56.55040076292997       65.83921695563880       54.73156637286939
H           57.34971278047010       64.36552855320164       54.16993687170341
H           60.11657384531268       66.95847145443761       54.47606076083668
H           58.46941313040423       67.41159710270111       54.05499751409454
H           58.31747442159005       65.66203528949805       52.40200452784428
H           60.98808780030571       67.12919225167725       52.22047004202583
H           60.04626264873215       66.54117651769610       50.85429788854178
H           59.41251646856381       67.83431740376871       51.86496752167260
H           59.53860282862536       63.87343815030392       53.48874623377277
H           61.03409076910903       64.80564646475474       53.46026487698582
H           61.25927595554774       64.53113465727158       51.08080200630802
H           60.45006413408473       61.88514439664134       52.37032720792995
H           61.59947272607349       62.09241700505005       51.05217090175986
H           61.98290840845223       62.71188537965308       52.64939189630098
H           58.93621560090104       64.68999295247866       50.36651019529570
H           58.52659545589653       63.20761676135749       51.21998801039831
H           59.78782202181107       61.87016622003868       49.64115870040943
H           57.42763097199845       62.61479685414659       49.17820881922309
H           58.06708040912322       63.91384508750127       48.17174503738448
H           58.32070618392461       62.22985490514466       47.71244890956234
H           61.65499700055073       63.35880880757390       49.14875544035203
H           60.57111071491326       64.55890499613811       48.45332302334397
H           60.09346640657372       63.10431280193976       46.56187546283387
H           63.09954359121689       63.28951260646250       47.02312500552411
H           62.25553979816818       63.37085328890346       45.47815139473906
H           62.07986820423044       64.67755620430023       46.64026888230388
H           60.29892634924693       60.90196541185497       47.64142023754884
H           62.02016165983684       61.16446503578982       47.90243677138824
H           62.42512528423745       61.11532245180771       45.48246236337052
H           61.99293859052639       58.70318352483893       45.18055231164470
H           62.49641838468784       59.03883803729774       46.83282622675178
H           60.79623570423728       58.73629850973168       46.47540071867626
H           60.21813956939143       62.02179525543387       44.76936866686783
H           59.44636840075989       60.51858465740130       45.26586034501586
H           60.58402345473384       59.30320339001650       43.47794389997182
H           59.40552662434572       61.92702859684370       42.46934537610779
H           59.40133443411700       60.38732233677612       41.61081042540800
H           58.46248443775509       60.57044889324177       43.08426409685438
H           62.73262913168875       60.32078307475346       43.36041748554317
H           62.05510890894274       61.93105278592598       43.15019188025462
H           61.33337945419753       61.35660335684955       40.87333583232756
H           63.58263677271854       61.42291458026958       39.89687789948142
H           63.55699147056358       62.38481362883120       41.36866198078533
H           64.28260817956432       60.77788257737878       41.38085011409904
H           61.06531102394743       58.89666853128179       41.23879363510824
H           62.80983549382062       58.74529152980794       41.39814875789762
H           63.12633750199522       59.34107097898402       39.05697966544093
H           62.19741773456402       57.28434954014789       38.13049187861301
H           62.60302386886457       56.99485157638337       39.81354823203198
H           60.92405108481143       57.25779713081416       39.35229579304094
H           61.30828535269639       60.94305657557340       38.74955527724821
H           60.10592007374347       59.70064081874797       39.08359339879087
H           60.77362056817706       58.55013769270271       36.95697040266125
H           58.83138263048308       60.05901226747040       37.09160122743619
H           59.85853151919882       61.44956757007132       36.74864936334038
H           59.60053521798358       60.21187737187054       35.51957550807514
H           63.10397153900573       59.70698634350316       36.90965458585798
H           62.24869588206921       61.11770022907506       36.30063423670575
H           61.32120165695689       59.48133875345756       34.47311528885187
H           63.35008209635106       59.89010124236292       33.08233262735789
H           62.90194199528328       61.31560090601067       34.01407612168759
H           64.25459917423393       60.31148859390623       34.53802600185373
H           62.23128769658393       57.46929835656763       35.76604810549831
H           63.83271340611815       57.97012846952007       35.25473533331976
H           62.06711879490482       57.87482438846075       32.93816400602294
H           64.45466921902577       56.14079137354960       33.68913335848890
H           63.79475840371855       56.36798192263666       32.06944086084517
H           64.55879269459838       57.71867359393634       32.90478491728768
H           62.22300924943175       55.33602242402164       34.60169421156088
H           61.75790405003846       55.38460352670459       32.90421386991763
H           60.23750152674440       56.82353097129434       35.11748181459457
H           58.42954311615972       56.92583342767457       33.40706303487463
H           59.84532295174806       57.83911223967098       32.90584269492231
H           59.53071057348617       56.24985326456086       32.20646726840160
H           48.08167362494956       44.54657986113449       43.03327775466275
H           46.86790566263220       44.52637948328882       41.75119117900127
C           52.07857353671832       51.62419369017378       67.93528400130934
C           52.31501617370063       52.83501898362455       67.03587346485349
C           53.80978988147727       52.99659532237101       66.76569714520625
C           51.77902662709758       54.13015940806844       67.65666284610529
C           50.28685698039498       54.14745058387425       68.00077106621472
C           49.42024857379796       53.87684102824286       66.77222896710055
C           49.87579244781447       55.49737621344899       68.60831706492283
C           50.59863982943904       55.90215156295961       69.89720646405722
C           50.42435519411704       54.84600151855133       70.98969104079140
C           50.08312954276154       57.24420340057862       70.43602225290891
C           50.21960319928586       58.47656308423226       69.52643675571400
C           51.65109017013640       58.65476519822352       69.03096016632233
C           49.74618969287167       59.68925760342832       70.34364466872725
C           49.79384549524683       61.07276383124218       69.67746110818625
C           49.45215241179489       62.11921464690337       70.74013152173387
C           48.83637151293510       61.15117120893678       68.48523480255069
C           48.79992197680352       62.49096538221329       67.73377181436412
C           47.62486771639294       62.46871288044832       66.75526226569481
C           50.10449637850650       62.78802413837312       66.97023740699602
C           51.10120953880308       63.72450378632667       67.66609306743125
C           50.49979733624947       65.11690501011230       67.86773686669470
C           52.38395576867586       63.89349157382656       66.83331131695104
C           53.16958252205803       62.62134262298109       66.49829681687324
C           53.70206654360298       61.94986448577215       67.76361192862765
C           54.35663102057535       62.92581260435021       65.57115780621827
C           54.03529182247969       63.62959162482193       64.24489701207645
C           52.86646837932202       62.96520760536350       63.51983668767285
C           55.24777262559999       63.59870072926299       63.30479449845203
C           56.50511795522869       64.34031391805600       63.77320744478726
C           56.35014960344871       65.84741335421765       63.57845904838042
C           57.72198579192384       63.82156206956101       62.99379286484462
C           58.20760552335507       62.44814867328513       63.48833008553913
C           59.23433772865591       62.62663160888160       64.60395099983459
C           58.76124862982805       61.60845008564253       62.33037988358077
C           58.87850227593042       60.10573519603199       62.61716011055824
C           59.59977010200812       59.42275801554998       61.45487381823163
C           57.49753902358287       59.46711896644344       62.86309593720087
C           57.39679423736747       58.72669701571908       64.20424846125286
C           58.13712289757253       57.39655484814234       64.10825492533739
C           55.92334225618364       58.53745229948416       64.58754923270138
C           55.65185381678327       57.74199114620141       65.87394918049294
C           54.14246192420623       57.66092016340500       66.09421206927374
C           56.35873571154038       58.37617554024256       67.07836494923359
C           56.12059192644984       57.71958490538552       68.45012832040244
C           56.86474878485284       58.54096315597184       69.50227406337459
C           56.57254500714416       56.25447473184964       68.40737843542460
C           56.36379363234802       55.35924329978212       69.64281223643592
C           54.97091612238801       55.54701820107238       70.24344956584375
C           57.42275251746642       55.47580687342251       70.74886318600315
C           58.88512966004734       55.24287935117636       70.33952502374169
C           59.08698412437403       53.85955559387201       69.72734500027609
C           59.76713295783878       55.41857805122934       71.58474057920634
C           61.27790862813216       55.44849745411189       71.32075982836410
C           62.02813214345176       55.33494517582781       72.64874799859963
C           61.70973257018971       56.71896936563443       70.56329588350863
C           62.34736693262298       56.45334706064640       69.19536589441564
C           63.68581937372713       55.73353774212529       69.35973385520728
C           62.56938634994120       57.76295852254141       68.42294707091158
C           61.31415449982883       58.41025607733162       67.82645906363003
C           60.75503677140451       57.57083289960759       66.68108823657498
C           61.63389188239816       59.82515329820460       67.31123412528714
C           61.52831111194197       60.93051934628676       68.36788703180235
C           60.06196204737607       61.21847751522871       68.69474090182636
C           62.17841177441647       62.23491993922026       67.87988264292795
C           63.71354797643402       62.28716246700276       67.86298358279072
C           64.27443277470928       62.17506422515979       69.27737707302441
C           64.13982155614849       63.61006037721901       67.20898394349703
C           65.63969970192457       63.78818865854859       66.92843673846589
C           65.91899949066980       65.27134035835697       66.67909635840397
C           66.08466496033714       62.95288780067326       65.72254091837306
C           67.61146659084486       62.84532749175377       65.54748472174377
C           68.01384514577509       63.21088855025362       64.11735361744027
C           68.13814451249748       61.43949718218762       65.86475946666600
C           68.03248441789583       60.99887260106761       67.33086321181740
C           68.95810189912469       61.83188429035548       68.21737244226512
C           68.38259927914656       59.50167138284003       67.46082842067048
C           67.19945245505750       58.54874508939142       67.69211369351541
C           66.13898371572401       58.68244169784273       66.60120388323452
C           66.55085056914034       58.71916334160989       69.07263183913153
C           67.39571317931214       58.27283147078484       70.27322478784579
C           67.83548234591599       56.81238305435075       70.14554963983585
C           66.60634081852128       58.42432303720016       71.58448485159127
C           66.21926902035075       59.84807965998662       72.00026505905267
C           67.45287658797142       60.73542502523969       72.16583580167922
C           65.44749414302034       59.83645730038561       73.32962138222756
C           64.07654563671827       59.14878971426923       73.32462389899098
C           63.13571278255763       59.80165967604906       72.31320992466516
C           63.43825867892533       59.20466175811244       74.71982603623988
C           64.14394842164316       58.34956340451063       75.77029921459111
C           63.37426232507550       58.33753063755648       77.08626014105118
H           51.01778604077918       51.40953945892419       68.03906674584734
H           52.55947937327427       50.74277106007656       67.51514297318234
H           52.49265955875021       51.80074580545438       68.92716367758105
H           63.89150247183940       57.73346768572501       77.82815383757656
H           63.27303819044036       59.34799553362086       77.47671855611046
H           62.37753842943106       57.92555967366702       76.94285613846290
H           63.40648066573605       60.24275608272676       75.06004486552148
H           62.40489638055858       58.85623416677210       74.64001470252560
H           66.08110460579677       59.35674393533777       74.07854925448289
H           65.29742624130314       60.87315604453802       73.64417740228551
H           65.58611209892594       60.29415241826526       71.23118330735733
H           67.16611064292670       61.72015809261917       72.52918744969999
H           68.14792993463942       60.29641116220809       72.87917435067749
H           67.96899925307402       60.86793054697237       71.21913373635856
H           65.69752416423610       57.82496485192682       71.49599899779349
H           67.20197262343076       57.99181984036581       72.39377020856618
H           66.28292421945370       59.76802836357260       69.20271471647889
H           65.62360371806936       58.14186357581487       69.08039116940466
H           64.19979907829379       58.09324222464095       73.05930390087610
H           63.09099345828715       60.87683109102132       72.47376095554758
H           63.47318947301570       59.61626743596100       71.29725971447395