3536
 energy: -3716.249880410963 gnorm: 0.000999767309 xtb: 6.6.1 (8d0f1dd)
C           59.64509410230959       54.83275525821447       34.59634104955141
C           60.27794548638052       56.17671106740429       34.23621745737919
C           59.47569011967039       56.84041352937876       33.11978210485515
C           61.74198959135181       55.95388946443440       33.83853895760091
C           62.58224556091636       57.22427655502736       33.65153447594012
C           63.93133458633086       56.84105424385523       33.04149127163574
C           62.77666656393399       57.98598871509289       34.97651698305799
C           62.31244176544026       59.44663387328782       34.93610621194016
C           63.26346059152392       60.29110301877188       34.09011502265314
C           62.21988721704204       60.02693509913769       36.35556712261640
C           60.95341196364572       59.61643298800494       37.11594555637153
C           59.73926315696573       60.38124398429612       36.58470768614261
C           61.08097149406218       59.88340292104577       38.62302216540794
C           62.12319267267097       59.05745809429764       39.38904951984902
C           61.94912587531068       57.55788904067931       39.15244145508506
C           62.01703139922879       59.31001842850161       40.90144212743581
C           62.11534706034484       60.76806647821740       41.35782490081368
C           63.46636380907122       61.37380950604975       40.97684778174835
C           61.92890233795028       60.88000740740088       42.87755732061801
C           60.58446514433300       60.39740666823334       43.44407856802209
C           59.39461811581320       60.84663232678481       42.59496898072035
C           60.37019111791522       60.94539903919339       44.86469971009929
C           61.49488239428618       60.69740241051727       45.87418645085591
C           61.70678822116641       59.20216540927695       46.10369355091343
C           61.18949179919248       61.37357982833154       47.22141443456771
C           60.97528475949787       62.89159751163223       47.17090612900950
C           62.17549577605951       63.59813140865009       46.53766475796996
C           60.73796150506302       63.48385917576153       48.56966174964857
C           59.56264113653870       62.90501836148596       49.36822075218779
C           58.26728269998188       62.91474582767290       48.55438142077492
C           59.31794121896589       63.70956754948032       50.65631931298176
C           60.52063758637583       63.90359031965461       51.58639369342531
C           61.17765408349465       62.56670515159844       51.93257952638427
C           60.11694459776179       64.59133705012829       52.90288417455949
C           59.30977452765579       65.89071293356000       52.79839179718718
C           59.98080324630739       66.90663297113315       51.87442751607503
C           59.14339085133692       66.55844734362599       54.17447474477413
C           58.61838806546906       65.69038712464253       55.32415572970663
C           57.26704609660625       65.06566600636430       54.99574372887329
C           58.50402079185864       66.55222065306363       56.59073281384531
C           58.46247168619871       65.74333585189649       57.89328089606092
C           57.88431820814723       66.59727694940419       59.02081801211777
C           59.86800486363566       65.25313124289751       58.25723549592847
C           59.88895099997220       64.12528710249670       59.30331824579918
C           60.87056488024380       64.47034648040362       60.42319150654720
C           60.26216594869788       62.77193539959399       58.68302623667307
C           59.26529774576893       62.20180236890843       57.66060639869669
C           57.98019346483724       61.75579947402375       58.34925252693719
C           59.94761043252326       61.03426411130734       56.92938300604228
C           59.06867542427294       60.14219217216124       56.03815662573424
C           59.94813695225879       59.03309320146298       55.45947893504613
C           58.38704254004018       60.94293060008371       54.92295354538780
C           57.47986404297690       60.14045414914760       53.97308351999634
C           56.98898071609764       61.06928272358724       52.86524287961309
C           56.30623376042252       59.51084153337425       54.73109464779745
C           55.25235113089207       58.75202694285390       53.90442100376436
C           54.18817800396150       58.23700615273001       54.87511668067047
C           55.87142206894796       57.60079369375708       53.10077744794582
C           54.91272173898285       56.85683442428434       52.15292203837900
C           55.54748203457715       55.52523917359379       51.75058259061331
C           54.58432390610710       57.70984334264740       50.91415670762113
C           53.13853510731987       57.66160065775587       50.39134055922954
C           52.14187216143537       58.10366544664004       51.46327990855563
C           52.68459722270030       56.31045397322158       49.82581462728714
C           53.44273790546448       55.77636055149880       48.60294446066240
C           53.44698998857042       56.78741437070851       47.45643727536356
C           52.78779669363448       54.47593814041640       48.10902102868127
C           53.03207715958855       53.24346162896332       48.98987228288911
C           54.41388334514012       52.66056861006543       48.69407711464202
C           51.97170165983361       52.15681821533647       48.75583183304409
C           50.53397402361922       52.52156755206209       49.14105868546913
C           50.41412439563275       52.83120877496930       50.63241989224621
C           49.55771399372935       51.38571370661032       48.80416126502675
C           49.51420233953250       50.91360990275994       47.34364254496751
C           49.40641361499777       52.08692042820367       46.37224819877019
C           48.30880019577519       49.97685392536437       47.17624263015397
C           48.37667845383138       49.05708715111646       45.94662508328425
C           46.96246102487443       48.71501281996556       45.48722039019394
C           49.17912246649266       47.79526566736364       46.28704489049306
C           49.43812790496970       46.80798566316902       45.13890251287537
C           50.00612483380256       45.51590209218001       45.72692841106851
C           50.39703953170895       47.39379644392065       44.09666487699388
C           50.45040879155525       46.63621471301235       42.76159198931773
C           51.70428526851705       47.06035661068662       41.99842101518657
C           49.18761011431782       46.90726888746782       41.93592667830395
C           48.98813920869778       46.00977441794125       40.70843641259624
C           47.74793543943912       46.47652337633969       39.94408266317973
C           48.90225806400568       44.51144606135270       41.03839156450110
C           47.83418284964548       44.12405379740483       42.05950688691194
C           47.71887721091728       42.60941273097875       42.19026591890824
H           58.61880571375787       54.96361178875202       34.93316652425414
H           59.63743622696351       54.17326792823297       33.73093825366379
H           60.20716926739731       54.34534049924714       35.39000119530454
H           47.44113233473258       42.16238863483151       41.23793512279910
H           48.66562884314752       42.17576749558315       42.50487685621967
H           46.96112621492484       42.34235125928545       42.92440281470643
H           48.70167020291872       43.97547290325985       40.10652253944429
H           49.87477467029007       44.16636712998793       41.39728639518498
H           48.30856721919820       46.80827624285262       42.57364924885723
H           49.22082790349943       47.94533674174340       41.59601504826645
H           50.52165822909368       45.56588997974268       42.96806594288346
H           51.68180948465380       48.12959247979150       41.79943444567619
H           52.59625756832062       46.83826176286082       42.58099413251291
H           51.78487683508375       46.53589768504528       41.05024785977585
H           50.12010775971618       48.42739999168897       43.88270053446553
H           51.39841047488137       47.40776547693820       44.53151866427306
H           50.14374011856991       48.09966344511660       46.69965984275220
H           48.64110822837367       47.26211682780777       47.07491693486276
H           49.84809476169156       46.13623979460947       40.04096443470774
H           46.87222462150169       46.47998580564111       40.58892269656601
H           47.89443918098124       47.48752739259393       39.56940867775228
H           47.55019660751581       45.82605785001306       39.09482435168790
H           48.48544690287832       46.56627153515181       44.66068772751504
H           50.91923202877715       45.72676374505799       46.28041994925022
H           49.29041410243104       45.05741080570566       46.40571877184600
H           50.23770741754617       44.79512811040553       44.94707335333598
H           48.87553142383027       49.59365470524543       45.13497823387070
H           46.98275387704847       48.09688790256862       44.59397984021827
H           46.42890747966396       48.17798249501774       46.26929429583782
H           46.40784812845733       49.62179636299940       45.25487184327287
H           48.20811142512851       49.35409841535978       48.06850571063006
H           47.41221994669803       50.59640977278482       47.11293094022629
H           50.42691226434686       50.35376559203775       47.12065800812587
H           49.18740317535526       51.73350316696464       45.36764422467520
H           48.60560626921077       52.75542470789637       46.67867722668054
H           50.33361007099764       52.65110258001486       46.32911745550356
H           49.79534035655112       50.52567612504436       49.43600328864854
H           48.55346405408033       51.72190300578153       49.07714141447616
H           50.22173015118487       53.41007509368887       48.58662641221213
H           51.01144473865607       53.69650624118226       50.90569239259095
H           49.37867000158894       53.04458582914715       50.89097620312628
H           50.74238719044565       51.97677423541098       51.22160801277982
H           51.99505749848606       51.89343220403642       47.69773321750518
H           52.25827420949016       51.26709076817078       49.32226484507279
H           53.00935713166427       53.53428614512284       50.04272545736380
H           55.19037517465435       53.40501438382124       48.84716177941721
H           54.62683357681846       51.81409400185100       49.34224790757674
H           54.46641123863277       52.32026764987067       47.66090663939336
H           51.71700801564091       54.66167414174408       48.01718904003705
H           53.15936021685905       54.25007204725783       47.10589346495354
H           54.47901409081346       55.56932084016384       48.88385130035611
H           52.42667055892095       57.05729937766078       47.19340874626337
H           53.99228829428416       57.68963511975124       47.72150783642338
H           53.92161711429096       56.35910917154661       46.57488948707807
H           52.73023898163762       55.57121820488570       50.62705438591366
H           51.63237289588889       56.41510411275162       49.54350564013006
H           53.08028346647952       58.39986499693693       49.58418681039286
H           51.15615002223287       58.24111268833509       51.02237014371533
H           52.04838923629148       57.35691809549717       52.24707335142714
H           52.45337558193912       59.04235756579990       51.91453396166455
H           54.79066250158052       58.75703982404208       51.14677560627558
H           55.26197930643222       57.43252338725867       50.10391728309429
H           53.99254596293905       56.63184158417324       52.69397382048387
H           55.73224752008032       54.90606021814072       52.62597194164855
H           54.89994370557963       54.96871977567518       51.08020232579679
H           56.49742222514407       55.69471983798500       51.24796255676419
H           56.69949750138360       57.98051360523147       52.50103575091619
H           56.28742744162293       56.88269861500419       53.81162480137311
H           54.77036459699675       59.45429499945050       53.21855826568061
H           54.60874143818437       57.48171103154320       55.53591387041308
H           53.81216254478704       59.05207367554451       55.48904742208489
H           53.34297224739601       57.80184551551126       54.35062319307741
H           56.70764516555274       58.81706161343993       55.47106894414080
H           55.78990259182394       60.30848963528191       55.27328988471584
H           58.07689704073680       59.34748174363514       53.51632041922464
H           56.34155446996887       61.83914717179162       53.27899995610392
H           57.83339292523389       61.55413518267471       52.38038160298238
H           56.43973290192203       60.52251805381435       52.10337958457072
H           57.78893610959330       61.74108415819153       55.36664810933379
H           59.17043241922719       61.41866539476324       54.32637108168045
H           58.30598060434464       59.67815884491724       56.66812921617350
H           60.50386277295869       58.53674703752100       56.25134959226602
H           59.34838652286259       58.28434899638464       54.94966382266168
H           60.66431815512315       59.44754484507910       54.75227487215204
H           60.76116073799015       61.43693419669249       56.32004565412257
H           60.39758328245285       60.38766815106285       57.68794428348336
H           59.02123327387158       62.97938830491331       56.93267464549643
H           57.56155383094050       62.56316266925306       58.94338962205104
H           57.23300110484384       61.45823724915294       57.61939097677782
H           58.17419653412716       60.91141897839449       59.00601747989501
H           61.23574844538233       62.87726648469042       58.19748832947266
H           60.37726272580432       62.03893951349428       59.48545606342611
H           58.89839441981289       64.03760548486545       59.75727635616777
H           60.59250888785956       65.41019864295150       60.89528470198417
H           60.87398200281579       63.69811826749069       61.18907034070993
H           61.88038450198474       64.57077152128154       60.02954296766394
H           60.37610566467337       64.90944633384194       57.35588990249628
H           60.43319623511415       66.11012425919097       58.63068897341986
H           57.80991413809276       64.87673483270382       57.75482564085733
H           57.90246120973497       66.05974915596595       59.96603050922027
H           58.46380354443976       67.51091949485495       59.13820098049096
H           56.85338238288933       66.87096638728221       58.80585985868763
H           59.35190400020732       67.23952609978674       56.64361748474976
H           57.59898995854702       67.15912673282554       56.51225646294765
H           59.33865046529888       64.88899672168087       55.51008843141156
H           56.87492858825092       64.52631776560968       55.85443603995663
H           56.55148459640945       65.84113666789447       54.73096158191857
H           57.34871625877432       64.36600197220027       54.16968811534022
H           60.11673278039559       66.95764137022249       54.47477062810736
H           58.46880428419242       67.41070511857799       54.05480654041246
H           58.31698144455206       65.66187638902630       52.40160164369360
H           60.98809507780268       67.12753202940024       52.22151382063826
H           60.04627989104760       66.54132671009894       50.85419792804795
H           59.41293978739046       67.83431931076794       51.86559016633576
H           59.53827348428143       63.87338041867075       53.48786336060502
H           61.03345492871797       64.80632316742675       53.45925471228016
H           61.25881632396524       64.53142821714229       51.08044899025096
H           60.44975682719760       61.88548463211470       52.36948617541899
H           61.59981944659941       62.09315099035008       51.05196852845739
H           61.98227993562758       62.71222300896019       52.64983668767074
H           58.93707943468187       64.69017783790633       50.36548621562898
H           58.52677719988800       63.20801967562304       51.21934844286478
H           59.78786708291690       61.87034314587289       49.64123551882660
H           57.42817628462439       62.61390551297696       49.17846170353612
H           58.06752817863846       63.91407743966591       48.17260345293213
H           58.32104165671988       62.23001950472593       47.71231995782044
H           61.65477727943868       63.35895718869667       49.14826072189065
H           60.56977545146513       64.55885457597013       48.45311061621864
H           60.09272586694922       63.10400470745797       46.56219612767573
H           63.09850163075280       63.28799840511100       47.02410925060281
H           62.25543162880253       63.37022368665304       45.47839176723964
H           62.07964442467475       64.67718768354973       46.64089878587986
H           60.29872539202969       60.90204148242054       47.64103620240053
H           62.02011082919859       61.16515810768917       47.90176164684579
H           62.42456077173750       61.11576027916180       45.48239084390087
H           61.99173274691868       58.70370411153653       45.18105513619265
H           62.49667401840662       59.04014959993394       46.83297441437205
H           60.79595422853640       58.73761307917895       46.47704097872160
H           60.21781108654758       62.02186915199362       44.76929723373715
H           59.44634132831708       60.51848128463509       45.26579917991500
H           60.58424090975807       59.30369032633021       43.47849001643419
H           59.40644402976442       61.92736031374024       42.47030635866410
H           59.40240896240873       60.38766195996282       41.61120434256673
H           58.46316721225987       60.57030233423151       43.08473045705199
H           62.73252629098636       60.32033527650486       43.36044336172012
H           62.05509563067454       61.93104860142048       43.15070858689266
H           61.33279099515179       61.35640137049305       40.87406270662697
H           63.58154112659476       61.42267942000767       39.89736044936694
H           63.55652674033128       62.38438067620214       41.36967564182227
H           64.28174730430669       60.77701026351040       41.38126599564341
H           61.06548897916842       58.89594807440868       41.23939707231312
H           62.80984654751603       58.74582936329685       41.39853105978165
H           63.12595290900774       59.34115156086467       39.05810620305979
H           62.19653199234445       57.28522352813999       38.13122622740806
H           62.60365087737446       56.99554217488814       39.81421793071322
H           60.92440379884153       57.25762145944728       39.35472456000320
H           61.30917466700666       60.94328091446880       38.74943835282907
H           60.10611570235421       59.70150174803376       39.08423920792455
H           60.77352982443652       58.55039884922785       36.95787325350186
H           58.83170731980031       60.05979626621975       37.09187422588067
H           59.85973650401349       61.44999293451545       36.74961090282121
H           59.60190588409689       60.21241482432718       35.52008047095877
H           63.10391916559503       59.70775556398220       36.91006370404769
H           62.24749758409307       61.11784961792291       36.30075212365782
H           61.32099735965010       59.48149680465225       34.47404593283519
H           63.35040209928452       59.88893947634364       33.08391255695664
H           62.90249336823591       61.31487906159783       34.01517532964190
H           64.25452794955285       60.31018302498132       34.54005521385711
H           62.23212331018235       57.46895621590740       35.76720686540921
H           63.83272131571955       57.97114261016123       35.25479862736272
H           62.06694060681646       57.87516612617772       32.93944155908208
H           64.45438827271950       56.14091933871663       33.69005487389564
H           63.79442565521242       56.36885238815672       32.07060668239704
H           64.55839449234077       57.71925174839791       32.90638754095249
H           62.22282391612841       55.33601064767770       34.60190752951931
H           61.75693578154053       55.38600886229189       32.90468839079836
H           60.23747553424244       56.82405138661979       35.11864914508617
H           58.42975738507663       56.92575575055476       33.40683157807263
H           59.84573616744943       57.83953304933236       32.90642910656058
H           59.53244495707376       56.24958512275359       32.20777786014839
H           48.08033937506657       44.54764051584195       43.03444049990447
H           46.86830735842700       44.52697872552608       41.75082243814978
C           52.07792274193830       51.62440109618928       67.93613136130097
C           52.31392807828374       52.83469594497345       67.03578882842193
C           53.80918319836969       52.99677477633799       66.76630535323997
C           51.77879021646194       54.13034726333024       67.65693344639604
C           50.28662430372511       54.14789659727558       68.00147210548043
C           49.42009754487143       53.87701992083549       66.77261641992285
C           49.87606913576360       55.49820118385892       68.60876300634050
C           50.59929501678030       55.90260472362048       69.89794147464450
C           50.42391817432045       54.84602774968254       70.98961116094534
C           50.08256654327666       57.24438578660075       70.43644079211765
C           50.21868032051800       58.47666037645519       69.52655875310354
C           51.65090121478835       58.65491122990954       69.03196369174199
C           49.74584680742353       59.68955272209250       70.34393495889894
C           49.79456930565571       61.07293910662180       69.67758352691713
C           49.45189897359150       62.11933465375083       70.73956318557086
C           48.83638476442216       61.15102441202442       68.48563658424888
C           48.80006205507992       62.49111746654980       67.73463915660437
C           47.62457310915599       62.46937680907438       66.75642242645448
C           50.10464798133245       62.78792682108222       66.97069314608962
C           51.10136049489391       63.72460512610323       67.66693532906918
C           50.49951148288881       65.11672127136177       67.86779535089373
C           52.38372932856486       63.89361489020538       66.83351166408974
C           53.16902755945873       62.62099085602441       66.49861596151767
C           53.70226574378881       61.95051429211544       67.76430906777544
C           54.35666358673938       62.92588822706190       65.57193699996496
C           54.03557028868391       63.62990642252841       64.24571955592198
C           52.86657046472815       62.96569861690787       63.52004842829948
C           55.24798330700855       63.59833152738885       63.30524722433859
C           56.50529476415846       64.34000373425086       63.77444701368860
C           56.35001080730619       65.84646946255332       63.57849651355700
C           57.72200471146773       63.82143780654242       62.99453394146059
C           58.20731892270774       62.44798688486554       63.48971040821188
C           59.23513767100912       62.62648178800942       64.60437013399608
C           58.76094321331942       61.60897469651159       62.33070779865958
C           58.87899626087979       60.10618499984567       62.61746208329645
C           59.60027261949253       59.42241264347891       61.45513089759269
C           57.49776799841123       59.46751245163736       62.86331671578723
C           57.39717197505223       58.72760489564965       64.20496773641150
C           58.13779052950071       57.39732887283095       64.10883091641028
C           55.92348062820204       58.53795483371353       64.58785541810646
C           55.65266152939474       57.74232960954894       65.87465042379766
C           54.14287372807865       57.66228540122903       66.09475921776529
C           56.35939212445905       58.37715867176042       67.07901657481176
C           56.12030722138589       57.72049085577761       68.45085076862827
C           56.86516768830749       58.54170177194234       69.50227963366319
C           56.57247233373665       56.25502918068259       68.40780426823419
C           56.36381925410574       55.35980813242615       69.64386712417046
C           54.97059462279456       55.54823645082269       70.24364605766250
C           57.42296563094760       55.47733020582042       70.74958075144349
C           58.88530596971047       55.24450945209055       70.33961049334334
C           59.08658344682549       53.86017193137666       69.72856178376070
C           59.76726808772985       55.41952857491239       71.58508677369414
C           61.27811595908673       55.44860294468265       71.32099135456664
C           62.02801016344805       55.33574973952091       72.64915309968359
C           61.70994954422942       56.71946607398090       70.56371672966011
C           62.34725743163798       56.45294209869117       69.19553557738573
C           63.68616406344833       55.73345785924687       69.35963973271363
C           62.56994477732658       57.76268869527733       68.42301656840473
C           61.31478930976983       58.41091294936757       67.82729091946844
C           60.75549096276939       57.57182779390686       66.68127176275030
C           61.63486864812310       59.82566177902459       67.31160757686762
C           61.52900791541619       60.93101174888892       68.36859624368653
C           60.06247586391494       61.21850731607134       68.69488596522936
C           62.17931609387229       62.23511287289035       67.88014178257102
C           63.71463436359764       62.28649141502333       67.86299444206530
C           64.27510981788001       62.17529735063388       69.27771046577018
C           64.14082951631450       63.60948657890215       67.20893568306818
C           65.64082780505574       63.78703320161537       66.92875489857245
C           65.91994411453121       65.26966723068678       66.67819462192917
C           66.08525584796804       62.95144229966809       65.72261975907645
C           67.61218162969257       62.84376830825714       65.54738327477260
C           68.01383773212682       63.20934519965999       64.11725234137978
C           68.13882157318054       61.43783713975059       65.86443214582908
C           68.03236136728142       60.99773522827918       67.33086305532569
C           68.95818842735301       61.83061663104588       68.21699928529802
C           68.38304825086256       59.50057885883628       67.46082640178138
C           67.20024992109792       58.54744262140444       67.69263584724013
C           66.13965468185428       58.68086199010025       66.60132353813457
C           66.55094107646536       58.71893646128053       69.07287273868918
C           67.39582205053394       58.27269124549277       70.27361463995820
C           67.83499604143057       56.81238616936091       70.14548083606995
C           66.60595597876076       58.42392863460139       71.58450933244224
C           66.21871144085645       59.84786452822592       71.99975885909448
C           67.45259513635085       60.73457565256595       72.16534025191841
C           65.44756162474435       59.83583100299570       73.32944818466171
C           64.07692081675100       59.14767235270789       73.32442603865191
C           63.13600806484278       59.80101870898348       72.31311186218323
C           63.43863154493185       59.20391447795418       74.71948137313561
C           64.14445278455469       58.34812780657894       75.76908858669800
C           63.37480954932140       58.33651813526723       77.08468793319201
H           51.01717365879966       51.41017686384943       68.03826557369918
H           52.55964886352303       50.74365876171779       67.51563875660050
H           52.49186034135747       51.80307637925757       68.92722702752175
H           63.89160778951475       57.73210021448121       77.82660862380452
H           63.27402463871773       59.34688398219311       77.47553506687213
H           62.37778536381131       57.92508579741762       76.94156576156580
H           63.40781880153695       60.24187945492542       75.05949401538523
H           62.40516141853834       58.85608810985833       74.63957683760397
H           66.08116130833983       59.35577849958701       74.07765022676291
H           65.29713814945917       60.87231947261566       73.64363925868523
H           65.58534445702772       60.29394806084445       71.23092454400087
H           67.16577162660724       61.71911710998975       72.52902301068323
H           68.14695971030041       60.29487121136016       72.87860449838492
H           67.96866930522556       60.86744283934443       71.21875671469078
H           65.69762650100279       57.82391479298079       71.49605658815852
H           67.20220645290198       57.99255910138021       72.39329791722714
H           66.28320579611265       59.76784259298317       69.20193602560394
H           65.62355040787763       58.14178386610921       69.07999084363534
H           64.20012896495068       58.09246310317876       73.05880447477202
H           63.09166211299578       60.87613776159193       72.47401220918057
H           63.47312931300841       59.61616786981415       71.29680517395276