3536
 energy: -3716.241763423587 gnorm: 0.000982642965 xtb: 6.6.1 (8d0f1dd)
C           53.05978683807869       40.62694553520689       46.04452925037781
C           51.61528011005910       40.94682041608996       46.42112233171360
C           50.86142312299980       39.65242295653616       46.72695942613623
C           50.87710115598643       41.69921707379618       45.30771793896739
C           51.50662298206638       43.01837825430338       44.84447144094052
C           51.68072081910426       43.98996430186980       46.01059799001418
C           50.63082689661280       43.68279293086837       43.77050450367328
C           50.60072635133526       42.97033075311451       42.41354446591272
C           51.90151534853003       43.21142848576167       41.64854227381170
C           49.42143962836967       43.45129004877715       41.55607486158559
C           48.01383604628685       43.10150391747490       42.06414593352758
C           47.85713931208550       41.59917385235279       42.28647813518586
C           46.99418614077641       43.61838050259378       41.03937112687814
C           45.51621183372612       43.56398044525655       41.44968916608738
C           44.66495263193009       43.99616332662923       40.25383978157392
C           45.20287728811635       44.45348307818973       42.66479010965755
C           45.10055116875140       43.71374819409841       44.00606938384274
C           43.80328251989844       42.90957261428100       44.08283078841476
C           45.14840174058038       44.71652142616202       45.16712327846417
C           46.54695012963089       45.26804411147887       45.47242628579790
C           47.35226635383136       44.25347036414549       46.28076788239149
C           46.44510739656973       46.59983649755229       46.22898406338503
C           47.73560214122206       47.43827954563594       46.21947519987614
C           47.98253020860289       48.04382708947755       47.60214816982619
C           47.67499648027604       48.57016536980352       45.18357665633005
C           47.53007553238493       48.14321541279226       43.71435380304830
C           48.77968576317191       47.39739271764430       43.24953034207986
C           47.27414598551324       49.38829080610640       42.84375050715428
C           46.33091995212628       49.22029965744266       41.63955022749628
C           44.91571702865441       48.86047145564133       42.09537480207035
C           46.79236500181924       48.20212789595255       40.59055936731315
C           48.12051730839754       48.52322181241500       39.88917006322987
C           47.95774828236328       49.69880480903696       38.92838551512640
C           48.61221129780320       47.27154687768487       39.14827472982702
C           50.05232039351311       47.31507839116149       38.61447746398353
C           50.27129200336645       46.10162602123241       37.70999351930468
C           51.05875700590124       47.32987443740800       39.77182473361162
C           52.53905552938230       47.44160389899596       39.37841397823846
C           53.39891611277530       47.14298093266164       40.60539305299437
C           52.85800957720443       48.83247548474296       38.82149641416286
C           54.23371487294272       48.99202798360719       38.15989742252343
C           54.41167189812245       50.45538722843377       37.75376620567763
C           54.40165447173845       48.07568783048765       36.93563602591667
C           55.19544699530442       46.78659707133930       37.20251767592853
C           56.68818089262142       47.09451284547628       37.30346512510499
C           54.91748099655108       45.76809583388660       36.08888644702549
C           55.32089194755806       44.31851407662383       36.39811414983504
C           55.34358507632270       43.52736418818161       35.09014252741736
C           54.34144174834030       43.68607874360509       37.39619899438600
C           54.77053796718682       42.31791675268192       37.95891650780606
C           53.58199399434373       41.35463952441448       37.95331216924141
C           55.32221371826781       42.41729909378306       39.38762914486851
C           56.64574018912885       43.17779098108117       39.54360047428775
C           57.77872500157211       42.46881363010051       38.80217988815795
C           56.99308418268643       43.33173851266481       41.03984997374291
C           57.34482746706782       44.76645798517129       41.44795882706682
C           58.63306348506292       45.23110491413237       40.76905680942660
C           57.52140700791131       44.90427426536101       42.96654660711599
C           56.32109296494954       44.53165856741061       43.84613342333326
C           55.02812349101330       45.17632343613676       43.34988750615043
C           56.56057125843293       44.98494131318689       45.29397466304084
C           57.76952152967067       44.37528793221117       46.01732767299171
C           57.64570602714033       42.85537697384481       46.08981492379855
C           57.85738145311356       45.00160890969007       47.41754850003728
C           59.14502461593654       44.71747570913337       48.20223574696818
C           58.92109232793139       45.06280240183239       49.67462770165790
C           60.33302165217380       45.50596328565641       47.63816836050904
C           61.70447745166027       44.96106469625430       48.06060000117095
C           62.76993988995338       46.03969198849401       47.87298260549530
C           62.07023121536393       43.71102405732621       47.24939315289006
C           63.18234984630144       42.85165193739044       47.88058407073997
C           64.27790254089317       42.55898642497564       46.85423458188951
C           62.63904299060411       41.52328274555321       48.42592938120654
C           61.64484280555499       41.64037663560865       49.58949890695504
C           62.33802937986355       42.14533751360084       50.85233819789902
C           60.99568570706191       40.27233754472325       49.85160253755494
C           59.68469061735745       40.30270726041722       50.65598156725118
C           59.38537434562381       38.89771401038976       51.17747764144923
C           58.54304633829631       40.83538408820634       49.77859791106265
C           57.12087015052889       40.77588269940261       50.35717345800740
C           56.14918920007484       41.26436493759388       49.28101151145235
C           56.99225621967286       41.61362436037981       51.63443776717560
C           55.65445195675643       41.47111392469018       52.37779839435416
C           55.48386632283783       42.64718017406030       53.33857244598350
C           55.59143795041919       40.13272429376919       53.12383845803723
C           54.21520470460443       39.74718817816130       53.68268965513892
C           54.33696702706295       38.45552562340375       54.49275664614688
C           53.12191861379953       39.62154154920933       52.61078145286016
C           53.43047897271862       38.67601111346507       51.45196607026215
C           52.26682297204272       38.62073216251650       50.46912305415055
H           53.65001881037653       41.53292213722764       45.93460441566894
H           53.52227497573364       40.01551522791061       46.81682506454931
H           53.09411729280174       40.07642028385870       45.10650322169725
H           52.06478952828100       39.60955410312127       50.06069277815186
H           52.49178522165798       37.94564679782918       49.64601845590980
H           51.36490549666442       38.26749766938099       50.96396817516261
H           52.20591036226003       39.28092479369585       53.10136656362045
H           52.90938218880196       40.61129228122878       52.20185191683381
H           55.92931108731854       39.33328077789305       52.46334046884124
H           56.29891626306090       40.17626245257009       53.95644268442816
H           54.84332751074707       41.51169705814177       51.64847667746339
H           54.55487056218809       42.56725843672549       53.89612267594526
H           56.30789075844646       42.67935344981397       54.04792294470089
H           55.46813757661998       43.58693106280251       52.79031843413507
H           57.79272686048930       41.34594035125694       52.32633609693027
H           57.13337439613410       42.66362429995542       51.36478026040938
H           58.75520075061559       41.87554378046462       49.52539045145993
H           58.54257228853083       40.26388070570364       48.84601882027955
H           53.88986082853756       40.53327648376563       54.37285809484914
H           54.71592924282842       37.64181444817966       53.87886753735467
H           55.01890348324329       38.59209536841816       55.32961171247650
H           53.36868902614549       38.16320905336069       54.89368205165648
H           56.87911353901342       39.73333213981532       50.57967181283257
H           56.33202794854400       42.31327209616354       49.05639555267830
H           56.27826796091058       40.69045364117758       48.36573710667984
H           55.11502232144899       41.15676359850417       49.59717173204218
H           59.81727298053702       40.96589633788074       51.51569375142473
H           59.17766555167857       38.22131944857642       50.35065219464813
H           60.24022747459601       38.51030093681198       51.72822282193029
H           58.53076992540581       38.90150341552638       51.84818199828834
H           60.79342968906862       39.78006204939235       48.89679604073356
H           61.72166800243842       39.65207597118913       50.38305416655655
H           60.86566742012456       42.35348534914221       49.31277214963536
H           61.63962618182817       42.17274721000253       51.68462659414544
H           63.16449502876299       41.48926134690851       51.11947745021740
H           62.73120028638254       43.14859016800570       50.71178423621431
H           62.15558196512806       40.99506314566661       47.59923353553160
H           63.48033427686374       40.90728933842644       48.75465074318465
H           63.64179846642236       43.40446761456369       48.70463876258441
H           64.70998993302526       43.48352928928523       46.47837764114472
H           65.07555766586938       41.96626828145652       47.29800353823745
H           63.87092179389866       42.00185063158807       46.01249161184773
H           61.18155954506614       43.09479586562193       47.10967515430089
H           62.38148977834268       44.03718445884711       46.25526164760709
H           61.66924084356500       44.69689321008102       49.12152626088076
H           62.56431993312399       46.90073928327992       48.50629274848531
H           63.75498044041817       45.65578958435997       48.12856729227951
H           62.79427675470321       46.37459361564208       46.83761722829485
H           60.29294413564212       45.50326111898778       46.54824349932846
H           60.24162804022848       46.54479586001948       47.96493676334818
H           59.36594908134266       43.64936769592919       48.13404505452053
H           58.64346255371631       46.10966886813488       49.78156610274402
H           58.12165102657806       44.45488474475494       50.09335673032371
H           59.81927595666846       44.88457986277621       50.26073252732257
H           57.75470794336092       46.08641852848044       47.32710968154934
H           57.00512070392269       44.64441867632849       48.00174669512622
H           58.67938765800231       44.62407355014073       45.46443534815204
H           56.68920806240645       42.57397557528073       46.52455150437266
H           57.71656046564209       42.41601916495832       45.09829556797819
H           58.43664238541422       42.42509353463868       46.69781430842049
H           56.66814483703722       46.07388774982964       45.28983013050401
H           55.66670491573974       44.74941473403258       45.87928371782061
H           56.18491588557610       43.44681160076264       43.83652305843210
H           54.74397531134990       44.78934613875597       42.37630210767566
H           54.21453905521917       44.97023182107212       44.04281729433219
H           55.14970844042620       46.25448232897561       43.26912913033465
H           58.37460614234737       44.28945888815826       43.26167107860471
H           57.77576033527361       45.94553229564288       43.17613908785610
H           56.53463824770914       45.42841358522267       41.12597091586682
H           59.46460817101221       44.58656153042983       41.04729916180523
H           58.53286123198997       45.21812386964301       39.68745009770751
H           58.87919400246955       46.24719871217498       41.06992985601154
H           56.14110857204201       43.00274995139456       41.63501482546184
H           57.83072836179350       42.67856001443808       41.29291082465303
H           56.51333608967530       44.17511579578491       39.11464574322657
H           57.85656031362345       41.43538894511604       39.13513012212200
H           57.61192413628596       42.46839080390136       37.72784136849094
H           58.72910622574361       42.96079868412807       38.99265096865550
H           54.56420625427850       42.90203110388825       40.00891436412613
H           55.46435829371015       41.40470470371668       39.77538813118832
H           55.54335723485115       41.88677193228580       37.31881141361668
H           52.77701310076814       41.74166679194922       38.57506619257398
H           53.20176084292913       41.22091861081469       36.94297366007628
H           53.87245505290598       40.37951545327923       38.33909900684995
H           54.18131819587256       44.37009990891222       38.23086974519740
H           53.38071094903114       43.57735499667374       36.88686789658266
H           56.32785373668686       44.30888368680283       36.82235099801770
H           56.08410486708389       43.93942652988018       34.40766187820375
H           55.58840094599164       42.48223758709717       35.26143031048996
H           54.36971016920304       43.57246847947573       34.60612790510391
H           53.84841427535927       45.77181430405132       35.85876368393836
H           55.44094486713023       46.09722027675447       35.18791975709270
H           54.87069823694611       46.36451443853675       38.15636303937540
H           57.25567098693709       46.20055607227482       37.55117083245648
H           57.06201897059869       47.48316989331258       36.35808631352104
H           56.87733477520076       47.83812378294930       38.07403403306354
H           53.41033757376994       47.81950822969585       36.55599921986779
H           54.91183122416308       48.62292051269972       36.13974270095911
H           55.00901241273091       48.75565856712885       38.89339233736828
H           55.39158355425019       50.61183158504060       37.30912722445325
H           53.65381430895240       50.74446961384893       37.02796816197446
H           54.32212309226599       51.10805542838273       38.62025423564501
H           52.10345901291836       49.10449137010677       38.08081449740568
H           52.78346841914987       49.55097835479237       39.64168985135010
H           52.75262852353928       46.69009653424673       38.61688746680042
H           54.45713229960082       47.16478714327594       40.36051676377551
H           53.21443709874945       47.87684439941590       41.38684422337541
H           53.16708241405524       46.15789215095939       41.00331174086699
H           50.82846392005385       48.16073758299288       40.44144317733527
H           50.92396644138056       46.40629797057358       40.34122414902239
H           50.17579520579304       48.21758419161922       38.01003845606949
H           49.51538785263165       46.07046951583511       36.92807015424683
H           51.24543284136323       46.13597692907351       37.23004026880716
H           50.20413578691976       45.18217894319312       38.28829581106152
H           48.53539712830368       46.40877472294224       39.81596335896071
H           47.93481945804578       47.08782631077337       38.31031033849526
H           48.85688731184155       48.79797399276453       40.64715520204257
H           48.90409641503179       49.94941346859249       38.45610630359995
H           47.23834090397602       49.45636982334300       38.14856056872948
H           47.60647192435120       50.58276938273966       39.45472593911114
H           46.85944404101631       47.22379066541985       41.06969255176607
H           46.01364997626982       48.12544856097848       39.82649249073142
H           46.27390000776595       50.20456657087819       41.16025535994432
H           44.87273765442114       47.84522577797833       42.48225699946337
H           44.58026741674197       49.53963934231729       42.87460951095905
H           44.22175409483867       48.92769663449258       41.26026762665791
H           46.83264778711776       50.16772933510351       43.47036662566880
H           48.23187503431294       49.78024542126361       42.49642688760923
H           46.66820681845213       47.47842410114959       43.63481220892687
H           49.64013312201023       48.06244817695178       43.26646820766987
H           48.99435014662116       46.54868845471018       43.89421063747184
H           48.66473055461120       47.02252270890514       42.23829477395828
H           46.82977159939934       49.21120131556621       45.44827100515803
H           48.58135228075006       49.17290394247569       45.27269769404382
H           48.58582083796791       46.79064284751269       45.98813608959327
H           48.10167841286175       47.26188084008579       48.34932283182182
H           48.88658671578839       48.64888726773170       47.60427515593445
H           47.14838375196324       48.67777480393526       47.89445181471427
H           45.64046374293945       47.19970711892466       45.79845306006699
H           46.15835497387249       46.37994916801673       47.25969941781605
H           47.06780769144563       45.44443685715269       44.52854217975386
H           46.85892795366792       44.05177410025651       47.22909872629241
H           47.44914207845088       43.31399558938066       45.74065214013581
H           48.35121804248786       44.63039504978927       46.49013304172489
H           44.47508236976272       45.54307812424874       44.92394453834813
H           44.76321247972147       44.23875868368275       46.07090575936834
H           45.93882988194628       43.01911593294573       44.10209940038717
H           43.71393112448626       42.22604212605700       43.24294755686902
H           43.77011261713064       42.32556411852696       45.00061466363736
H           42.94307352817815       43.57643873978613       44.07183153721072
H           45.96904927397081       45.22742039652745       42.73375603754719
H           44.25036197960218       44.96305081688005       42.49858064906407
H           45.25463481496198       42.52946157560641       41.68653151822618
H           44.88501843577733       45.02817487208474       39.98714019905349
H           44.86805558645216       43.36989692175763       39.38734202584847
H           43.60528861949842       43.91981785529897       40.48868798081549
H           47.23693003287705       44.65770127603788       40.80046746466652
H           47.11600711692382       43.04128170192187       40.11856114517531
H           47.84215465720926       43.61712779720612       43.01198803843342
H           48.49331526267860       41.25663975438824       43.09843739660817
H           46.83122128083114       41.35503391008795       42.54957782200261
H           48.11818233057237       41.05184088841792       41.38265990793069
H           49.49395518629603       44.53810485920904       41.45621639510293
H           49.53300061454530       43.02353532968591       40.55564789787226
H           50.50209531280596       41.89396828780582       42.56609711949602
H           51.89590521005800       42.67053627220537       40.70445555409708
H           52.02308253404712       44.27170299269683       41.43437280752016
H           52.76001626726161       42.87642328071470       42.22500226631570
H           49.61648135591103       43.75130936307614       44.16575714187604
H           50.98789474692348       44.70318674151501       43.60608251046706
H           52.49188705908525       42.81264546951122       44.41759873937652
H           50.72583248101936       44.15671074474506       46.50597392057069
H           52.38599128351206       43.60800948338314       46.74386844685178
H           52.05202514483773       44.94721731785703       45.65186622817911
H           50.80023130357305       41.02630787958637       44.45118338041114
H           49.86082042273162       41.90648304904793       45.65503873908636
H           51.61603723159158       41.56096873402844       47.32690787403295
H           50.87254206589510       38.99279702733966       45.86131162687663
H           51.32260735982145       39.12771188521815       47.56078168508841
H           49.82480610875305       39.86179085040934       46.98173503724785
H           54.32183138638277       39.01436386765648       50.92220287604396
H           53.62522523592321       37.67137605849572       51.83054710392744
C           62.34921886760048       71.15760246248351       51.50327895166618
C           63.20376012136167       70.39665076074895       52.51739032087642
C           64.60260864652625       71.00478250700250       52.57680342518847
C           63.24558404877659       68.91352499445888       52.13269671297994
C           63.92989177210772       67.96311749829803       53.12823582951341
C           64.00854557482974       66.57690380936603       52.48893191237956
C           63.16498523898761       67.94132560176520       54.45870175142556
C           63.60097289597835       66.90514320187143       55.50577570954646
C           62.64609964919586       66.99621092159174       56.69580235787392
C           65.05800012389605       67.10100696089728       55.93796020799635
C           65.59076016529242       66.01877648117008       56.89541010818707
C           65.62095086523408       66.52210989133975       58.33947788335844
C           67.00618210047024       65.57289711604221       56.50035947330705
C           67.09011660318777       64.67512891807702       55.25831940273148
C           66.54767873702291       63.28145951439608       55.56577561325045
C           68.54816364390999       64.59049948847668       54.78521332234025
C           68.74085705986764       64.00474951887932       53.37990292042535
C           70.18345489196980       63.52366209938160       53.22512399295795
C           68.40197592835629       65.04163724541142       52.30157405468002
C           68.06714553459997       64.42349990841298       50.93812617098680
C           68.15082511664748       65.49891360492386       49.85480108184332
C           66.67532939600903       63.76103072399908       50.94125102195099
C           66.66367725059199       62.28200300650087       50.53525054724226
C           67.14855378056632       62.09869997631914       49.09929022190328
C           65.24402670390728       61.70961013891286       50.65750410737337
C           64.78498463041252       61.41080529523685       52.09008276969107
C           65.30979686685463       60.05123693967538       52.54646546026363
C           63.25174800117188       61.46971919936519       52.18098897639572
C           62.73390273274923       62.90050808315436       52.38771736021422
C           62.80199851581330       63.26373732516260       53.87042863567628
C           61.29618189986234       63.09818283196904       51.88737812073859
C           61.10513421846341       63.10761129469704       50.36596638967581
C           61.92995775012904       64.21442116971808       49.70885516716405
C           59.62745222925688       63.33355478616987       50.00843824926294
C           58.65425251041674       62.18492951141029       50.30652628534604
C           59.00633654740755       60.95251206039040       49.47790447082107
C           57.21062330576035       62.64523902622211       50.01429889655608
C           56.18284820221806       62.26201824926394       51.08650005971660
C           55.94298470837769       60.75321525022078       51.12468606185256
C           54.84001257889447       62.96698822323965       50.84165666474793
C           54.81533382215287       64.48218356041991       51.07810155461339
C           54.98807399546710       64.81299894010584       52.56055801370117
C           53.48902765432697       65.07658366755680       50.57868641212023
C           53.35016265880473       65.21001024015698       49.05398613225916
C           54.23434524310471       66.34139455714219       48.53416507714901
C           51.87474816828676       65.46590799014436       48.71679135570627
C           51.51358548331115       65.49893794459690       47.22570641729219
C           50.07590462368582       66.00196772871294       47.08039322628707
C           51.66304254195028       64.12242224206857       46.55056955610955
C           52.88772402833290       63.97784570249983       45.63704577585860
C           52.70843033535997       64.81436852890172       44.37080487958301
C           53.09758760464130       62.50727250551387       45.24656374910024
C           53.69287060988552       61.63822308666823       46.36232623479249
C           55.21736831111789       61.73499463349549       46.36409665155067
C           53.26268995563177       60.17235943946870       46.21732665201550
C           51.81711898470846       59.87769536678403       46.64167177942421
C           51.66803592541745       60.01008700492331       48.15304450358590
C           51.44061033173060       58.46347003280696       46.17404283224253
C           50.07297799637021       57.93085404098128       46.62443480007501
C           49.98223546563094       56.44488518668211       46.27585970710087
C           48.92086158072911       58.70686528771665       45.97405155425633
C           47.57456708461995       58.61225899240446       46.71202099877561
C           46.45201633458536       59.02048831664202       45.75878453177282
C           47.59918272626560       59.50224623705564       47.96180037749703
C           46.31549351117797       59.57232952246948       48.80399142639855
C           46.50057770921094       60.64697363491037       49.87659619307203
C           45.98781828846237       58.21458609991056       49.43691658242857
C           44.68914215794324       58.16155625315945       50.26232767868373
C           44.72064669347179       56.92844768006162       51.16338697797669
C           43.47913613463586       58.16901412106100       49.31656060721932
C           42.08207962466455       58.49230297014453       49.88413420983626
C           42.12423777393612       59.67133686051434       50.85716313240699
C           41.34890638514648       57.31393737660054       50.54226416464086
C           40.96143297749516       56.16339794257444       49.60398901053866
C           39.79308426112286       56.55990951162181       48.70180716043490
C           40.57666495601524       54.91099180886807       50.40722755629325
C           41.74751133427783       54.19287830527601       51.08912672381827
C           42.67846089076032       53.55246817102759       50.06373505524830
C           41.23292773254077       53.12537052956918       52.06343057720796
C           42.30974705100733       52.63588233894074       53.05197169436277
C           42.48925831240970       51.12126511557265       52.95478993959998
C           41.98401041566336       53.03229530660377       54.49860821709142
C           41.98530937567917       54.54085379803812       54.77125355288445
C           43.38111598614723       55.13173948781051       54.57470675242443
C           41.55475587884115       54.85329389322996       56.21248311814174
C           40.17613270017802       54.35505099517681       56.65822306569515
C           39.07511758908324       54.79449303958894       55.69371367171101
C           39.84223998042386       54.88377168227085       58.06199115423434
C           40.84533892253889       54.54114357348465       59.16551722704518
C           41.03274035047052       53.04288458543897       59.37082234629705
H           62.30833684809156       72.21508781812453       51.75456470761850
H           62.76787840891032       71.06075820426454       50.50327129309122
H           61.33194209587606       70.77200209901106       51.48822325043562
H           40.07505902433128       52.56130059680913       59.55844181718970
H           41.48296580102624       52.58245550348755       58.49601051144341
H           41.68299804291187       52.85607829440810       60.22273682681865
H           39.74888991947081       55.97223362479220       58.00826457648002
H           38.86510070063052       54.48825065885852       58.35227690691693
H           42.30833521925678       54.42722831228880       56.87787256486313
H           41.57739882025330       55.93941967662398       56.34161762456040
H           41.30034060945464       55.03610269159715       54.07814478734392
H           44.08609212793505       54.63894757510332       55.24051907562245
H           43.73420461558322       55.00900103010846       53.55519372287912
H           43.38007085568039       56.19625941864744       54.80093458930638
H           41.00556264922667       52.62106708959908       54.74984370429510
H           42.71514103542800       52.56658551889081       55.16297591924840
H           40.38645567084321       53.52950493950060       52.62177464155044
H           40.85498134473833       52.28238690383377       51.47991732172565
H           40.18310355124621       53.26230727545677       56.69555014810985
H           38.09797864590739       54.51297682324428       56.08172383931448
H           39.09152194225150       55.87473519693155       55.56278777318295