3536
 energy: -3716.269503224587 gnorm: 0.000668455913 xtb: 6.6.1 (8d0f1dd)
C           65.67878851981068       46.58237415929500       57.83026357472963
C           65.93439240651239       45.45849122497494       56.83064588854918
C           65.03669930942134       45.64647541927476       55.60891754665023
C           65.67946538236319       44.07296692181619       57.43608117772557
C           66.48165817357665       43.72355466076709       58.69732540903326
C           67.98262599824282       43.88953794163653       58.47511687230895
C           66.14840562401537       42.28185413014037       59.10584974113748
C           66.57462188294427       41.87648287996119       60.52348152984812
C           66.35093152764404       40.37306496609127       60.69725256441710
C           65.80234351958759       42.65672946685822       61.60129656849136
C           66.58184000558923       43.79518095773621       62.27145232778330
C           67.60146959609834       43.23643267340174       63.26304328167405
C           65.61432747943267       44.74257557471731       62.99477738356415
C           64.91709126694917       45.76181534062389       62.07932563445054
C           65.85079928466894       46.93410338547132       61.80034351529183
C           63.61305139579862       46.21717606328738       62.74466243346835
C           62.84732491382637       47.37690709340787       62.09215417245634
C           61.58368601066355       47.61376567936063       62.91772809242208
C           62.48655179759885       47.10837836246927       60.62811172614551
C           62.04063673513390       48.35061344334441       59.83908916574411
C           61.34367735361539       47.89276684260204       58.55799349891096
C           63.22254233914161       49.28493428769377       59.51311293617671
C           63.05491788862584       50.77119680714556       59.87097369777591
C           62.87552528943837       50.97437234278053       61.37502912053046
C           61.91120792806139       51.47369250763160       59.12998533162227
C           62.06090725747843       51.61860362633720       57.60975821852578
C           63.41984340979483       52.20795889720321       57.22816023613872
C           60.97062882197099       52.54179944539084       57.04104189878733
C           59.51274707701498       52.15304654841493       57.31419157820626
C           59.10595466540263       50.93932342077173       56.48109364006862
C           58.57978201605052       53.32880891275791       56.99112390553741
C           58.61085824843883       54.46668606636706       58.02049015066854
C           57.69745504356928       54.13514112526855       59.19778141587581
C           58.17273560916802       55.79587417017920       57.39276626220686
C           59.21045384908675       56.41913194520527       56.45229822749145
C           60.29949781004123       57.13256897055880       57.25248832608033
C           58.56775771453548       57.42277539263869       55.48674856547495
C           57.62493721969427       56.83270244698874       54.43239390202346
C           58.38148333301850       55.97057909970368       53.42285480721327
C           56.89898374060064       57.94819036241719       53.67016639336546
C           55.90566540429294       58.80482627533231       54.46508611995849
C           54.75995507569993       57.95800563238482       55.01375551012258
C           55.37866883452725       59.91623622686986       53.54685545099633
C           54.66739524160921       61.06957871300683       54.26329767958023
C           54.01249479141213       61.98132537475860       53.22611791515253
C           55.62849018804488       61.86745054952985       55.16534259697073
C           55.30301569516932       61.77271274018343       56.66322692602219
C           54.02480575470378       62.54942573950346       56.97189585064199
C           56.49798178582144       62.29628922704519       57.47315873972507
C           56.33059762946064       62.30194940687158       58.99861584541163
C           57.48084919830940       63.08268585754445       59.63488331743137
C           56.26422802624663       60.88209373723734       59.57462043325363
C           55.76789081328137       60.83743848551621       61.03216407992900
C           56.87678581430765       60.39372513166379       61.98526883350516
C           54.56019121083108       59.90794899182531       61.20890259254146
C           53.27882921681111       60.34261681027778       60.48948075740908
C           52.74019882174242       61.64874126483986       61.06866396131095
C           52.20472153024932       59.25117366248193       60.60764690534923
C           52.40917530456815       58.03782165794095       59.68909736579933
C           52.00588194055110       58.38683842781399       58.25766142514215
C           51.59464352721601       56.85305903920154       60.22549778064096
C           51.82324359556974       55.51507697239956       59.51352983350227
C           50.72284448634172       54.53203028373524       59.91449354830947
C           53.22579023470337       54.92224677522722       59.72967640269264
C           53.61211196960021       54.53642400528739       61.16863743583671
C           54.53382705493073       55.58888737842921       61.78635881936157
C           54.33067641653888       53.17757646698482       61.21696655174801
C           53.48030869465858       51.95609732939964       60.85389439436826
C           52.44708981814519       51.66815189780210       61.94247671832837
C           54.33882676238881       50.69554032398174       60.66545290710830
C           55.42072543592158       50.73228648926554       59.57775322390849
C           54.85068359964727       51.15373158841430       58.22575382701910
C           56.07171195948298       49.34806218575527       59.43093881627024
C           56.99068632416289       48.92122297864586       60.58256039072781
C           58.31223888328542       49.68155405590328       60.52380533183644
C           57.24391720304716       47.40877818414538       60.52101149780582
C           57.74685211272406       46.79251527302904       61.83382853512965
C           58.30688662062638       45.39835120716218       61.54745215531281
C           56.62295926942600       46.74268576119100       62.88367117840372
C           57.04637476413128       47.15233431051623       64.29700245617239
C           58.06830232338376       46.17605906909237       64.87703273925320
C           55.84061431861220       47.20084031631232       65.24561763116677
C           54.73605312300128       48.21095542545407       64.91729207736816
C           55.28569645203491       49.63483789089560       64.82837405079864
C           53.63359606019898       48.18306968343472       65.98762282655413
C           52.96472594683724       46.82906530103375       66.26305882840421
C           52.35931410527730       46.23557388935281       64.99425309427195
C           51.89527973064770       47.01936887743268       67.34735669373489
C           51.39489242168329       45.71757733552163       67.96927128591864
C           50.42468493932854       45.98654063926427       69.11387517708823
H           65.80579246622294       47.55011016727379       57.34817112857493
H           64.66181412742343       46.52408770395373       58.21187834445212
H           66.36564931405428       46.52957208089137       58.67060479109519
H           50.90674291365493       46.57172330225116       69.89462926609853
H           49.56015684028304       46.54402281767099       68.75935640184302
H           50.07482683304676       45.05407163937046       69.55193369238673
H           52.31196958329814       47.63682558976332       68.14753678015994
H           51.04695781462316       47.56157213857688       66.92230596408383
H           54.06027095904645       48.55034058633297       66.92589380610858
H           52.85233713555162       48.88699292002656       65.68746933400401
H           54.28402251437083       47.95914087061039       63.95347358016373
H           55.96579725584076       49.74309119138015       63.98741840890028
H           54.47186658507653       50.34577428170003       64.69951046249571
H           55.82391590082555       49.89375126441855       65.73822297728125
H           55.40628431882173       46.19918659501940       65.26778236551900
H           56.20865159415666       47.42160107785899       66.25012335888482
H           55.81738238133364       47.40387261828308       62.56433920719660
H           56.20829550777781       45.73402798301136       62.92648407017198
H           53.71360480203701       46.13159661504847       66.65491573911018
H           51.85442451413498       45.29665669464865       65.21043250259660
H           51.63628604412342       46.92407747816896       64.56215155835019
H           53.13104235872055       46.03591247082233       64.25543079040639
H           57.51193402137100       48.14269653192574       64.25389572528401
H           58.99695068607006       46.19438452104975       64.31379256484124
H           58.29697191706840       46.44157470365118       65.90599039802576
H           57.67267867060045       45.16176645443227       64.86884063762074
H           58.56068686320009       47.41442385802267       62.21798620011123
H           57.55586388337183       44.78174446391120       61.05499993323178
H           59.17242735681556       45.46145190689415       60.88997505693953
H           58.61063959932569       44.89780462627795       62.46326906877681
H           56.32173608072858       46.89288384541118       60.23689927612912
H           57.97707668982139       47.21823981746540       59.73289212381236
H           56.49835162684948       49.15382061990906       61.53104319412566
H           58.94184479187203       49.42848086823066       61.37358357964823
H           58.84715498095647       49.43513457324152       59.60870790155481
H           58.14108189163056       50.75378680856560       60.54438459682593
H           55.27097750306758       48.61086901704216       59.31824412417740
H           56.66052771055542       49.33006239035988       58.50958040356589
H           56.19236997892360       51.45169352085401       59.86362566222669
H           54.03208049228909       50.49675912040730       57.93946482472077
H           54.48313095841402       52.17511902200632       58.25261391893509
H           55.62013459069702       51.09583361506887       57.45789581997145
H           54.81450617375069       50.47098138891001       61.62294281201805
H           53.66200793150303       49.86647004672432       60.43672028823839
H           52.93850584868816       52.14911872347738       59.92409673781864
H           52.94553580999087       51.42038605354013       62.87794702965175
H           51.80336582108558       52.52623802408102       62.11291246044289
H           51.81570611195750       50.82950869806902       61.65891849096948
H           55.18648137698749       53.23461982857729       60.54397384106457
H           54.72204268366144       53.02796011084730       62.22628467774615
H           52.71077704643618       54.47991922529926       61.78339460893518
H           54.78035642534147       55.32678627894376       62.81301075414790
H           55.46269841916134       55.65311287048549       61.22216588930698
H           54.06569062278539       56.56880231858278       61.79067412244763
H           53.28733933633156       54.03439059560993       59.09899088090449
H           53.96420541250927       55.62811607657517       59.34337129007141
H           51.72294402878902       55.67750459758467       58.43419131787913
H           50.67592810265525       54.40919097859665       60.99374924577229
H           49.75325841067613       54.89755710626505       59.58082735634650
H           50.89221309143449       53.55701780956083       59.46423781299357
H           51.81238923892300       56.72129447432953       61.28734746063111
H           50.53346289060131       57.10826925951196       60.14582457223912
H           53.46870801304001       57.76722241836654       59.69330888062634
H           52.51171355645990       59.28954539413239       57.92315103428272
H           52.26578899289211       57.58804106630461       57.56763993722832
H           50.93255558954449       58.55881564258508       58.19879406151449
H           52.17604403883272       58.91884393171650       61.64827283219223
H           51.22648859234321       59.68442392421736       60.38201129298686
H           53.49914298247027       60.50695965072188       59.43069503400303
H           51.82339835197173       61.94160008483545       60.56146701509986
H           52.52728887321501       61.53219193977356       62.12966295485829
H           53.45506647836590       62.45839738137417       60.95172623710899
H           54.84697528567241       58.91151177600534       60.86549036405557
H           54.33614052344220       59.83036325805538       62.27641639463549
H           55.46750078303094       61.84734519909520       61.32843186960228
H           56.53378419996422       60.44372484474460       63.01721527845845
H           57.17535929591353       59.36880681866464       61.77582987732143
H           57.75150755828876       61.03270726858158       61.88744583183696
H           55.60320050023869       60.27873311732906       58.95337488863395
H           57.25772430877623       60.43242934079876       59.50913012135869
H           55.39684771284131       62.82041914398095       59.24057687098750
H           57.35219406699575       63.15613090864430       60.71232853520883
H           58.43159437883752       62.59251095651065       59.43690158198188
H           57.53383956659333       64.09359566365698       59.23446195649272
H           57.37902902571368       61.69734526727830       57.22375445639855
H           56.69988804723673       63.32099857164229       57.14733546187691
H           55.14014385380930       60.71750286871539       56.90904635794879
H           53.23055199460541       62.26798667109300       56.28505639749864
H           53.67475596681508       62.35769057102043       57.98289081389444
H           54.19810183425279       63.61820790092976       56.86889558799739
H           56.65018675222125       61.51867294729016       55.00469005972468
H           55.60695694583473       62.92162870922265       54.87940976607396
H           53.86951710853633       60.64896640363214       54.88088122121292
H           53.47396532756684       62.78994074068628       53.71483862005928
H           54.76502410272820       62.41441331531502       52.57028210843583
H           53.30601307678436       61.42301769683117       52.61469889386361
H           56.21366922914269       60.33670328464781       52.98100354850306
H           54.68968431278927       59.46870472333199       52.82518641529431
H           56.42556587198849       59.27183460983315       55.30671886491190
H           54.27595250846356       57.40619885353603       54.21036948080032
H           55.12148266419876       57.24737586063786       55.75271971546965
H           54.01364461973894       58.58322009043519       55.49735155274622
H           57.65811803472367       58.60457961071165       53.23533053814993
H           56.35395417067937       57.49646391246018       52.83844035597224
H           56.87920608912685       56.19998303909209       54.92155261321697
H           58.92001801942492       55.16380295075152       53.91223004888590
H           57.69132079340309       55.52363522032149       52.71144363368495
H           59.09447171886342       56.57436008567807       52.86691655482702
H           58.02038964283715       58.15243257756512       56.08722691928914
H           59.36422513920652       57.96243035593367       54.96639368911165
H           59.69062350367215       55.62468206351923       55.87539353576017
H           59.88437719662537       57.98551658871220       57.78646637331472
H           60.74983673049056       56.46246877386398       57.98106664920192
H           61.08457663433107       57.49256775973436       56.59023219791061
H           57.24077482687888       55.61685123251829       56.85406643435159
H           57.95335500978858       56.51323210171340       58.18813224086801
H           59.62893226497384       54.58011606953589       58.40492891669803
H           56.65923592566534       54.10980692986022       58.87169071209660
H           57.94807565327097       53.16461381379641       59.61783887024835
H           57.79245494484393       54.87943130809936       59.98602638366497
H           58.84620904078706       53.70968882769137       56.00396048317644
H           57.55439099079666       52.95876567650505       56.92504440238528
H           59.39347040161794       51.90277667078175       58.37115113863619
H           59.76983063227746       50.09747060247462       56.66108091780944
H           58.09244153158301       50.62875498477364       56.72718139450279
H           59.14057013613926       51.17955939698648       55.42005929384928
H           61.15052144756545       53.54234605454795       57.44048990142257
H           61.10400860863617       52.60223400383082       55.95737405557335
H           61.97654316954303       50.63431608384015       57.13896456589048
H           63.60674757028627       53.12357733287106       57.78705578762170
H           64.22944747398401       51.51061177377569       57.42631090326715
H           63.44141002618561       52.44755601543227       56.16788886716504
H           60.98727541645045       50.93767465301914       59.34912613399814
H           61.81237576602772       52.47942684842821       59.55000306189522
H           63.99604160121611       51.26214109926401       59.59696218724357
H           63.69267906314880       50.51115531877046       61.92417474503122
H           62.86713757325772       52.03618636638827       61.61192857013234
H           61.94079317345828       50.54446300500698       61.72467437861908
H           64.11288111032968       48.93263362063175       60.03829704081397
H           63.44622491431499       49.21403712657494       58.44664282774922
H           61.30497047718562       48.89234594261463       60.43630134629888
H           62.02011331067141       47.29518137784859       57.94781104764463
H           60.46953629818629       47.28677418619644       58.79029191078195
H           61.01778121136594       48.74541514456028       57.96844801775401
H           63.33961407137875       46.66775997493379       60.11026581117191
H           61.68148659631762       46.36929668843792       60.60665548192686
H           63.46771994130027       48.27393273164997       62.14702498062488
H           60.93080942336925       46.74449434199249       62.85978149904378
H           61.83831676595747       47.78156383879632       63.96077697115675
H           61.03089314160095       48.47959269338306       62.56437702410728
H           62.94404077474164       45.35630131606067       62.80289936711715
H           63.84927611627145       46.51698334212786       63.77000486014506
H           64.67781524912390       45.27125258837234       61.12989748760025
H           65.45107940451892       47.58039651016691       61.02448762199162
H           65.99045416835072       47.52193580284101       62.70476745015924
H           66.82166664985877       46.57600917617493       61.46902896387440
H           64.86310034909150       44.13520652139987       63.50572584258859
H           66.15768615737714       45.29345798181253       63.76579994025347
H           67.12641850367753       44.35638424148875       61.50652966776484
H           67.09487991394393       42.73875180218032       64.08833784909410
H           68.25875334611622       42.51393659884246       62.78405319368866
H           68.21713764499043       44.03574531829700       63.67048495138922
H           64.89471096536614       43.05968777611293       61.15101850406752
H           65.48747340574624       41.96716784052827       62.38866312315623
H           67.64615693997270       42.06609521164275       60.63877107688564
H           66.90152032206447       39.80969745031868       59.94616884425614
H           66.68487875526058       40.04472048762631       61.67952243859179
H           65.29405005830215       40.13355182954970       60.59529911108137
H           65.06840833282156       42.13140791217089       59.02299040611768
H           66.62308378226983       41.60524250597354       58.38920590847633
H           66.16899261617877       44.39433377080402       59.50069328251055
H           68.23886579551893       44.93071587873300       58.29942164018161
H           68.54243377768429       43.55236759381442       59.34448839186510
H           68.30793217902867       43.30679219054755       57.61527246241847
H           64.61491078201851       43.99539682701740       57.67606180468744
H           65.89554020032924       43.32098654466817       56.67094466649795
H           66.97574124382989       45.51354520721468       56.49587290863003
H           63.98827270888389       45.61990624874622       55.89994063036202
H           65.23651697334004       46.60290703717413       55.13200407579298
H           65.20818501179889       44.85883239719961       54.87763798899584
H           50.89423735852495       45.10727487333015       67.21491117410230
H           52.24613813959231       45.14295902042380       68.34469586688608
C           49.56633891061253       68.81268523134187       60.58149020389700
C           49.45440946509439       68.33256504032654       59.13445496716628
C           49.22908801447817       69.52448865691287       58.20802175176242
C           48.32990811504549       67.29680761727666       59.02291832053061
C           48.18623059711845       66.59103765681944       57.66556505198661
C           46.92352949920985       65.72960890484937       57.69551833630405
C           49.43107204435364       65.74943468896733       57.35950501489089
C           49.40155467969840       64.92314727609627       56.06570693765146
C           50.65161504885815       64.04574975499094       56.01663284965509
C           49.31148723560031       65.83261248892390       54.83446760408773
C           49.20663978761862       65.12220710442948       53.47609819179719
C           49.24123711803708       66.16695860179921       52.36150890990672
C           47.92690627998018       64.28309560539176       53.41701491617064
C           47.65459420009041       63.50026932373375       52.12319266834875
C           46.37328279725088       62.69394303061218       52.33806327018220
C           48.85234157879071       62.60852416992250       51.76766456034684
C           48.62786994199976       61.52555060430137       50.70248704991895
C           49.91607471196443       60.71303050148418       50.55919728924032
C           48.19764931149363       62.11650770066473       49.35682752390645
C           47.68052865870177       61.08461878807763       48.34383705603670
C           47.60947036922455       61.72718425191630       46.96005152428325
C           46.30968026245404       60.50409874930895       48.74554477514307
C           46.33651358515990       59.01216849990068       49.09644277052045
C           46.59086308677581       58.17375044456649       47.84505256475220
C           45.01298016916220       58.54939775365636       49.72166402647581
C           44.64089430991103       59.15249988230521       51.08048604082406
C           45.74649161601441       58.93896114820446       52.11190604038025
C           43.36609788926130       58.50239014016680       51.63426235501645
C           42.09901382353966       58.57662264977931       50.77635471723973
C           41.74501468669482       60.02056816512523       50.42261600312831
C           40.91952544077976       57.94169957620306       51.52991750962324
C           41.06742204548412       56.44876284789428       51.84614861810100
C           41.01791553005121       55.60161269829011       50.57641341767376
C           39.98672069374023       55.98982308377806       52.83682893931640
C           40.44165568869106       54.80400355760310       53.70269545087795
C           39.23419368869148       54.02315055155387       54.21292841206512
C           41.33243387523672       55.30905500630443       54.84711966694685
C           42.07526559883548       54.20882853685580       55.62431500618663
C           41.33411987726238       53.89511234057877       56.92703766555825
C           43.52042220822650       54.57104422316924       56.00870391336475
C           44.57620737394350       54.90343059661988       54.92791819357635
C           44.75098752239529       56.41398050492086       54.75419333872738
C           44.36270596065878       54.23996271896973       53.55938454888378
C           44.90255147233868       52.80549447200035       53.43538623348591
C           46.42772677552141       52.81734796912269       53.37060274766438
C           44.29990018095317       52.17072487426870       52.17216307024082
C           44.80067310579644       50.76819551711063       51.79206846957859
C           44.33826651507076       50.43998541543582       50.37287777179534
C           44.29631125768602       49.73342166648143       52.80209666710046
C           44.81314135025505       48.29353435659513       52.65699438228768
C           44.08199978231287       47.42822103731542       53.68291230849314
C           46.33671627929799       48.22885157363353       52.82788133325390
C           46.92966694670532       46.80908203890030       52.85881767926982
C           47.19750887653728       46.36496167371557       54.29811942478011
C           48.24455843281866       46.72477359577562       52.07229733103598
C           48.12263678396641       46.77626923047470       50.54527176610249
C           47.39731298439720       45.54141545854444       50.01056058612732
C           49.52182266112791       46.85801522706157       49.91178887557541
C           50.19657745974541       48.23284051920815       49.99003236798433
C           49.51072167270435       49.21774397151465       49.04220596382608
C           51.69065719654844       48.16611466268453       49.62913245779920
C           52.55820292421383       47.22040542188634       50.46873301565767
C           52.37917837308230       47.47021717228992       51.96660317812943
C           54.05165095101099       47.36482331237385       50.13695089079270
C           54.48077557834409       47.19247124208202       48.67382779176713
C           53.93775846341608       45.90544862924731       48.05963662384410
C           56.01462167622463       47.17615603272023       48.58883123795637
C           56.67756750767193       48.55788853029236       48.69560120986966
C           56.95043051134741       49.10326317060104       47.29576021499585
C           57.98021980713435       48.49566596601794       49.50352397393997
C           57.75616078830212       48.39247315424340       51.01688770374519
C           57.45300370960661       49.77839849040085       51.58791213906598
C           58.96605526124858       47.80691154321875       51.75930749640887
C           59.33229421294187       46.35774381108823       51.42142273843121
C           58.18459945336444       45.38743173369249       51.70234732977059
C           60.62173119278027       45.92412444749849       52.14160586010986
C           60.51393928115188       45.74187747675742       53.66803230284584
C           61.11422355422935       46.93224369482564       54.41365240349127
C           61.20010602635760       44.43682343160508       54.09273343585755
C           60.88301290446907       43.93585957793663       55.50762501081367
C           61.78357862035183       42.73522238206282       55.80260926636488
C           59.40255224095906       43.54091328391664       55.65933588864753
C           58.51084600586795       44.58162820437082       56.35246052414737
C           58.82297619958852       44.64904536332303       57.84378554956976
C           57.03507615011659       44.22600717879356       56.12415777870666
C           56.03014414350103       45.33357843166645       56.47504476534257
C           54.63489303231516       44.72929503948031       56.62549207717984
C           56.04538199883528       46.43306333604951       55.40781994087661
C           55.21409788062510       47.66267687776951       55.76689036048597
C           55.46042738830981       48.80238101769810       54.78773941641526
H           48.64195223040610       69.29312604276447       60.89668405469187
H           49.76188457416537       67.97771246801008       61.25154481042136
H           50.37661987373579       69.53186082085190       60.68494020099905
H           56.50067240998477       49.12022173460693       54.82982916732794
H           55.23799452946164       48.48563450921672       53.77084664168036
H           54.83179081202508       49.65668498422662       55.02405959462835
H           57.07718216146392       46.75710421865222       55.25181355720326
H           55.68467564367622       46.01896843907866       54.46191019743402
H           56.88833437752616       43.95747289103728       55.07365935135613
H           56.80664038199144       43.33516157725280       56.71559616311896
H           58.71350584093254       45.56445805588585       55.91835041362601
H           58.56504397035688       43.71027038396498       58.32883875979086
H           59.88068605587475       44.83935439780128       58.00864791104019
H           58.25770823331173       45.44444625254819       58.32141296950560
H           58.99801534918709       43.33322362654491       54.66638495578346
H           59.33154816729005       42.61022407874925       56.22797792670610
H           60.90969762581500       43.64223956630558       53.40002102668682
H           62.28258252675889       44.56858989361480       53.99929698035561
H           56.31022329990087       45.77975965003279       57.43481328927526
H           53.91493726352768       45.48202990129725       56.93487789285994
H           54.30514019602945       44.29935388158923       55.68155069483940