      -----------------------------------------------------------      
     |                   =====================                   |     
     |                           x T B                           |     
     |                   =====================                   |     
     |                         S. Grimme                         |     
     |          Mulliken Center for Theoretical Chemistry        |     
     |                    University of Bonn                     |     
      -----------------------------------------------------------      

   * xtb version 6.6.1 (8d0f1dd) compiled by 'stahn@M-Bot' on 2023-08-01

   xtb is free software: you can redistribute it and/or modify it under
   the terms of the GNU Lesser General Public License as published by
   the Free Software Foundation, either version 3 of the License, or
   (at your option) any later version.
   
   xtb is distributed in the hope that it will be useful,
   but WITHOUT ANY WARRANTY; without even the implied warranty of
   MERCHANTABILITY or FITNESS FOR A PARTICULAR PURPOSE.  See the
   GNU Lesser General Public License for more details.
   
   Cite this work as:
   * C. Bannwarth, E. Caldeweyher, S. Ehlert, A. Hansen, P. Pracht,
     J. Seibert, S. Spicher, S. Grimme, WIREs Comput. Mol. Sci., 2020, 11,
     e01493. DOI: 10.1002/wcms.1493
   
   for GFN2-xTB:
   * C. Bannwarth, S. Ehlert and S. Grimme., J. Chem. Theory Comput., 2019,
     15, 1652-1671. DOI: 10.1021/acs.jctc.8b01176
   for GFN1-xTB:
   * S. Grimme, C. Bannwarth, P. Shushkov, J. Chem. Theory Comput., 2017,
     13, 1989-2009. DOI: 10.1021/acs.jctc.7b00118
   for GFN0-xTB:
   * P. Pracht, E. Caldeweyher, S. Ehlert, S. Grimme, ChemRxiv, 2019, preprint.
     DOI: 10.26434/chemrxiv.8326202.v1
   for GFN-FF:
   * S. Spicher and S. Grimme, Angew. Chem. Int. Ed., 2020, 59, 15665-15673.
     DOI: 10.1002/anie.202004239
   
   for ALPB and GBSA implicit solvation:
   * S. Ehlert, M. Stahn, S. Spicher, S. Grimme, J. Chem. Theory Comput.,
     2021, 17, 4250-4261. DOI: 10.1021/acs.jctc.1c00471
   
   for DFT-D4:
   * E. Caldeweyher, C. Bannwarth and S. Grimme, J. Chem. Phys., 2017,
     147, 034112. DOI: 10.1063/1.4993215
   * E. Caldeweyher, S. Ehlert, A. Hansen, H. Neugebauer, S. Spicher,
     C. Bannwarth and S. Grimme, J. Chem. Phys., 2019, 150, 154122.
     DOI: 10.1063/1.5090222
   * E. Caldeweyher, J.-M. Mewes, S. Ehlert and S. Grimme, Phys. Chem. Chem. Phys.
     2020, 22, 8499-8512. DOI: 10.1039/D0CP00502A
   
   for sTDA-xTB:
   * S. Grimme and C. Bannwarth, J. Chem. Phys., 2016, 145, 054103.
     DOI: 10.1063/1.4959605
   
   in the mass-spec context:
   * V. Asgeirsson, C. Bauer and S. Grimme, Chem. Sci., 2017, 8, 4879.
     DOI: 10.1039/c7sc00601b
   * J. Koopman and S. Grimme, ACS Omega 2019, 4, 12, 15120-15133.
     DOI: 10.1021/acsomega.9b02011
   
   for metadynamics refer to:
   * S. Grimme, J. Chem. Theory Comput., 2019, 155, 2847-2862
     DOI: 10.1021/acs.jctc.9b00143
   
   for SPH calculations refer to:
   * S. Spicher and S. Grimme, J. Chem. Theory Comput., 2021, 17, 1701-1714
     DOI: 10.1021/acs.jctc.0c01306
   
   with help from (in alphabetical order)
   P. Atkinson, C. Bannwarth, F. Bohle, G. Brandenburg, E. Caldeweyher
   M. Checinski, S. Dohm, S. Ehlert, S. Ehrlich, I. Gerasimov, C. Hölzer
   A. Katbashev, J. Koopman, C. Lavigne, S. Lehtola, F. März, M. Müller,
   F. Musil, H. Neugebauer, J. Pisarek, C. Plett, P. Pracht, F. Pultar,
   J. Seibert, P. Shushkov, S. Spicher, M. Stahn, M. Steiner, T. Strunk,
   J. Stückrath, T. Rose, and J. Unsleber
   
 * started run on 2024/06/21 at 21:21:21.413     

           -------------------------------------------------
          |                Calculation Setup                |
           -------------------------------------------------

          program call               : /home/abt-grimme/AK-bin/xtb input.xyz --input input.inp --opt --gbsa water
          hostname                   : boar010.thch.uni-bonn.de
          coordinate file            : input.xyz
          omp threads                :                     8

   ID    Z sym.   atoms
    1    6 C      1-90, 273-362, 545-634, 817-906, 1089-1178, 1361-1450,
                  1633-1722, 1905-1994, 2177-2266, 2449-2538, 2721-2810,
                  2993-3082, 3265-3354
    2    1 H      91-272, 363-544, 635-816, 907-1088, 1179-1360, 1451-1632,
                  1723-1904, 1995-2176, 2267-2448, 2539-2720, 2811-2992,
                  3083-3264, 3355-3536

molecular fragmentation (1/2 indicates fragments):
111111111111111111111111111111111111111111111111111111111111111111111111
111111111111111111111111111111111111111111111111111111111111111111111111
111111111111111111111111111111111111111111111111111111111111111111111111
111111111111111111111111111111111111111111111111111111112222222222222222
222222222222222222222222222222222222222222222222222222222222222222222222
222222222222222222222222222222222222222222222222222222222222222222222222
222222222222222222222222222222222222222222222222222222222222222222222222
222222222222222222222222222222222222222222222222222222222222222222222222
222222222222222222222222222222222222222222222222222222222222222222222222
222222222222222222222222222222222222222222222222222222222222222222222222
222222222222222222222222222222222222222222222222222222222222222222222222
222222222222222222222222222222222222222222222222222222222222222222222222
222222222222222222222222222222222222222222222222222222222222222222222222
222222222222222222222222222222222222222222222222222222222222222222222222
222222222222222222222222222222222222222222222222222222222222222222222222
222222222222222222222222222222222222222222222222222222222222222222222222
222222222222222222222222222222222222222222222222222222222222222222222222
222222222222222222222222222222222222222222222222222222222222222222222222
222222222222222222222222222222222222222222222222222222222222222222222222
222222222222222222222222222222222222222222222222222222222222222222222222
222222222222222222222222222222222222222222222222222222222222222222222222
222222222222222222222222222222222222222222222222222222222222222222222222
222222222222222222222222222222222222222222222222222222222222222222222222
222222222222222222222222222222222222222222222222222222222222222222222222
222222222222222222222222222222222222222222222222222222222222222222222222
222222222222222222222222222222222222222222222222222222222222222222222222
222222222222222222222222222222222222222222222222222222222222222222222222
222222222222222222222222222222222222222222222222222222222222222222222222
222222222222222222222222222222222222222222222222222222222222222222222222
222222222222222222222222222222222222222222222222222222222222222222222222
222222222222222222222222222222222222222222222222222222222222222222222222
222222222222222222222222222222222222222222222222222222222222222222222222
222222222222222222222222222222222222222222222222222222222222222222222222
222222222222222222222222222222222222222222222222222222222222222222222222
222222222222222222222222222222222222222222222222222222222222222222222222
222222222222222222222222222222222222222222222222222222222222222222222222
222222222222222222222222222222222222222222222222222222222222222222222222
222222222222222222222222222222222222222222222222222222222222222222222222
222222222222222222222222222222222222222222222222222222222222222222222222
222222222222222222222222222222222222222222222222222222222222222222222222
222222222222222222222222222222222222222222222222222222222222222222222222
222222222222222222222222222222222222222222222222222222222222222222222222
222222222222222222222222222222222222222222222222222222222222222222222222
222222222222222222222222222222222222222222222222222222222222222222222222
222222222222222222222222222222222222222222222222222222222222222222222222
222222222222222222222222222222222222222222222222222222222222222222222222
222222222222222222222222222222222222222222222222222222222222222222222222
222222222222222222222222222222222222222222222222222222222222222222222222
222222222222222222222222222222222222222222222222222222222222222222222222
22222222
# atoms in fragment 1/2:   272  3264
 fragment masses (1/2) :     1264.41    15172.94
CMA distance (Bohr)    :  24.525
constraining FC (au)   :  0.0500

           -------------------------------------------------
          |                 G F N 2 - x T B                 |
           -------------------------------------------------

        Reference                      10.1021/acs.jctc.8b01176
      * Hamiltonian:
        H0-scaling (s, p, d)           1.850000    2.230000    2.230000
        zeta-weighting                 0.500000
      * Dispersion:
        s8                             2.700000
        a1                             0.520000
        a2                             5.000000
        s9                             5.000000
      * Repulsion:
        kExp                           1.500000    1.000000
        rExp                           1.000000
      * Coulomb:
        alpha                          2.000000
        third order                    shell-resolved
        anisotropic                    true
        a3                             3.000000
        a5                             4.000000
        cn-shift                       1.200000
        cn-exp                         4.000000
        max-rad                        5.000000

      * Solvation model:               GBSA
        Solvent                        water
        Parameter file                 internal GFN2-xTB/GBSA
        Dielectric constant                8.0200E+01
        Reference state                gsolv [1 M gas/solution]
        Free energy shift                  1.8574E-03 Eh       1.1656E+00 kcal/mol
        Temperature                        2.9815E+02 K
        Density                            1.0000E+00 kg/L
        Solvent mass                       1.8000E+01 g/mol
        Interaction kernel             Still
        Born radius scaling (c1)           1.5524E+00
        Born radii integrator          GBOBC
        Born offset                        2.4628E-02 a0       4.6540E-02 AA
        H-bond correction              true
        Ion screening                  false
        Surface tension                    1.0000E-05 Eh       1.5569E+01 dyn/cm
        Grid points                               230 per atom
q/qsh data taken from xtbrestart
CAMM data taken from xtbrestart

          ...................................................
          :                      SETUP                      :
          :.................................................:
          :  # basis functions                7046          :
          :  # atomic orbitals                7046          :
          :  # shells                         4706          :
          :  # electrons                      7046          :
          :  max. iterations                   250          :
          :  Hamiltonian                  GFN2-xTB          :
          :  restarted?                       true          :
          :  GBSA solvation                   true          :
          :  PC potential                    false          :
          :  electronic temp.          300.0000000     K    :
          :  accuracy                    1.0000000          :
          :  -> integral cutoff          0.2500000E+02      :
          :  -> integral neglect         0.1000000E-07      :
          :  -> SCF convergence          0.1000000E-05 Eh   :
          :  -> wf. convergence          0.1000000E-03 e    :
          :  Broyden damping             0.4000000          :
          ...................................................

 iter      E             dE          RMSdq      gap      omega  full diag
   1  -3764.2155880 -0.376422E+04  0.618E-05   10.58       0.0  T
   2  -3764.2155880 -0.318323E-08  0.484E-05   10.58      34.7  T
   3  -3764.2155880 -0.335194E-08  0.310E-05   10.58      54.3  T

   *** convergence criteria satisfied after 3 iterations ***

         #    Occupation            Energy/Eh            Energy/eV
      -------------------------------------------------------------
         1        2.0000           -0.6182788             -16.8242
       ...           ...                  ...                  ...
      3517        2.0000           -0.3774516             -10.2710
      3518        2.0000           -0.3771383             -10.2625
      3519        2.0000           -0.3768720             -10.2552
      3520        2.0000           -0.3765752             -10.2471
      3521        2.0000           -0.3762934             -10.2395
      3522        2.0000           -0.3756998             -10.2233
      3523        2.0000           -0.3742917             -10.1850 (HOMO)
      3524                          0.0144148               0.3922 (LUMO)
      3525                          0.0146174               0.3978
      3526                          0.0160045               0.4355
      3527                          0.0167213               0.4550
      3528                          0.0167259               0.4551
       ...                                ...                  ...
      7046                          0.3674718               9.9994
      -------------------------------------------------------------
                  HL-Gap            0.3887065 Eh           10.5772 eV
             Fermi-level           -0.1799385 Eh           -4.8964 eV

 SCC (total)                   0 d,  0 h,  9 min,  3.563 sec
 SCC setup                      ...        0 min,  1.996 sec (  0.367%)
 Dispersion                     ...        0 min,  4.263 sec (  0.784%)
 classical contributions        ...        0 min,  0.154 sec (  0.028%)
 integral evaluation            ...        0 min,  7.337 sec (  1.350%)
 iterations                     ...        3 min, 54.191 sec ( 43.084%)
 molecular gradient             ...        4 min, 44.294 sec ( 52.302%)
 printout                       ...        0 min, 11.330 sec (  2.084%)

         :::::::::::::::::::::::::::::::::::::::::::::::::::::
         ::                     SUMMARY                     ::
         :::::::::::::::::::::::::::::::::::::::::::::::::::::
         :: total energy           -3715.353034050486 Eh    ::
         :: total w/o Gsasa/hb     -3715.244071577245 Eh    ::
         :: gradient norm              0.666045658569 Eh/a0 ::
         :: HOMO-LUMO gap             10.577242413034 eV    ::
         ::.................................................::
         :: SCC energy             -3764.215587988399 Eh    ::
         :: -> isotropic ES            0.438179331329 Eh    ::
         :: -> anisotropic ES          1.500689471813 Eh    ::
         :: -> anisotropic XC          2.301903055381 Eh    ::
         :: -> dispersion             -4.695718144492 Eh    ::
         :: -> Gsolv                  -0.044882381425 Eh    ::
         ::    -> Gelec                0.064080091816 Eh    ::
         ::    -> Gsasa               -0.104539544466 Eh    ::
         ::    -> Ghb                 -0.006280371902 Eh    ::
         ::    -> Gshift               0.001857443127 Eh    ::
         :: repulsion energy          48.130225881250 Eh    ::
         :: add. restraining           0.000000000000 Eh    ::
         :: total charge              -0.000000000008 e     ::
         :::::::::::::::::::::::::::::::::::::::::::::::::::::

      ----------------------------------------------------------- 
     |              Fast Inertial Relaxation Engine              |
      ----------------------------------------------------------- 

          ...................................................
          :                      SETUP                      :
          :.................................................:
          :   energy convergence        0.5000000E-05 Eh    :
          :   grad. convergence         0.1000000E-02 Eh/a0 :
          :   optimization log               true           :
          :   writing optlog all                1     steps :
          :   Hessian reset                    20     steps :
          :   time step scaling                 5     steps :
          :   maximium step len.        1.0000000     a0    :
          :   initial time step         0.2500000     fs    :
          :   maximum time step         1.2500000     fs    :
          :   power reset thr           0.0000000     au    :
          :   alpha parameter           0.1000000           :
          :   BFGS update                   false           :
          :   preconditioning               false           :
          ...................................................

........................................................................
.............................. CYCLE    1 ..............................
........................................................................

 iter      E             dE          RMSdq      gap      omega  full diag
   1  -3764.4787248 -0.376448E+04  0.761E-03   10.59       0.0  T
   2  -3764.4787689 -0.440484E-04  0.412E-03   10.58       1.0  T
   3  -3764.4787696 -0.688559E-06  0.180E-03   10.58       1.0  T
   4  -3764.4787701 -0.514549E-06  0.443E-04   10.58       3.8  T
   5  -3764.4787704 -0.274637E-06  0.177E-04   10.58       9.5  T
     SCC iter.                  ...        6 min, 27.527 sec
     gradient                   ...        4 min, 43.408 sec
 * total energy  : -3715.4036738 Eh     change    :  -0.5063972E-01 Eh
   gradient norm :     0.6338600 Eh/a0  converged?    E=F G=F D=F
   time step     :     0.2500000 fs     power     :   0.2620849E-05
   step length   :     0.0780591 a0     speed     :   0.7552640E-02

........................................................................
.............................. CYCLE    2 ..............................
........................................................................

 iter      E             dE          RMSdq      gap      omega  full diag
   1  -3764.8666609 -0.376487E+04  0.112E-02   10.60       0.0  T
   2  -3764.8667554 -0.944916E-04  0.606E-03   10.59       1.0  T
   3  -3764.8667569 -0.152759E-05  0.263E-03   10.59       1.0  T
   4  -3764.8667580 -0.111558E-05  0.656E-04   10.59       2.6  T
   5  -3764.8667586 -0.596371E-06  0.272E-04   10.59       6.2  T
   6  -3764.8667587 -0.468690E-07  0.125E-04   10.59      13.5  T
     SCC iter.                  ...        7 min, 36.390 sec
     gradient                   ...        4 min, 43.905 sec
 * total energy  : -3715.4739006 Eh     change    :  -0.7022685E-01 Eh
   gradient norm :     0.5875915 Eh/a0  converged?    E=F G=F D=F
   time step     :     0.2500000 fs     power     :   0.3582238E-05
   step length   :     0.1151465 a0     speed     :   0.1114104E-01

........................................................................
.............................. CYCLE    3 ..............................
........................................................................

 iter      E             dE          RMSdq      gap      omega  full diag
   1  -3765.3695276 -0.376537E+04  0.144E-02   10.61       0.0  T
   2  -3765.3696820 -0.154427E-03  0.781E-03   10.60       1.0  T
   3  -3765.3696845 -0.253085E-05  0.335E-03   10.60       1.0  T
   4  -3765.3696863 -0.180852E-05  0.842E-04   10.60       2.0  T
   5  -3765.3696873 -0.978988E-06  0.353E-04   10.60       4.8  T
   6  -3765.3696874 -0.755749E-07  0.157E-04   10.60      10.7  T
     SCC iter.                  ...        7 min, 41.768 sec
     gradient                   ...        4 min, 45.017 sec
 * total energy  : -3715.5571175 Eh     change    :  -0.8321690E-01 Eh
   gradient norm :     0.5293695 Eh/a0  converged?    E=F G=F D=F
   time step     :     0.2500000 fs     power     :   0.4174180E-05
   step length   :     0.1494992 a0     speed     :   0.1446485E-01

........................................................................
.............................. CYCLE    4 ..............................
........................................................................

 iter      E             dE          RMSdq      gap      omega  full diag
   1  -3765.9746241 -0.376597E+04  0.172E-02   10.62       0.0  T
   2  -3765.9748389 -0.214777E-03  0.931E-03   10.61       1.0  T
   3  -3765.9748425 -0.364073E-05  0.395E-03   10.61       1.0  T
   4  -3765.9748450 -0.247165E-05  0.992E-04   10.61       1.7  T
   5  -3765.9748463 -0.134668E-05  0.428E-04   10.61       3.9  T
   6  -3765.9748465 -0.108255E-06  0.185E-04   10.61       9.1  T
   7  -3765.9748465 -0.498321E-07  0.122E-04   10.61      13.8  T
     SCC iter.                  ...        8 min, 55.777 sec
     gradient                   ...        4 min, 43.782 sec
 * total energy  : -3715.6457655 Eh     change    :  -0.8864793E-01 Eh
   gradient norm :     0.4628739 Eh/a0  converged?    E=F G=F D=F
   time step     :     0.2500000 fs     power     :   0.4357353E-05
   step length   :     0.1803039 a0     speed     :   0.1744537E-01

........................................................................
.............................. CYCLE    5 ..............................
........................................................................

 iter      E             dE          RMSdq      gap      omega  full diag
   1  -3766.6664913 -0.376667E+04  0.195E-02   10.62       0.0  T
   2  -3766.6667565 -0.265198E-03  0.105E-02   10.62       1.0  T
   3  -3766.6667612 -0.468156E-05  0.437E-03   10.62       1.0  T
   4  -3766.6667641 -0.289794E-05  0.109E-03   10.62       1.5  T
   5  -3766.6667657 -0.158850E-05  0.479E-04   10.62       3.5  T
   6  -3766.6667658 -0.113425E-06  0.191E-04   10.62       8.8  T
   7  -3766.6667659 -0.498530E-07  0.125E-04   10.62      13.4  T
     SCC iter.                  ...        8 min, 58.126 sec
     gradient                   ...        4 min, 43.595 sec
 * total energy  : -3715.7322870 Eh     change    :  -0.8652154E-01 Eh
   gradient norm :     0.3935664 Eh/a0  converged?    E=F G=F D=F
   time step     :     0.2500000 fs     power     :   0.4147169E-05
   step length   :     0.2068494 a0     speed     :   0.2001379E-01

........................................................................
.............................. CYCLE    6 ..............................
........................................................................

 iter      E             dE          RMSdq      gap      omega  full diag
   1  -3767.5103381 -0.376751E+04  0.236E-02   10.63       0.0  T
   2  -3767.5107016 -0.363463E-03  0.126E-02   10.63       1.0  T
   3  -3767.5107087 -0.712652E-05  0.511E-03   10.63       1.0  T
   4  -3767.5107125 -0.376905E-05  0.126E-03   10.63       1.3  T
   5  -3767.5107145 -0.201825E-05  0.587E-04   10.63       2.9  T
   6  -3767.5107146 -0.156543E-06  0.217E-04   10.63       7.7  T
   7  -3767.5107147 -0.625728E-07  0.145E-04   10.63      11.6  T
     SCC iter.                  ...        8 min, 54.076 sec
     gradient                   ...        4 min, 43.688 sec
 * total energy  : -3715.8176836 Eh     change    :  -0.8539664E-01 Eh
   gradient norm :     0.3225795 Eh/a0  converged?    E=F G=F D=F
   time step     :     0.2750000 fs     power     :   0.3537941E-05
   step length   :     0.2538007 a0     speed     :   0.2232417E-01

........................................................................
.............................. CYCLE    7 ..............................
........................................................................

 iter      E             dE          RMSdq      gap      omega  full diag
   1  -3768.5022949 -0.376850E+04  0.274E-02   10.64       0.0  T
   2  -3768.5027401 -0.445182E-03  0.147E-02   10.64       1.0  T
   3  -3768.5027507 -0.105480E-04  0.565E-03   10.64       1.0  T
   4  -3768.5027549 -0.425704E-05  0.135E-03   10.64       1.2  T
   5  -3768.5027570 -0.205148E-05  0.695E-04   10.64       2.4  T
   6  -3768.5027572 -0.201778E-06  0.231E-04   10.64       7.3  T
   7  -3768.5027572 -0.685391E-07  0.159E-04   10.63      10.6  T
     SCC iter.                  ...        8 min, 59.431 sec
     gradient                   ...        4 min, 44.513 sec
 * total energy  : -3715.8925474 Eh     change    :  -0.7486375E-01 Eh
   gradient norm :     0.2661161 Eh/a0  converged?    E=F G=F D=F
   time step     :     0.3025000 fs     power     :   0.2586376E-05
   step length   :     0.3020840 a0     speed     :   0.2415558E-01

........................................................................
.............................. CYCLE    8 ..............................
........................................................................

 iter      E             dE          RMSdq      gap      omega  full diag
   1  -3769.6076666 -0.376961E+04  0.306E-02   10.65       0.0  T
   2  -3769.6081286 -0.462072E-03  0.163E-02   10.65       1.0  T
   3  -3769.6081436 -0.150093E-04  0.579E-03   10.65       1.0  T
   4  -3769.6081476 -0.394712E-05  0.133E-03   10.65       1.3  T
   5  -3769.6081489 -0.126631E-05  0.766E-04   10.65       2.2  T
   6  -3769.6081491 -0.237973E-06  0.220E-04   10.64       7.7  T
   7  -3769.6081492 -0.600430E-07  0.159E-04   10.64      10.6  T
     SCC iter.                  ...        9 min,  7.586 sec
     gradient                   ...        4 min, 43.914 sec
 * total energy  : -3715.9487502 Eh     change    :  -0.5620280E-01 Eh
   gradient norm :     0.2438747 Eh/a0  converged?    E=F G=F D=F
   time step     :     0.3327500 fs     power     :   0.1498748E-05
   step length   :     0.3462987 a0     speed     :   0.2517375E-01

........................................................................
.............................. CYCLE    9 ..............................
........................................................................

 iter      E             dE          RMSdq      gap      omega  full diag
   1  -3770.7439168 -0.377074E+04  0.325E-02   10.66       0.0  T
   2  -3770.7442967 -0.379904E-03  0.175E-02   10.66       1.0  T
   3  -3770.7443156 -0.188998E-04  0.539E-03   10.66       1.0  T
   4  -3770.7443189 -0.335351E-05  0.130E-03   10.66       1.3  T
   5  -3770.7443194 -0.498862E-06  0.753E-04   10.66       2.2  T
   6  -3770.7443196 -0.223428E-06  0.176E-04   10.66       9.6  T
     SCC iter.                  ...        7 min, 40.764 sec
     gradient                   ...        4 min, 43.630 sec
 * total energy  : -3715.9837400 Eh     change    :  -0.3498976E-01 Eh
   gradient norm :     0.2517989 Eh/a0  converged?    E=F G=F D=F
   time step     :     0.3660250 fs     power     :   0.5771544E-06
   step length   :     0.3789143 a0     speed     :   0.2504064E-01

........................................................................
.............................. CYCLE   10 ..............................
........................................................................

 iter      E             dE          RMSdq      gap      omega  full diag
   1  -3771.7979009 -0.377180E+04  0.334E-02   10.68       0.0  T
   2  -3771.7981459 -0.244997E-03  0.186E-02   10.68       1.0  T
   3  -3771.7981620 -0.160653E-04  0.474E-03   10.68       1.0  T
   4  -3771.7981704 -0.845920E-05  0.146E-03   10.68       1.1  T
   5  -3771.7981715 -0.109932E-05  0.824E-04   10.68       2.0  T
   6  -3771.7981717 -0.147931E-06  0.148E-04   10.67      11.4  T
   7  -3771.7981717 -0.247301E-07  0.112E-04   10.67      15.0  T
     SCC iter.                  ...        8 min, 57.146 sec
     gradient                   ...        4 min, 44.199 sec
 * total energy  : -3716.0011834 Eh     change    :  -0.1744343E-01 Eh
   gradient norm :     0.2608611 Eh/a0  converged?    E=F G=F D=F
   time step     :     0.4026275 fs     power     :  -0.2713379E-07
   step length   :     0.3974070 a0     speed     :   0.2387521E-01

........................................................................
.............................. CYCLE   11 ..............................
........................................................................
 * reset velocities

 iter      E             dE          RMSdq      gap      omega  full diag
   1  -3771.7793564 -0.377178E+04  0.105E-03   10.67       0.0  T
   2  -3771.7793572 -0.845397E-06  0.644E-04   10.67       2.6  T
   3  -3771.7793573 -0.114792E-07  0.271E-04   10.67       6.2  T
     SCC iter.                  ...        3 min, 51.656 sec
     gradient                   ...        4 min, 43.731 sec
 * total energy  : -3716.0037376 Eh     change    :  -0.2554184E-02 Eh
   gradient norm :     0.2545979 Eh/a0  converged?    E=F G=F D=F
   time step     :     0.2013138 fs     power     :   0.1663354E-06
   step length   :     0.0099121 a0     speed     :   0.1190989E-02

........................................................................
.............................. CYCLE   12 ..............................
........................................................................

 iter      E             dE          RMSdq      gap      omega  full diag
   1  -3771.7422065 -0.377174E+04  0.211E-03   10.67       0.0  T
   2  -3771.7422097 -0.317153E-05  0.129E-03   10.67       1.3  T
   3  -3771.7422097 -0.277400E-07  0.523E-04   10.67       3.2  T
   4  -3771.7422098 -0.811469E-07  0.136E-04   10.67      12.3  T
     SCC iter.                  ...        5 min,  9.304 sec
     gradient                   ...        4 min, 43.778 sec
 * total energy  : -3716.0086041 Eh     change    :  -0.4866534E-02 Eh
   gradient norm :     0.2424001 Eh/a0  converged?    E=F G=F D=F
   time step     :     0.2013138 fs     power     :   0.3128579E-06
   step length   :     0.0195860 a0     speed     :   0.2353358E-02

........................................................................
.............................. CYCLE   13 ..............................
........................................................................

 iter      E             dE          RMSdq      gap      omega  full diag
   1  -3771.6876704 -0.377169E+04  0.303E-03   10.68       0.0  T
   2  -3771.6876775 -0.713781E-05  0.186E-03   10.68       1.0  T
   3  -3771.6876776 -0.101971E-06  0.788E-04   10.68       2.1  T
   4  -3771.6876778 -0.183892E-06  0.208E-04   10.68       8.1  T
     SCC iter.                  ...        5 min,  8.422 sec
     gradient                   ...        4 min, 43.395 sec
 * total energy  : -3716.0153267 Eh     change    :  -0.6722610E-02 Eh
   gradient norm :     0.2247367 Eh/a0  converged?    E=F G=F D=F
   time step     :     0.2013138 fs     power     :   0.4261226E-06
   step length   :     0.0287949 a0     speed     :   0.3459846E-02

........................................................................
.............................. CYCLE   14 ..............................
........................................................................

 iter      E             dE          RMSdq      gap      omega  full diag
   1  -3771.6171827 -0.377162E+04  0.391E-03   10.68       0.0  T
   2  -3771.6171946 -0.119362E-04  0.241E-03   10.68       1.0  T
   3  -3771.6171948 -0.176582E-06  0.102E-03   10.68       1.7  T
   4  -3771.6171951 -0.306405E-06  0.270E-04   10.68       6.2  T
   5  -3771.6171952 -0.913860E-07  0.681E-05   10.68      24.7  T
     SCC iter.                  ...        6 min, 23.067 sec
     gradient                   ...        4 min, 44.197 sec
 * total energy  : -3716.0232854 Eh     change    :  -0.7958720E-02 Eh
   gradient norm :     0.2023765 Eh/a0  converged?    E=F G=F D=F
   time step     :     0.2013138 fs     power     :   0.4964009E-06
   step length   :     0.0373264 a0     speed     :   0.4484949E-02

........................................................................
.............................. CYCLE   15 ..............................
........................................................................

 iter      E             dE          RMSdq      gap      omega  full diag
   1  -3771.5326835 -0.377153E+04  0.468E-03   10.68       0.0  T
   2  -3771.5327007 -0.172262E-04  0.288E-03   10.68       1.0  T
   3  -3771.5327010 -0.259577E-06  0.122E-03   10.68       1.4  T
   4  -3771.5327014 -0.427289E-06  0.324E-04   10.68       5.2  T
   5  -3771.5327016 -0.130494E-06  0.809E-05   10.68      20.8  T
     SCC iter.                  ...        6 min, 23.720 sec
     gradient                   ...        4 min, 44.493 sec
 * total energy  : -3716.0317656 Eh     change    :  -0.8480187E-02 Eh
   gradient norm :     0.1763701 Eh/a0  converged?    E=F G=F D=F
   time step     :     0.2013138 fs     power     :   0.5186958E-06
   step length   :     0.0449902 a0     speed     :   0.5405799E-02

........................................................................
.............................. CYCLE   16 ..............................
........................................................................

 iter      E             dE          RMSdq      gap      omega  full diag
   1  -3771.4366770 -0.377144E+04  0.532E-03   10.68       0.0  T
   2  -3771.4366993 -0.223404E-04  0.328E-03   10.69       1.0  T
   3  -3771.4366997 -0.341756E-06  0.139E-03   10.69       1.2  T
   4  -3771.4367002 -0.542974E-06  0.368E-04   10.69       4.6  T
   5  -3771.4367004 -0.168135E-06  0.924E-05   10.69      18.2  T
     SCC iter.                  ...        6 min, 23.428 sec
     gradient                   ...        4 min, 43.509 sec
 * total energy  : -3716.0400406 Eh     change    :  -0.8274968E-02 Eh
   gradient norm :     0.1483006 Eh/a0  converged?    E=F G=F D=F
   time step     :     0.2013138 fs     power     :   0.4936936E-06
   step length   :     0.0516192 a0     speed     :   0.6202297E-02

........................................................................
.............................. CYCLE   17 ..............................
........................................................................

 iter      E             dE          RMSdq      gap      omega  full diag
   1  -3771.3208822 -0.377132E+04  0.643E-03   10.69       0.0  T
   2  -3771.3209150 -0.328007E-04  0.397E-03   10.69       1.0  T
   3  -3771.3209156 -0.506274E-06  0.168E-03   10.69       1.0  T
   4  -3771.3209163 -0.777032E-06  0.446E-04   10.69       3.8  T
   5  -3771.3209166 -0.244440E-06  0.110E-04   10.69      15.2  T
     SCC iter.                  ...        6 min, 21.748 sec
     gradient                   ...        4 min, 43.510 sec
 * total energy  : -3716.0481718 Eh     change    :  -0.8131177E-02 Eh
   gradient norm :     0.1177483 Eh/a0  converged?    E=F G=F D=F
   time step     :     0.2214451 fs     power     :   0.4189241E-06
   step length   :     0.0633824 a0     speed     :   0.6923370E-02

........................................................................
.............................. CYCLE   18 ..............................
........................................................................

 iter      E             dE          RMSdq      gap      omega  full diag
   1  -3771.1875255 -0.377119E+04  0.747E-03   10.69       0.0  T
   2  -3771.1875698 -0.443305E-04  0.463E-03   10.70       1.0  T
   3  -3771.1875705 -0.686937E-06  0.195E-03   10.70       1.0  T
   4  -3771.1875715 -0.102648E-05  0.519E-04   10.70       3.2  T
   5  -3771.1875718 -0.328007E-06  0.128E-04   10.70      13.1  T
   6  -3771.1875718 -0.131540E-07  0.880E-05   10.70      19.1  T
     SCC iter.                  ...        7 min, 42.458 sec
     gradient                   ...        4 min, 43.993 sec
 * total energy  : -3716.0551662 Eh     change    :  -0.6994409E-02 Eh
   gradient norm :     0.0909371 Eh/a0  converged?    E=F G=F D=F
   time step     :     0.2435896 fs     power     :   0.2980081E-06
   step length   :     0.0755672 a0     speed     :   0.7503941E-02

........................................................................
.............................. CYCLE   19 ..............................
........................................................................

 iter      E             dE          RMSdq      gap      omega  full diag
   1  -3771.0451250 -0.377105E+04  0.817E-03   10.70       0.0  T
   2  -3771.0451776 -0.525878E-04  0.510E-03   10.70       1.0  T
   3  -3771.0451783 -0.776748E-06  0.212E-03   10.70       1.0  T
   4  -3771.0451795 -0.120767E-05  0.565E-04   10.70       3.0  T
   5  -3771.0451799 -0.384444E-06  0.131E-04   10.70      12.8  T
   6  -3771.0451799 -0.117861E-07  0.860E-05   10.70      19.6  T
     SCC iter.                  ...        7 min, 42.814 sec
     gradient                   ...        4 min, 43.396 sec
 * total energy  : -3716.0601059 Eh     change    :  -0.4939685E-02 Eh
   gradient norm :     0.0813310 Eh/a0  converged?    E=F G=F D=F
   time step     :     0.2679486 fs     power     :   0.1558829E-06
   step length   :     0.0867665 a0     speed     :   0.7832774E-02

........................................................................
.............................. CYCLE   20 ..............................
........................................................................

 iter      E             dE          RMSdq      gap      omega  full diag
   1  -3770.9120913 -0.377091E+04  0.818E-03   10.71       0.0  T
   2  -3770.9121413 -0.500102E-04  0.516E-03   10.71       1.0  T
   3  -3770.9121420 -0.636680E-06  0.207E-03   10.71       1.0  T
   4  -3770.9121432 -0.123989E-05  0.554E-04   10.71       3.0  T
   5  -3770.9121436 -0.367738E-06  0.131E-04   10.71      12.8  T
   6  -3770.9121436 -0.102086E-07  0.808E-05   10.71      20.8  T
     SCC iter.                  ...        7 min, 42.274 sec
     gradient                   ...        4 min, 44.703 sec
 * total energy  : -3716.0628123 Eh     change    :  -0.2706472E-02 Eh
   gradient norm :     0.0951066 Eh/a0  converged?    E=F G=F D=F
   time step     :     0.2947435 fs     power     :   0.4454236E-07
   step length   :     0.0943454 a0     speed     :   0.7742688E-02
 * RMSD in coord.:     0.0375283 a0     energy gain  -0.7097783E+00 Eh

........................................................................
.............................. CYCLE   21 ..............................
........................................................................

 iter      E             dE          RMSdq      gap      omega  full diag
   1  -3770.8315352 -0.377083E+04  0.580E-03   10.72       0.0  T
   2  -3770.8315569 -0.216334E-04  0.369E-03   10.72       1.0  T
   3  -3770.8315570 -0.147701E-06  0.135E-03   10.72       1.2  T
   4  -3770.8315577 -0.691125E-06  0.367E-04   10.72       4.6  T
   5  -3770.8315579 -0.162499E-06  0.954E-05   10.72      17.6  T
     SCC iter.                  ...        6 min, 19.070 sec
     gradient                   ...        4 min, 45.131 sec
 * total energy  : -3716.0640767 Eh     change    :  -0.1264402E-02 Eh
   gradient norm :     0.1117329 Eh/a0  converged?    E=F G=F D=F
   time step     :     0.2500000 fs     power     :   0.2548824E-07
   step length   :     0.0747458 a0     speed     :   0.7232056E-02

........................................................................
.............................. CYCLE   22 ..............................
........................................................................

 iter      E             dE          RMSdq      gap      omega  full diag
   1  -3770.7860191 -0.377079E+04  0.477E-03   10.73       0.0  T
   2  -3770.7860292 -0.100941E-04  0.304E-03   10.73       1.0  T
   3  -3770.7860291  0.950599E-07  0.876E-04   10.73       1.9  T
   4  -3770.7860296 -0.536077E-06  0.251E-04   10.73       6.7  T
     SCC iter.                  ...        5 min,  6.968 sec
     gradient                   ...        4 min, 43.656 sec
 * total energy  : -3716.0656393 Eh     change    :  -0.1562541E-02 Eh
   gradient norm :     0.1237142 Eh/a0  converged?    E=F G=F D=F
   time step     :     0.2500000 fs     power     :   0.5970996E-07
   step length   :     0.0695018 a0     speed     :   0.6724676E-02

........................................................................
.............................. CYCLE   23 ..............................
........................................................................

 iter      E             dE          RMSdq      gap      omega  full diag
   1  -3770.7748327 -0.377077E+04  0.415E-03   10.73       0.0  T
   2  -3770.7748358 -0.307698E-05  0.260E-03   10.74       1.0  T
   3  -3770.7748357  0.117569E-06  0.400E-04   10.74       4.2  T
   4  -3770.7748360 -0.331502E-06  0.149E-04   10.74      11.3  T
     SCC iter.                  ...        5 min,  3.749 sec
     gradient                   ...        4 min, 43.730 sec
 * total energy  : -3716.0681691 Eh     change    :  -0.2529841E-02 Eh
   gradient norm :     0.1285970 Eh/a0  converged?    E=F G=F D=F
   time step     :     0.2500000 fs     power     :   0.1215318E-06
   step length   :     0.0659299 a0     speed     :   0.6379075E-02

........................................................................
.............................. CYCLE   24 ..............................
........................................................................

 iter      E             dE          RMSdq      gap      omega  full diag
   1  -3770.7955540 -0.377080E+04  0.407E-03   10.74       0.0  T
   2  -3770.7955544 -0.489674E-06  0.245E-03   10.74       1.0  T
   3  -3770.7955545 -0.878172E-07  0.180E-04   10.74       9.3  T
   4  -3770.7955546 -0.463133E-07  0.994E-05   10.74      16.9  T
     SCC iter.                  ...        5 min,  4.927 sec
     gradient                   ...        4 min, 44.323 sec
 * total energy  : -3716.0718683 Eh     change    :  -0.3699221E-02 Eh
   gradient norm :     0.1263271 Eh/a0  converged?    E=F G=F D=F
   time step     :     0.2500000 fs     power     :   0.1868455E-06
   step length   :     0.0646011 a0     speed     :   0.6250503E-02

........................................................................
.............................. CYCLE   25 ..............................
........................................................................

 iter      E             dE          RMSdq      gap      omega  full diag
   1  -3770.8448437 -0.377084E+04  0.441E-03   10.75       0.0  T
   2  -3770.8448451 -0.132107E-05  0.256E-03   10.75       1.0  T
   3  -3770.8448451 -0.225609E-07  0.358E-04   10.75       4.7  T
   4  -3770.8448452 -0.143184E-06  0.112E-04   10.75      15.0  T
     SCC iter.                  ...        5 min,  6.371 sec
     gradient                   ...        4 min, 44.621 sec
 * total energy  : -3716.0765702 Eh     change    :  -0.4701887E-02 Eh
   gradient norm :     0.1178864 Eh/a0  converged?    E=F G=F D=F
   time step     :     0.2500000 fs     power     :   0.2379446E-06
   step length   :     0.0653290 a0     speed     :   0.6320935E-02

........................................................................
.............................. CYCLE   26 ..............................
........................................................................

 iter      E             dE          RMSdq      gap      omega  full diag
   1  -3770.9278031 -0.377093E+04  0.550E-03   10.76       0.0  T
   2  -3770.9278087 -0.557446E-05  0.314E-03   10.76       1.0  T
   3  -3770.9278086  0.113250E-06  0.757E-04   10.76       2.2  T
   4  -3770.9278090 -0.446607E-06  0.169E-04   10.76      10.0  T
     SCC iter.                  ...        5 min, 14.856 sec
     gradient                   ...        4 min, 44.274 sec
 * total energy  : -3716.0824465 Eh     change    :  -0.5876239E-02 Eh
   gradient norm :     0.1033738 Eh/a0  converged?    E=F G=F D=F
   time step     :     0.2750000 fs     power     :   0.2643800E-06
   step length   :     0.0748000 a0     speed     :   0.6579364E-02

........................................................................
.............................. CYCLE   27 ..............................
........................................................................

 iter      E             dE          RMSdq      gap      omega  full diag
   1  -3771.0459692 -0.377105E+04  0.680E-03   10.77       0.0  T
   2  -3771.0459824 -0.132197E-04  0.385E-03   10.77       1.0  T
   3  -3771.0459822  0.164385E-06  0.113E-03   10.77       1.5  T
   4  -3771.0459830 -0.758478E-06  0.245E-04   10.77       6.9  T
   5  -3771.0459831 -0.959844E-07  0.114E-04   10.77      14.7  T
     SCC iter.                  ...        6 min, 19.870 sec
     gradient                   ...        4 min, 43.648 sec
 * total energy  : -3716.0889608 Eh     change    :  -0.6514379E-02 Eh
   gradient norm :     0.0851676 Eh/a0  converged?    E=F G=F D=F
   time step     :     0.3025000 fs     power     :   0.2558956E-06
   step length   :     0.0870228 a0     speed     :   0.6958616E-02

........................................................................
.............................. CYCLE   28 ..............................
........................................................................

 iter      E             dE          RMSdq      gap      omega  full diag
   1  -3771.1969517 -0.377120E+04  0.807E-03   10.78       0.0  T
   2  -3771.1969742 -0.225195E-04  0.455E-03   10.78       1.0  T
   3  -3771.1969740  0.154280E-06  0.142E-03   10.78       1.2  T
   4  -3771.1969750 -0.994335E-06  0.314E-04   10.78       5.4  T
   5  -3771.1969752 -0.159298E-06  0.128E-04   10.78      13.1  T
     SCC iter.                  ...        6 min, 25.122 sec
     gradient                   ...        4 min, 44.494 sec
 * total energy  : -3716.0953068 Eh     change    :  -0.6345980E-02 Eh
   gradient norm :     0.0699015 Eh/a0  converged?    E=F G=F D=F
   time step     :     0.3327500 fs     power     :   0.2130549E-06
   step length   :     0.1013121 a0     speed     :   0.7364757E-02

........................................................................
.............................. CYCLE   29 ..............................
........................................................................

 iter      E             dE          RMSdq      gap      omega  full diag
   1  -3771.3694902 -0.377137E+04  0.893E-03   10.79       0.0  T
   2  -3771.3695180 -0.277973E-04  0.501E-03   10.79       1.0  T
   3  -3771.3695179  0.994928E-07  0.153E-03   10.79       1.1  T
   4  -3771.3695189 -0.102897E-05  0.350E-04   10.79       4.8  T
   5  -3771.3695191 -0.193798E-06  0.138E-04   10.78      12.2  T
   6  -3771.3695191 -0.170994E-07  0.800E-05   10.78      21.0  T
     SCC iter.                  ...        7 min, 37.510 sec
     gradient                   ...        4 min, 43.886 sec
 * total energy  : -3716.1008010 Eh     change    :  -0.5494161E-02 Eh
   gradient norm :     0.0673738 Eh/a0  converged?    E=F G=F D=F
   time step     :     0.3660250 fs     power     :   0.1559622E-06
   step length   :     0.1161262 a0     speed     :   0.7674223E-02

........................................................................
.............................. CYCLE   30 ..............................
........................................................................

 iter      E             dE          RMSdq      gap      omega  full diag
   1  -3771.5396706 -0.377154E+04  0.897E-03   10.80       0.0  T
   2  -3771.5396931 -0.224636E-04  0.501E-03   10.79       1.0  T
   3  -3771.5396931 -0.181412E-07  0.133E-03   10.79       1.3  T
   4  -3771.5396938 -0.702753E-06  0.304E-04   10.79       5.5  T
   5  -3771.5396940 -0.140537E-06  0.127E-04   10.79      13.2  T
     SCC iter.                  ...        6 min, 20.522 sec
     gradient                   ...        4 min, 44.152 sec
 * total energy  : -3716.1055226 Eh     change    :  -0.4721580E-02 Eh
   gradient norm :     0.0759086 Eh/a0  converged?    E=F G=F D=F
   time step     :     0.4026275 fs     power     :   0.1199589E-06
   step length   :     0.1292212 a0     speed     :   0.7763286E-02

........................................................................
.............................. CYCLE   31 ..............................
........................................................................

 iter      E             dE          RMSdq      gap      omega  full diag
   1  -3771.6801491 -0.377168E+04  0.835E-03   10.80       0.0  T
   2  -3771.6801594 -0.102235E-04  0.469E-03   10.80       1.0  T
   3  -3771.6801596 -0.283712E-06  0.856E-04   10.80       2.0  T
   4  -3771.6801599 -0.212613E-06  0.198E-04   10.80       8.5  T
     SCC iter.                  ...        5 min,  7.106 sec
     gradient                   ...        4 min, 44.511 sec
 * total energy  : -3716.1104090 Eh     change    :  -0.4886474E-02 Eh
   gradient norm :     0.0822595 Eh/a0  converged?    E=F G=F D=F
   time step     :     0.4428903 fs     power     :   0.1215931E-06
   step length   :     0.1411474 a0     speed     :   0.7708892E-02

........................................................................
.............................. CYCLE   32 ..............................
........................................................................

 iter      E             dE          RMSdq      gap      omega  full diag
   1  -3771.7682269 -0.377177E+04  0.770E-03   10.81       0.0  T
   2  -3771.7682296 -0.269494E-05  0.451E-03   10.81       1.0  T
   3  -3771.7682295  0.143916E-06  0.619E-04   10.81       2.7  T
   4  -3771.7682302 -0.686669E-06  0.184E-04   10.81       9.2  T
     SCC iter.                  ...        5 min,  7.811 sec
     gradient                   ...        4 min, 44.335 sec
 * total energy  : -3716.1163831 Eh     change    :  -0.5974050E-02 Eh
   gradient norm :     0.0780673 Eh/a0  converged?    E=F G=F D=F
   time step     :     0.4871793 fs     power     :   0.1414706E-06
   step length   :     0.1552475 a0     speed     :   0.7708163E-02

........................................................................
.............................. CYCLE   33 ..............................
........................................................................

 iter      E             dE          RMSdq      gap      omega  full diag
   1  -3771.7893482 -0.377179E+04  0.771E-03   10.82       0.0  T
   2  -3771.7893587 -0.105585E-04  0.483E-03   10.82       1.0  T
   3  -3771.7893574  0.137906E-05  0.114E-03   10.82       1.5  T
   4  -3771.7893599 -0.254531E-05  0.219E-04   10.82       7.7  T
   5  -3771.7893600 -0.345094E-07  0.121E-04   10.82      13.9  T
   6  -3771.7893600 -0.619730E-08  0.498E-05   10.82      33.8  T
     SCC iter.                  ...        7 min, 34.337 sec
     gradient                   ...        4 min, 43.886 sec
 * total energy  : -3716.1233050 Eh     change    :  -0.6921912E-02 Eh
   gradient norm :     0.0649030 Eh/a0  converged?    E=F G=F D=F
   time step     :     0.5358972 fs     power     :   0.1430884E-06
   step length   :     0.1739170 a0     speed     :   0.7850110E-02

........................................................................
.............................. CYCLE   34 ..............................
........................................................................

 iter      E             dE          RMSdq      gap      omega  full diag
   1  -3771.7463319 -0.377175E+04  0.834E-03   10.83       0.0  T
   2  -3771.7463623 -0.304259E-04  0.544E-03   10.83       1.0  T
   3  -3771.7463617  0.592684E-06  0.168E-03   10.83       1.0  T
   4  -3771.7463640 -0.229456E-05  0.396E-04   10.83       4.2  T
   5  -3771.7463642 -0.217150E-06  0.150E-04   10.83      11.2  T
   6  -3771.7463643 -0.136006E-07  0.766E-05   10.83      21.9  T
     SCC iter.                  ...        7 min, 44.128 sec
     gradient                   ...        4 min, 43.619 sec
 * total energy  : -3716.1299290 Eh     change    :  -0.6624001E-02 Eh
   gradient norm :     0.0574029 Eh/a0  converged?    E=F G=F D=F
   time step     :     0.5894869 fs     power     :   0.1116007E-06
   step length   :     0.1963677 a0     speed     :   0.8057697E-02

........................................................................
.............................. CYCLE   35 ..............................
........................................................................

 iter      E             dE          RMSdq      gap      omega  full diag
   1  -3771.6778397 -0.377168E+04  0.887E-03   10.85       0.0  T
   2  -3771.6778749 -0.351625E-04  0.570E-03   10.85       1.0  T
   3  -3771.6778748  0.904938E-07  0.161E-03   10.85       1.0  T
   4  -3771.6778763 -0.154313E-05  0.492E-04   10.85       3.4  T
   5  -3771.6778766 -0.296993E-06  0.170E-04   10.85       9.9  T
   6  -3771.6778767 -0.133728E-07  0.722E-05   10.85      23.3  T
     SCC iter.                  ...        7 min, 38.334 sec
     gradient                   ...        4 min, 44.255 sec
 * total energy  : -3716.1356668 Eh     change    :  -0.5737827E-02 Eh
   gradient norm :     0.0637105 Eh/a0  converged?    E=F G=F D=F
   time step     :     0.6484356 fs     power     :   0.8361099E-07
   step length   :     0.2182456 a0     speed     :   0.8141299E-02

........................................................................
.............................. CYCLE   36 ..............................
........................................................................

 iter      E             dE          RMSdq      gap      omega  full diag
   1  -3771.6460115 -0.377165E+04  0.987E-03   10.87       0.0  T
   2  -3771.6460271 -0.155416E-04  0.593E-03   10.88       1.0  T
   3  -3771.6460279 -0.772532E-06  0.899E-04   10.88       1.9  T
   4  -3771.6460283 -0.440393E-06  0.319E-04   10.88       5.3  T
     SCC iter.                  ...        5 min,  8.772 sec
     gradient                   ...        4 min, 44.627 sec
 * total energy  : -3716.1417056 Eh     change    :  -0.6038812E-02 Eh
   gradient norm :     0.0639105 Eh/a0  converged?    E=F G=F D=F
   time step     :     0.7132792 fs     power     :   0.8684082E-07
   step length   :     0.2389168 a0     speed     :   0.8102188E-02

........................................................................
.............................. CYCLE   37 ..............................
........................................................................

 iter      E             dE          RMSdq      gap      omega  full diag
   1  -3771.6967352 -0.377170E+04  0.120E-02   10.90       0.0  T
   2  -3771.6967434 -0.819728E-05  0.692E-03   10.90       1.0  T
   3  -3771.6967432  0.164886E-06  0.123E-03   10.90       1.4  T
   4  -3771.6967452 -0.203025E-05  0.347E-04   10.90       4.9  T
   5  -3771.6967452 -0.166519E-07  0.127E-04   10.90      13.2  T
   6  -3771.6967453 -0.637692E-08  0.346E-05   10.90      48.6  T
     SCC iter.                  ...        7 min, 35.479 sec
     gradient                   ...        4 min, 44.584 sec
 * total energy  : -3716.1483812 Eh     change    :  -0.6675618E-02 Eh
   gradient norm :     0.0519605 Eh/a0  converged?    E=F G=F D=F
   time step     :     0.7846071 fs     power     :   0.8138007E-07
   step length   :     0.2640902 a0     speed     :   0.8141701E-02

........................................................................
.............................. CYCLE   38 ..............................
........................................................................

 iter      E             dE          RMSdq      gap      omega  full diag
   1  -3771.8285069 -0.377183E+04  0.132E-02   10.93       0.0  T
   2  -3771.8285307 -0.237774E-04  0.766E-03   10.93       1.0  T
   3  -3771.8285296  0.106617E-05  0.171E-03   10.93       1.0  T
   4  -3771.8285329 -0.329767E-05  0.363E-04   10.93       4.6  T
   5  -3771.8285330 -0.112445E-06  0.181E-04   10.93       9.3  T
   6  -3771.8285331 -0.110281E-07  0.622E-05   10.93      27.0  T
     SCC iter.                  ...        7 min, 35.916 sec
     gradient                   ...        4 min, 43.714 sec
 * total energy  : -3716.1539269 Eh     change    :  -0.5545659E-02 Eh
   gradient norm :     0.0532801 Eh/a0  converged?    E=F G=F D=F
   time step     :     0.8630678 fs     power     :   0.4675645E-07
   step length   :     0.2923358 a0     speed     :   0.8193174E-02

........................................................................
.............................. CYCLE   39 ..............................
........................................................................

 iter      E             dE          RMSdq      gap      omega  full diag
   1  -3771.9639265 -0.377196E+04  0.119E-02   10.96       0.0  T
   2  -3771.9639408 -0.143130E-04  0.689E-03   10.96       1.0  T
   3  -3771.9639412 -0.400815E-06  0.102E-03   10.96       1.7  T
   4  -3771.9639420 -0.763997E-06  0.276E-04   10.96       6.1  T
   5  -3771.9639420 -0.468217E-07  0.146E-04   10.96      11.6  T
     SCC iter.                  ...        6 min, 25.355 sec
     gradient                   ...        4 min, 44.510 sec
 * total energy  : -3716.1589318 Eh     change    :  -0.5004844E-02 Eh
   gradient norm :     0.0583402 Eh/a0  converged?    E=F G=F D=F
   time step     :     0.9493746 fs     power     :   0.4266988E-07
   step length   :     0.3159263 a0     speed     :   0.8049396E-02

........................................................................
.............................. CYCLE   40 ..............................
........................................................................

 iter      E             dE          RMSdq      gap      omega  full diag
   1  -3772.0330780 -0.377203E+04  0.115E-02   10.98       0.0  T
   2  -3772.0330934 -0.154192E-04  0.688E-03   10.98       1.0  T
   3  -3772.0330916  0.188062E-05  0.157E-03   10.98       1.1  T
   4  -3772.0330960 -0.445056E-05  0.334E-04   10.98       5.0  T
   5  -3772.0330960 -0.385648E-07  0.180E-04   10.98       9.3  T
   6  -3772.0330961 -0.175314E-07  0.708E-05   10.98      23.8  T
     SCC iter.                  ...        7 min, 32.354 sec
     gradient                   ...        4 min, 43.881 sec
 * total energy  : -3716.1648643 Eh     change    :  -0.5932507E-02 Eh
   gradient norm :     0.0493095 Eh/a0  converged?    E=F G=F D=F
   time step     :     1.0443120 fs     power     :   0.4522850E-07
   step length   :     0.3438224 a0     speed     :   0.7963775E-02

........................................................................
.............................. CYCLE   41 ..............................
........................................................................

 iter      E             dE          RMSdq      gap      omega  full diag
   1  -3772.0536358 -0.377205E+04  0.125E-02   11.01       0.0  T
   2  -3772.0536669 -0.310136E-04  0.775E-03   11.01       1.0  T
   3  -3772.0536650  0.188018E-05  0.175E-03   11.01       1.0  T
   4  -3772.0536698 -0.482977E-05  0.428E-04   11.01       3.9  T
   5  -3772.0536700 -0.174449E-06  0.226E-04   11.01       7.5  T
   6  -3772.0536700 -0.333398E-07  0.102E-04   11.01      16.5  T
     SCC iter.                  ...        7 min, 35.358 sec
     gradient                   ...        4 min, 44.678 sec
 * total energy  : -3716.1699075 Eh     change    :  -0.5043211E-02 Eh
   gradient norm :     0.0499682 Eh/a0  converged?    E=F G=F D=F
   time step     :     1.1487432 fs     power     :   0.2183955E-07
   step length   :     0.3765877 a0     speed     :   0.7929728E-02

........................................................................
.............................. CYCLE   42 ..............................
........................................................................

 iter      E             dE          RMSdq      gap      omega  full diag
   1  -3772.1211801 -0.377212E+04  0.140E-02   11.03       0.0  T
   2  -3772.1211883 -0.822270E-05  0.815E-03   11.03       1.0  T
   3  -3772.1211886 -0.308866E-06  0.984E-04   11.03       1.7  T
   4  -3772.1211897 -0.111734E-05  0.317E-04   11.03       5.3  T
   5  -3772.1211898 -0.268369E-07  0.156E-04   11.03      10.8  T
     SCC iter.                  ...        6 min, 15.576 sec
     gradient                   ...        4 min, 44.723 sec
 * total energy  : -3716.1740153 Eh     change    :  -0.4107880E-02 Eh
   gradient norm :     0.0471661 Eh/a0  converged?    E=F G=F D=F
   time step     :     1.2500000 fs     power     :   0.9847309E-08
   step length   :     0.4004629 a0     speed     :   0.7749387E-02
 * RMSD in coord.:     0.0598211 a0     energy gain  -0.1112030E+00 Eh

........................................................................
.............................. CYCLE   43 ..............................
........................................................................

 iter      E             dE          RMSdq      gap      omega  full diag
   1  -3772.1350744 -0.377214E+04  0.238E-03   11.04       0.0  T
   2  -3772.1350747 -0.273688E-06  0.137E-03   11.04       1.2  T
   3  -3772.1350747  0.981072E-08  0.201E-04   11.04       8.4  T
   4  -3772.1350747 -0.540194E-07  0.524E-05   11.04      32.1  T
     SCC iter.                  ...        5 min,  4.375 sec
     gradient                   ...        4 min, 43.755 sec
 * total energy  : -3716.1746105 Eh     change    :  -0.5951832E-03 Eh
   gradient norm :     0.0473502 Eh/a0  converged?    E=F G=F D=F
   time step     :     0.2500000 fs     power     :   0.2734859E-07
   step length   :     0.0734053 a0     speed     :   0.7102359E-02

........................................................................
.............................. CYCLE   44 ..............................
........................................................................

 iter      E             dE          RMSdq      gap      omega  full diag
   1  -3772.1482480 -0.377215E+04  0.230E-03   11.04       0.0  T
   2  -3772.1482485 -0.548121E-06  0.135E-03   11.04       1.2  T
   3  -3772.1482485  0.212690E-07  0.241E-04   11.04       7.0  T
   4  -3772.1482486 -0.683131E-07  0.504E-05   11.04      33.4  T
     SCC iter.                  ...        5 min,  3.716 sec
     gradient                   ...        4 min, 44.174 sec
 * total energy  : -3716.1754712 Eh     change    :  -0.8606886E-03 Eh
   gradient norm :     0.0437947 Eh/a0  converged?    E=F G=F D=F
   time step     :     0.2500000 fs     power     :   0.4132771E-07
   step length   :     0.0683008 a0     speed     :   0.6608471E-02

........................................................................
.............................. CYCLE   45 ..............................
........................................................................

 iter      E             dE          RMSdq      gap      omega  full diag
   1  -3772.1590548 -0.377216E+04  0.246E-03   11.04       0.0  T
   2  -3772.1590557 -0.870145E-06  0.148E-03   11.04       1.1  T
   3  -3772.1590556  0.903174E-08  0.269E-04   11.04       6.3  T
   4  -3772.1590557 -0.715886E-07  0.623E-05   11.04      27.0  T
     SCC iter.                  ...        5 min,  5.858 sec
     gradient                   ...        4 min, 44.345 sec
 * total energy  : -3716.1764720 Eh     change    :  -0.1000790E-02 Eh
   gradient norm :     0.0376176 Eh/a0  converged?    E=F G=F D=F
   time step     :     0.2500000 fs     power     :   0.4719671E-07
   step length   :     0.0645573 a0     speed     :   0.6246267E-02

........................................................................
.............................. CYCLE   46 ..............................
........................................................................

 iter      E             dE          RMSdq      gap      omega  full diag
   1  -3772.1657697 -0.377217E+04  0.270E-03   11.05       0.0  T
   2  -3772.1657708 -0.106237E-05  0.164E-03   11.05       1.0  T
   3  -3772.1657708 -0.952696E-08  0.278E-04   11.05       6.0  T
   4  -3772.1657709 -0.740247E-07  0.734E-05   11.05      22.9  T
     SCC iter.                  ...        5 min,  7.315 sec
     gradient                   ...        4 min, 44.964 sec
 * total energy  : -3716.1774510 Eh     change    :  -0.9789840E-03 Eh
   gradient norm :     0.0305680 Eh/a0  converged?    E=F G=F D=F
   time step     :     0.2500000 fs     power     :   0.4415238E-07
   step length   :     0.0618002 a0     speed     :   0.5979498E-02

........................................................................
.............................. CYCLE   47 ..............................
........................................................................

 iter      E             dE          RMSdq      gap      omega  full diag
   1  -3772.1666727 -0.377217E+04  0.288E-03   11.05       0.0  T
   2  -3772.1666737 -0.103369E-05  0.175E-03   11.05       1.0  T
   3  -3772.1666737 -0.246646E-07  0.271E-04   11.05       6.2  T
   4  -3772.1666738 -0.793066E-07  0.815E-05   11.05      20.6  T
     SCC iter.                  ...        5 min,  9.166 sec
     gradient                   ...        4 min, 44.505 sec
 * total energy  : -3716.1782742 Eh     change    :  -0.8231572E-03 Eh
   gradient norm :     0.0252040 Eh/a0  converged?    E=F G=F D=F
   time step     :     0.2500000 fs     power     :   0.3469748E-07
   step length   :     0.0595617 a0     speed     :   0.5762916E-02

........................................................................
.............................. CYCLE   48 ..............................
........................................................................

 iter      E             dE          RMSdq      gap      omega  full diag
   1  -3772.1598583 -0.377216E+04  0.320E-03   11.05       0.0  T
   2  -3772.1598593 -0.988851E-06  0.192E-03   11.05       1.0  T
   3  -3772.1598594 -0.266818E-07  0.290E-04   11.05       5.8  T
   4  -3772.1598595 -0.115527E-06  0.958E-05   11.05      17.6  T
     SCC iter.                  ...        5 min,  1.075 sec
     gradient                   ...        4 min, 43.312 sec
 * total energy  : -3716.1789347 Eh     change    :  -0.6605605E-03 Eh
   gradient norm :     0.0240633 Eh/a0  converged?    E=F G=F D=F
   time step     :     0.2750000 fs     power     :   0.2236165E-07
   step length   :     0.0630458 a0     speed     :   0.5545475E-02

........................................................................
.............................. CYCLE   49 ..............................
........................................................................

 iter      E             dE          RMSdq      gap      omega  full diag
   1  -3772.1446804 -0.377214E+04  0.326E-03   11.06       0.0  T
   2  -3772.1446813 -0.838570E-06  0.192E-03   11.06       1.0  T
   3  -3772.1446813 -0.265027E-08  0.318E-04   11.06       5.3  T
   4  -3772.1446814 -0.163712E-06  0.102E-04   11.06      16.5  T
     SCC iter.                  ...        5 min, 10.143 sec
     gradient                   ...        4 min, 44.005 sec
 * total energy  : -3716.1794281 Eh     change    :  -0.4933839E-03 Eh
   gradient norm :     0.0272139 Eh/a0  converged?    E=F G=F D=F
   time step     :     0.3025000 fs     power     :   0.1369581E-07
   step length   :     0.0657647 a0     speed     :   0.5258750E-02

........................................................................
.............................. CYCLE   50 ..............................
........................................................................

 iter      E             dE          RMSdq      gap      omega  full diag
   1  -3772.1233397 -0.377212E+04  0.313E-03   11.06       0.0  T
   2  -3772.1233405 -0.802464E-06  0.181E-03   11.06       1.0  T
   3  -3772.1233405  0.137529E-07  0.333E-04   11.06       5.1  T
   4  -3772.1233407 -0.172343E-06  0.957E-05   11.06      17.6  T
     SCC iter.                  ...        5 min,  8.265 sec
     gradient                   ...        4 min, 43.933 sec
 * total energy  : -3716.1798689 Eh     change    :  -0.4407900E-03 Eh
   gradient norm :     0.0309402 Eh/a0  converged?    E=F G=F D=F
   time step     :     0.3327500 fs     power     :   0.1202311E-07
   step length   :     0.0676885 a0     speed     :   0.4920534E-02

........................................................................
.............................. CYCLE   51 ..............................
........................................................................

 iter      E             dE          RMSdq      gap      omega  full diag
   1  -3772.0992387 -0.377210E+04  0.300E-03   11.07       0.0  T
   2  -3772.0992397 -0.927856E-06  0.171E-03   11.07       1.0  T
   3  -3772.0992397  0.960881E-08  0.329E-04   11.07       5.1  T
   4  -3772.0992398 -0.134825E-06  0.829E-05   11.07      20.3  T
     SCC iter.                  ...        5 min,  8.618 sec
     gradient                   ...        4 min, 44.493 sec
 * total energy  : -3716.1804065 Eh     change    :  -0.5376006E-03 Eh
   gradient norm :     0.0325174 Eh/a0  converged?    E=F G=F D=F
   time step     :     0.3660250 fs     power     :   0.1564848E-07
   step length   :     0.0697050 a0     speed     :   0.4606472E-02

........................................................................
.............................. CYCLE   52 ..............................
........................................................................

 iter      E             dE          RMSdq      gap      omega  full diag
   1  -3772.0763086 -0.377208E+04  0.306E-03   11.07       0.0  T
   2  -3772.0763097 -0.110354E-05  0.175E-03   11.07       1.0  T
   3  -3772.0763097  0.116370E-08  0.315E-04   11.07       5.3  T
   4  -3772.0763098 -0.913296E-07  0.703E-05   11.07      23.9  T
     SCC iter.                  ...        5 min,  5.819 sec
     gradient                   ...        4 min, 43.349 sec
 * total energy  : -3716.1811316 Eh     change    :  -0.7250720E-03 Eh
   gradient norm :     0.0310848 Eh/a0  converged?    E=F G=F D=F
   time step     :     0.4026275 fs     power     :   0.2045297E-07
   step length   :     0.0726655 a0     speed     :   0.4365559E-02

........................................................................
.............................. CYCLE   53 ..............................
........................................................................

 iter      E             dE          RMSdq      gap      omega  full diag
   1  -3772.0590319 -0.377206E+04  0.336E-03   11.08       0.0  T
   2  -3772.0590330 -0.114364E-05  0.196E-03   11.08       1.0  T
   3  -3772.0590331 -0.845375E-08  0.289E-04   11.08       5.8  T
   4  -3772.0590331 -0.696355E-07  0.631E-05   11.08      26.6  T
     SCC iter.                  ...        5 min,  4.972 sec
     gradient                   ...        4 min, 43.558 sec
 * total energy  : -3716.1820216 Eh     change    :  -0.8899973E-03 Eh
   gradient norm :     0.0272932 Eh/a0  converged?    E=F G=F D=F
   time step     :     0.4428903 fs     power     :   0.2241516E-07
   step length   :     0.0770611 a0     speed     :   0.4208762E-02

........................................................................
.............................. CYCLE   54 ..............................
........................................................................

 iter      E             dE          RMSdq      gap      omega  full diag
   1  -3772.0521938 -0.377205E+04  0.375E-03   11.08       0.0  T
   2  -3772.0521948 -0.942614E-06  0.221E-03   11.08       1.0  T
   3  -3772.0521948 -0.829914E-08  0.272E-04   11.08       6.2  T
   4  -3772.0521949 -0.939563E-07  0.764E-05   11.08      22.0  T
     SCC iter.                  ...        5 min,  4.049 sec
     gradient                   ...        4 min, 43.196 sec
 * total energy  : -3716.1829483 Eh     change    :  -0.9267703E-03 Eh
   gradient norm :     0.0233558 Eh/a0  converged?    E=F G=F D=F
   time step     :     0.4871793 fs     power     :   0.1972727E-07
   step length   :     0.0828338 a0     speed     :   0.4112766E-02

........................................................................
.............................. CYCLE   55 ..............................
........................................................................

 iter      E             dE          RMSdq      gap      omega  full diag
   1  -3772.0592575 -0.377206E+04  0.396E-03   11.09       0.0  T
   2  -3772.0592582 -0.770468E-06  0.234E-03   11.09       1.0  T
   3  -3772.0592582  0.208015E-07  0.310E-04   11.09       5.4  T
   4  -3772.0592584 -0.174443E-06  0.100E-04   11.09      16.8  T
     SCC iter.                  ...        5 min,  4.695 sec
     gradient                   ...        4 min, 42.526 sec
 * total energy  : -3716.1837693 Eh     change    :  -0.8210071E-03 Eh
   gradient norm :     0.0221186 Eh/a0  converged?    E=F G=F D=F
   time step     :     0.5358972 fs     power     :   0.1421825E-07
   step length   :     0.0892174 a0     speed     :   0.4027013E-02

........................................................................
.............................. CYCLE   56 ..............................
........................................................................

 iter      E             dE          RMSdq      gap      omega  full diag
   1  -3772.0786511 -0.377208E+04  0.382E-03   11.09       0.0  T
   2  -3772.0786522 -0.113246E-05  0.225E-03   11.09       1.0  T
   3  -3772.0786522  0.169239E-07  0.364E-04   11.09       4.6  T
   4  -3772.0786524 -0.191495E-06  0.112E-04   11.09      15.0  T
     SCC iter.                  ...        5 min,  4.183 sec
     gradient                   ...        4 min, 42.903 sec
 * total energy  : -3716.1844624 Eh     change    :  -0.6931036E-03 Eh
   gradient norm :     0.0238468 Eh/a0  converged?    E=F G=F D=F
   time step     :     0.5894869 fs     power     :   0.1019094E-07
   step length   :     0.0950967 a0     speed     :   0.3902172E-02

........................................................................
.............................. CYCLE   57 ..............................
........................................................................

 iter      E             dE          RMSdq      gap      omega  full diag
   1  -3772.1028245 -0.377210E+04  0.350E-03   11.09       0.0  T
   2  -3772.1028262 -0.164535E-05  0.205E-03   11.09       1.0  T
   3  -3772.1028262 -0.238738E-07  0.388E-04   11.09       4.3  T
   4  -3772.1028263 -0.121112E-06  0.106E-04   11.09      15.9  T
     SCC iter.                  ...        5 min,  2.845 sec
     gradient                   ...        4 min, 42.915 sec
 * total energy  : -3716.1851699 Eh     change    :  -0.7074479E-03 Eh
   gradient norm :     0.0260156 Eh/a0  converged?    E=F G=F D=F
   time step     :     0.6484356 fs     power     :   0.1043626E-07
   step length   :     0.1005653 a0     speed     :   0.3751426E-02

........................................................................
.............................. CYCLE   58 ..............................
........................................................................

 iter      E             dE          RMSdq      gap      omega  full diag
   1  -3772.1218206 -0.377212E+04  0.338E-03   11.10       0.0  T
   2  -3772.1218220 -0.138053E-05  0.198E-03   11.10       1.0  T
   3  -3772.1218221 -0.455602E-07  0.335E-04   11.10       5.0  T
   4  -3772.1218221 -0.741238E-07  0.906E-05   11.10      18.6  T
     SCC iter.                  ...        5 min,  8.829 sec
     gradient                   ...        4 min, 42.909 sec
 * total energy  : -3716.1860923 Eh     change    :  -0.9223903E-03 Eh
   gradient norm :     0.0258851 Eh/a0  converged?    E=F G=F D=F
   time step     :     0.7132792 fs     power     :   0.1397721E-07
   step length   :     0.1072636 a0     speed     :   0.3637541E-02

........................................................................
.............................. CYCLE   59 ..............................
........................................................................

 iter      E             dE          RMSdq      gap      omega  full diag
   1  -3772.1265377 -0.377213E+04  0.372E-03   11.10       0.0  T
   2  -3772.1265385 -0.754500E-06  0.218E-03   11.10       1.0  T
   3  -3772.1265386 -0.682116E-07  0.287E-04   11.10       5.8  T
   4  -3772.1265386 -0.816790E-07  0.999E-05   11.10      16.8  T
     SCC iter.                  ...        5 min,  7.683 sec
     gradient                   ...        4 min, 43.778 sec
 * total energy  : -3716.1872788 Eh     change    :  -0.1186498E-02 Eh
   gradient norm :     0.0223321 Eh/a0  converged?    E=F G=F D=F
   time step     :     0.7846071 fs     power     :   0.1623984E-07
   step length   :     0.1169341 a0     speed     :   0.3604990E-02

........................................................................
.............................. CYCLE   60 ..............................
........................................................................

 iter      E             dE          RMSdq      gap      omega  full diag
   1  -3772.1118934 -0.377211E+04  0.435E-03   11.11       0.0  T
   2  -3772.1118949 -0.148676E-05  0.253E-03   11.11       1.0  T
   3  -3772.1118950 -0.944342E-07  0.412E-04   11.11       4.1  T
   4  -3772.1118951 -0.132341E-06  0.121E-04   11.11      13.9  T
     SCC iter.                  ...        5 min, 15.719 sec
     gradient                   ...        4 min, 43.304 sec
 * total energy  : -3716.1884990 Eh     change    :  -0.1220238E-02 Eh
   gradient norm :     0.0200983 Eh/a0  converged?    E=F G=F D=F
   time step     :     0.8630678 fs     power     :   0.1344434E-07
   step length   :     0.1296086 a0     speed     :   0.3632486E-02

........................................................................
.............................. CYCLE   61 ..............................
........................................................................

 iter      E             dE          RMSdq      gap      omega  full diag
   1  -3772.0831178 -0.377208E+04  0.449E-03   11.12       0.0  T
   2  -3772.0831203 -0.248692E-05  0.258E-03   11.12       1.0  T
   3  -3772.0831204 -0.972354E-07  0.509E-04   11.12       3.3  T
   4  -3772.0831205 -0.141647E-06  0.122E-04   11.12      13.8  T
     SCC iter.                  ...        5 min,  7.432 sec
     gradient                   ...        4 min, 43.196 sec
 * total energy  : -3716.1896444 Eh     change    :  -0.1145410E-02 Eh
   gradient norm :     0.0229224 Eh/a0  converged?    E=F G=F D=F
   time step     :     0.9493746 fs     power     :   0.1146167E-07
   step length   :     0.1426908 a0     speed     :   0.3635577E-02

........................................................................
.............................. CYCLE   62 ..............................
........................................................................

 iter      E             dE          RMSdq      gap      omega  full diag
   1  -3772.0576879 -0.377206E+04  0.422E-03   11.12       0.0  T
   2  -3772.0576896 -0.173528E-05  0.242E-03   11.12       1.0  T
   3  -3772.0576897 -0.974724E-07  0.441E-04   11.12       3.8  T
   4  -3772.0576898 -0.121513E-06  0.118E-04   11.12      14.2  T
     SCC iter.                  ...        5 min,  3.473 sec
     gradient                   ...        4 min, 43.654 sec
 * total energy  : -3716.1910379 Eh     change    :  -0.1393499E-02 Eh
   gradient norm :     0.0213959 Eh/a0  converged?    E=F G=F D=F
   time step     :     1.0443120 fs     power     :   0.1414009E-07
   step length   :     0.1567822 a0     speed     :   0.3631463E-02

........................................................................
.............................. CYCLE   63 ..............................
........................................................................

[...]
  3287   6 C     3289   6 C                                       1.5328719
  3289   6 C     3290   6 C                                       1.5371417
  3290   6 C     3291   6 C                                       1.5282707
  3290   6 C     3292   6 C                                       1.5337154
  3292   6 C     3293   6 C                                       1.5376837
  3293   6 C     3294   6 C                                       1.5292849
  3293   6 C     3295   6 C                                       1.5331070
  3295   6 C     3296   6 C                                       1.5372751
  3296   6 C     3297   6 C                                       1.5297457
  3298   6 C     3299   6 C                                       1.5333538
  3299   6 C     3300   6 C                                       1.5280675
  3299   6 C     3301   6 C                                       1.5353628
  3301   6 C     3302   6 C                                       1.5332587
  3302   6 C     3303   6 C                                       1.5297606
  3302   6 C     3304   6 C                                       1.5359813
  3304   6 C     3305   6 C                                       1.5324991
  3305   6 C     3306   6 C                                       1.5286306
  3305   6 C     3307   6 C                                       1.5360773
  3307   6 C     3308   6 C                                       1.5357136
  3308   6 C     3309   6 C                                       1.5261626
  3308   6 C     3310   6 C                                       1.5351904
  3310   6 C     3311   6 C                                       1.5340110
  3311   6 C     3312   6 C                                       1.5289586
  3311   6 C     3313   6 C                                       1.5398307
  3313   6 C     3314   6 C                                       1.5340194
  3314   6 C     3315   6 C                                       1.5290368
  3314   6 C     3316   6 C                                       1.5356544
  3316   6 C     3317   6 C                                       1.5353315
  3317   6 C     3318   6 C                                       1.5270654
  3317   6 C     3319   6 C                                       1.5359386
  3319   6 C     3320   6 C                                       1.5373833
  3320   6 C     3321   6 C                                       1.5282213
  3320   6 C     3322   6 C                                       1.5333413
  3322   6 C     3323   6 C                                       1.5354610
  3323   6 C     3324   6 C                                       1.5282838
  3323   6 C     3325   6 C                                       1.5325387
  3325   6 C     3326   6 C                                       1.5361472
  3326   6 C     3327   6 C                                       1.5278694
  3326   6 C     3328   6 C                                       1.5324521
  3328   6 C     3329   6 C                                       1.5339975
  3329   6 C     3330   6 C                                       1.5298118
  3329   6 C     3331   6 C                                       1.5387508
  3331   6 C     3332   6 C                                       1.5346941
  3332   6 C     3333   6 C                                       1.5280456
  3332   6 C     3334   6 C                                       1.5350123
  3334   6 C     3335   6 C                                       1.5355628
  3335   6 C     3336   6 C                                       1.5271562
  3335   6 C     3337   6 C                                       1.5358465
  3337   6 C     3338   6 C                                       1.5355282
  3338   6 C     3339   6 C                                       1.5278550
  3338   6 C     3340   6 C                                       1.5330011
  3340   6 C     3341   6 C                                       1.5372962
  3341   6 C     3342   6 C                                       1.5292465
  3341   6 C     3343   6 C                                       1.5326304
  3343   6 C     3344   6 C                                       1.5357753
  3344   6 C     3345   6 C                                       1.5287376
  3344   6 C     3346   6 C                                       1.5342446
  3346   6 C     3347   6 C                                       1.5355073
  3347   6 C     3348   6 C                                       1.5290252
  3347   6 C     3349   6 C                                       1.5336022
  3349   6 C     3350   6 C                                       1.5354237
  3350   6 C     3351   6 C                                       1.5289794
  3350   6 C     3352   6 C                                       1.5367238
  3352   6 C     3353   6 C                                       1.5280261
  3353   6 C     3354   6 C                                       1.5240215
  3265   6 C     3355   1 H                                       1.0886561
  3265   6 C     3356   1 H                                       1.0873660
  3265   6 C     3357   1 H                                       1.0883855
  3354   6 C     3358   1 H                                       1.0883171
  3354   6 C     3359   1 H                                       1.0877709
  3354   6 C     3360   1 H                                       1.0883794
  3352   6 C     3361   1 H                                       1.0939677
  3352   6 C     3362   1 H                                       1.0924112
  3349   6 C     3363   1 H                                       1.0895180
  3349   6 C     3364   1 H                                       1.0934821
  3347   6 C     3365   1 H                                       1.0921368
  3348   6 C     3366   1 H                                       1.0890725
  3348   6 C     3367   1 H                                       1.0874824
  3348   6 C     3368   1 H                                       1.0865587
  3346   6 C     3369   1 H                                       1.0925859
  3346   6 C     3370   1 H                                       1.0937947
  3343   6 C     3371   1 H                                       1.0908294
  3343   6 C     3372   1 H                                       1.0931465
  3350   6 C     3373   1 H                                       1.0960912
  3351   6 C     3374   1 H                                       1.0881772
  3351   6 C     3375   1 H                                       1.0880792
  3351   6 C     3376   1 H                                       1.0874089
  3344   6 C     3377   1 H                                       1.0942086
  3345   6 C     3378   1 H                                       1.0885691
  3345   6 C     3379   1 H                                       1.0862636
  3345   6 C     3380   1 H                                       1.0875105
  3341   6 C     3381   1 H                                       1.0939082
  3342   6 C     3382   1 H                                       1.0885172
  3342   6 C     3383   1 H                                       1.0885128
  3342   6 C     3384   1 H                                       1.0869419
  3340   6 C     3385   1 H                                       1.0923396
  3340   6 C     3386   1 H                                       1.0941829
  3338   6 C     3387   1 H                                       1.0911407
  3339   6 C     3388   1 H                                       1.0888022
  3339   6 C     3389   1 H                                       1.0881288
  3339   6 C     3390   1 H                                       1.0871882
  3337   6 C     3391   1 H                                       1.0928406
  3337   6 C     3392   1 H                                       1.0933637
  3335   6 C     3393   1 H                                       1.0945299
  3336   6 C     3394   1 H                                       1.0871314
  3336   6 C     3395   1 H                                       1.0872292
  3336   6 C     3396   1 H                                       1.0870492
  3334   6 C     3397   1 H                                       1.0930967
  3334   6 C     3398   1 H                                       1.0924568
  3332   6 C     3399   1 H                                       1.0918476
  3333   6 C     3400   1 H                                       1.0882187
  3333   6 C     3401   1 H                                       1.0887382
  3333   6 C     3402   1 H                                       1.0870420
  3331   6 C     3403   1 H                                       1.0911885
  3331   6 C     3404   1 H                                       1.0936299
  3329   6 C     3405   1 H                                       1.0927159
  3330   6 C     3406   1 H                                       1.0887670
  3330   6 C     3407   1 H                                       1.0885283
  3330   6 C     3408   1 H                                       1.0888126
  3328   6 C     3409   1 H                                       1.0930926
  3328   6 C     3410   1 H                                       1.0940426
  3326   6 C     3411   1 H                                       1.0926157
  3327   6 C     3412   1 H                                       1.0874477
  3327   6 C     3413   1 H                                       1.0876591
  3327   6 C     3414   1 H                                       1.0862938
  3325   6 C     3415   1 H                                       1.0915889
  3325   6 C     3416   1 H                                       1.0934841
  3323   6 C     3417   1 H                                       1.0939440
  3324   6 C     3418   1 H                                       1.0885540
  3324   6 C     3419   1 H                                       1.0884550
  3324   6 C     3420   1 H                                       1.0865996
  3322   6 C     3421   1 H                                       1.0915062
  3322   6 C     3422   1 H                                       1.0930844
  3320   6 C     3423   1 H                                       1.0938415
  3321   6 C     3424   1 H                                       1.0881845
  3321   6 C     3425   1 H                                       1.0870059
  3321   6 C     3426   1 H                                       1.0885452
  3319   6 C     3427   1 H                                       1.0929848
  3319   6 C     3428   1 H                                       1.0929019
  3317   6 C     3429   1 H                                       1.0937890
  3318   6 C     3430   1 H                                       1.0889380
  3318   6 C     3431   1 H                                       1.0872780
  3318   6 C     3432   1 H                                       1.0868814
  3316   6 C     3433   1 H                                       1.0934080
  3316   6 C     3434   1 H                                       1.0934143
  3314   6 C     3435   1 H                                       1.0937890
  3315   6 C     3436   1 H                                       1.0889370
  3315   6 C     3437   1 H                                       1.0873841
  3315   6 C     3438   1 H                                       1.0887573
  3313   6 C     3439   1 H                                       1.0902662
  3313   6 C     3440   1 H                                       1.0921311
  3311   6 C     3441   1 H                                       1.0933313
  3312   6 C     3442   1 H                                       1.0884966
  3312   6 C     3443   1 H                                       1.0889988
  3312   6 C     3444   1 H                                       1.0880711
  3310   6 C     3445   1 H                                       1.0941180
  3310   6 C     3446   1 H                                       1.0935832
  3308   6 C     3447   1 H                                       1.0932512
  3309   6 C     3448   1 H                                       1.0875037
  3309   6 C     3449   1 H                                       1.0863664
  3309   6 C     3450   1 H                                       1.0870066
  3307   6 C     3451   1 H                                       1.0941942
  3307   6 C     3452   1 H                                       1.0929524
  3305   6 C     3453   1 H                                       1.0931221
  3306   6 C     3454   1 H                                       1.0884444
  3306   6 C     3455   1 H                                       1.0872603
  3306   6 C     3456   1 H                                       1.0866335
  3304   6 C     3457   1 H                                       1.0914968
  3304   6 C     3458   1 H                                       1.0927118
  3302   6 C     3459   1 H                                       1.0939267
  3303   6 C     3460   1 H                                       1.0868187
  3303   6 C     3461   1 H                                       1.0882753
  3303   6 C     3462   1 H                                       1.0887506
  3301   6 C     3463   1 H                                       1.0915779
  3301   6 C     3464   1 H                                       1.0933550
  3299   6 C     3465   1 H                                       1.0945241
  3300   6 C     3466   1 H                                       1.0880682
  3300   6 C     3467   1 H                                       1.0867992
  3300   6 C     3468   1 H                                       1.0882570
  3298   6 C     3469   1 H                                       1.0888063
  3298   6 C     3470   1 H                                       1.0920521
  3296   6 C     3471   1 H                                       1.0945498
  3297   6 C     3472   1 H                                       1.0889878
  3297   6 C     3473   1 H                                       1.0866955
  3297   6 C     3474   1 H                                       1.0878075
  3295   6 C     3475   1 H                                       1.0912830
  3295   6 C     3476   1 H                                       1.0942781
  3293   6 C     3477   1 H                                       1.0937168
  3294   6 C     3478   1 H                                       1.0886189
  3294   6 C     3479   1 H                                       1.0886640
  3294   6 C     3480   1 H                                       1.0868054
  3292   6 C     3481   1 H                                       1.0923103
  3292   6 C     3482   1 H                                       1.0935168
  3290   6 C     3483   1 H                                       1.0938433
  3291   6 C     3484   1 H                                       1.0879793
  3291   6 C     3485   1 H                                       1.0881831
  3291   6 C     3486   1 H                                       1.0860604
  3289   6 C     3487   1 H                                       1.0919679
  3289   6 C     3488   1 H                                       1.0936213
  3287   6 C     3489   1 H                                       1.0939111
  3288   6 C     3490   1 H                                       1.0876477
  3288   6 C     3491   1 H                                       1.0884077
  3288   6 C     3492   1 H                                       1.0866291
  3286   6 C     3493   1 H                                       1.0936103
  3286   6 C     3494   1 H                                       1.0939454
  3284   6 C     3495   1 H                                       1.0924721
  3285   6 C     3496   1 H                                       1.0871010
  3285   6 C     3497   1 H                                       1.0884439
  3285   6 C     3498   1 H                                       1.0874657
  3283   6 C     3499   1 H                                       1.0933766
  3283   6 C     3500   1 H                                       1.0933032
  3281   6 C     3501   1 H                                       1.0937128
  3282   6 C     3502   1 H                                       1.0865009
  3282   6 C     3503   1 H                                       1.0883681
  3282   6 C     3504   1 H                                       1.0881312
  3280   6 C     3505   1 H                                       1.0912119
  3280   6 C     3506   1 H                                       1.0933367
  3278   6 C     3507   1 H                                       1.0943938
  3279   6 C     3508   1 H                                       1.0854536
  3279   6 C     3509   1 H                                       1.0879857
  3279   6 C     3510   1 H                                       1.0872724
  3277   6 C     3511   1 H                                       1.0926740
  3277   6 C     3512   1 H                                       1.0933683
  3275   6 C     3513   1 H                                       1.0919671
  3276   6 C     3514   1 H                                       1.0883371
  3276   6 C     3515   1 H                                       1.0888183
  3276   6 C     3516   1 H                                       1.0868175
  3274   6 C     3517   1 H                                       1.0911931
  3274   6 C     3518   1 H                                       1.0943875
  3272   6 C     3519   1 H                                       1.0937547
  3273   6 C     3520   1 H                                       1.0885841
  3273   6 C     3521   1 H                                       1.0887037
  3273   6 C     3522   1 H                                       1.0867705
  3271   6 C     3523   1 H                                       1.0914682
  3271   6 C     3524   1 H                                       1.0933107
  3269   6 C     3525   1 H                                       1.0933150
  3270   6 C     3526   1 H                                       1.0875579
  3270   6 C     3527   1 H                                       1.0862147
  3270   6 C     3528   1 H                                       1.0878050
  3268   6 C     3529   1 H                                       1.0920398
  3268   6 C     3530   1 H                                       1.0927655
  3266   6 C     3531   1 H                                       1.0944625
  3267   6 C     3532   1 H                                       1.0883960
  3267   6 C     3533   1 H                                       1.0883880
  3267   6 C     3534   1 H                                       1.0879926
  3353   6 C     3535   1 H                                       1.0913858
  3353   6 C     3536   1 H                                       1.0912050

 * 2 distinct bonds (by element types)

   Z      Z             #   av. dist./Å        max./Å        min./Å
   1 H    6 C        2366     1.0902970     1.0991732     1.0837966
   6 C    6 C        1110     1.5324321     1.5401268     1.5214407


optimized geometry written to: xtbopt.xyz


           -------------------------------------------------
          | TOTAL ENERGY            -3716.258291480974 Eh   |
          | GRADIENT NORM               0.000838748979 Eh/α |
          | HOMO-LUMO GAP              11.216039512708 eV   |
           -------------------------------------------------

------------------------------------------------------------------------
 * finished run on 2024/06/26 at 06:05:32.022     
------------------------------------------------------------------------
 total:
 * wall-time:     4 d,  8 h, 44 min, 10.607 sec
 *  cpu-time:    23 d,  6 h, 10 min, 16.424 sec
 * ratio c/w:     5.329 speedup
 SCF:
 * wall-time:     0 d,  0 h,  9 min,  3.754 sec
 *  cpu-time:     0 d,  0 h, 47 min, 44.760 sec
 * ratio c/w:     5.268 speedup
 ANC optimizer:
 * wall-time:     4 d,  8 h, 33 min, 34.112 sec
 *  cpu-time:    23 d,  5 h, 20 min, 41.780 sec
 * ratio c/w:     5.330 speedup

