3795
 energy: -5103.611079400673 gnorm: 0.000917052108 xtb: 6.6.1 (8d0f1dd)
C          131.68649310314555      122.17773287807852      128.05623620705768
C          130.45330535767172      121.32341166758067      127.86324457676599
C          132.89581944160489      121.69122601034728      127.24880692127189
C          132.72198975958767      121.84760825577482      125.73638324513063
H          133.76069867428615      122.27376192200352      127.56862501558331
H          133.08581742992342      120.64257322586758      127.48516701395113
C          131.94607225056967      120.68772527489962      125.11791121628379
H          132.19992546461654      122.78001811862863      125.51180979221023
H          133.70559853831372      121.89549348082157      125.26466892989998
C          131.54851456943987      120.95083322183305      123.67696147959452
H          132.52089205319589      119.76387808281613      125.18033995932511
H          131.01682690189139      120.54124195653786      125.67157138073874
N          131.64329842677145      119.87760938665119      122.88285366757350
O          129.43578725518299      122.02730527507703      127.40257575474372
O          130.39033971048514      120.14163097864831      128.12642648729980
H          128.59859473814697      121.49237645724376      127.25752941433440
H          131.93735512491745      122.13876249328409      129.11816602658368
H          131.43675908821058      123.20249021438030      127.78304248515686
C          131.27602105378952      119.89067723130424      121.48373896776266
H          132.03281243315041      119.01946317679879      123.26186264090425
C          132.34291037907872      119.22881868311059      120.61683673974289
H          130.31999957239867      119.37171474509621      121.36189051812686
H          131.14564570099802      120.93967900254894      121.20378052524731
C          132.04858089184441      119.35991887217854      119.12165778602503
H          133.30485194759777      119.70006276657369      120.82813948457191
H          132.42655116957198      118.17736530598970      120.89391533364341
C          130.73055049452066      118.73029175029946      118.66790883425034
H          132.04185553459695      120.42032782844154      118.86093099114089
H          132.86640150506673      118.89095695015834      118.57177940062779
C          130.69656153500301      117.21838089987965      118.87503280866686
H          129.88924514465793      119.19193097742931      119.18503139899505
H          130.60605824756973      118.94005117026209      117.60449035577311
C          129.49347703639538      116.57694568749839      118.18952788263020
H          131.60852724982115      116.77108135206841      118.47620584378572
H          130.65764549788861      116.98441818587585      119.93943874871964
N          129.55833145196854      115.14202130480314      118.36760732944927
H          128.56865247725830      116.96859997624364      118.62589523566527
H          129.50316662338312      116.82228659073179      117.12104784963435
C          128.66702240790934      114.22079813606156      118.02900945186745
H          130.43311506861846      114.79009178382435      118.77879164740881
O          131.12822277484568      122.03661802075567      123.28646806926697
C          127.39583145056380      114.62871289569776      117.32170569505620
C          127.40910877118272      114.06978976305356      115.89396148817565
H          126.55951225941226      114.19632915990098      117.87764215409226
H          127.27732994339171      115.70848860886791      117.30536138373323
C          126.02564970871036      114.05972148313242      115.25516917156843
H          128.08921746861878      114.66390093748944      115.27863803143705
H          127.78451028010060      113.04620795507803      115.92405741235551
C          126.04796425971681      113.30648800708630      113.92331793497048
H          125.32083302151122      113.57656302331868      115.93459175303813
H          125.70016281616553      115.08452091174975      115.08507138329547
C          124.64224092038936      113.09626496098137      113.39620116534894
H          126.63686954081720      113.87043382479226      113.19845667595509
H          126.50774689778503      112.32645256287839      114.05909681605773
N          124.02898346089852      114.20379997822074      112.95893393658386
C          122.72794689427181      114.13754923887369      112.31866395259050
H          124.55532992706031      115.06879451587200      112.86305740578609
O          128.89130589847380      113.02279300205063      118.27087976685486
C          122.40158601104261      115.43891590534626      111.60155160283469
H          122.73438253464488      113.30112222464676      111.60972885773917
H          121.96231018194818      113.91431094651918      113.07011541621611
C          121.07741473780918      115.33915133124017      110.85253723793360
H          122.34661116111428      116.25708132266459      112.32096306178298
H          123.20062204877222      115.67463292941910      110.89640564319642
C          120.76880472208457      116.60662771293028      110.06026357272737
H          121.11579351374958      114.48770624642658      110.17229513274063
H          120.27431612971047      115.16281848288411      111.56926687130075
C          119.37217245429987      116.55383762736183      109.44612291773780
H          120.84097656433761      117.46996225889787      110.72382412644886
H          121.50952163359815      116.73805187912690      109.26830594512910
C          119.06030575505066      117.77087153831664      108.58469270223030
N          119.75747334283884      117.72256522454235      107.31485186369711
H          117.98117223022520      117.82483665671279      108.39169201775444
H          119.35891006844574      118.69231508190929      109.09269049540291
C          120.07259059574540      118.81430718984427      106.61731066251865
H          119.86243218646892      116.80696276555173      106.88833411973404
O          124.09228606935503      112.00047846582287      113.39837494295683
C          120.56210855901838      118.56546111955473      105.20596440637858
C          119.44009597125201      117.98859038689302      104.33876391500816
H          120.89134428948459      119.52100245653040      104.80142084526585
H          121.40539231787243      117.87497271248523      105.21878334585388
C          119.88134259505061      117.70959225770983      102.90293799070055
H          119.09751572259233      117.04824148474567      104.77177627690882
H          118.59482831163933      118.68128290185761      104.33602010227270
C          120.23505686385467      118.96562346140928      102.10122837652766
H          120.75664432585464      117.05690384871752      102.92126179305738
H          119.06819090764971      117.18920257020874      102.39565437190112
C          119.08135911147976      119.94833432483939      102.06235145949746
H          121.10587535561648      119.45227718154976      102.53963692867494
H          120.47902683291925      118.67081474517072      101.07945837368108
N          118.03750182489253      119.56065939679323      101.32709729266334
C          116.81771671153317      120.34609153203539      101.27019278991686
H          118.03225847492304      118.63051590115769      100.91729112622581
H          119.26648048531430      115.65763214347331      108.83339338301067
H          118.63050332328109      116.49615622953789      110.24431375046069
O          119.96871701855895      119.95353311287275      107.07610793598663
O          119.10937374208164      121.03295703793835      102.64180324108432
C          115.74429744924093      119.63988121967191      100.45102975092983
H          116.45907149595675      120.51324721602379      102.29240684982437
H          117.06089453072055      121.32479723087430      100.84453327677167
C          114.33596992797973      120.16277120896129      100.74144190405535
H          115.97364359619893      119.73654607836751       99.38892746754073
H          115.76615285879552      118.57799639273469      100.70679919423267
C          114.13766501837551      121.65888902755337      100.50140034448002
H          113.62077736868103      119.61606406685002      100.12368433217230
H          114.10007711615259      119.94780898364372      101.78525446472980
C          114.13420481181097      122.03979219978591       99.02391414303952
H          113.17161523297032      121.94104607425730      100.92496279557675
H          114.90479614024262      122.22721744787299      101.02749400923197
C          114.01879924734543      123.55225964875473       98.83046580469787
H          115.05287393533111      121.69828632292977       98.54683588094854
H          113.29209253820025      121.54961669824192       98.53323481507911
N          115.26930373393927      124.20860695168803       99.15039076049609
H          113.75547073478641      123.77342485652994       97.79018824566586
H          113.24135197543157      123.96540265338098       99.47664451512107
C          115.39474848913038      125.27413482513998       99.94416023914502
H          116.07560363917352      123.87460738196943       98.61591148749920
C          116.81379450454021      125.79709121875713      100.08660281590464
C          117.28175593453793      125.69461217580334      101.54155202583523
H          117.48840335043353      125.24553992751532       99.43396438294721
H          116.81027228386584      126.84783239356086       99.79144014934964
C          117.42970801418809      124.24710959378275      101.99971029125146
H          118.23412962353031      126.21406970385320      101.65667794226763
H          116.54992039413439      126.19322029434058      102.18138073656326
C          117.91043116261197      124.14895930514436      103.45088381394386
H          116.46010043413639      123.74975775883748      101.92602671656830
H          118.13125760041915      123.71567957357156      101.35385938645011
C          119.36463377761956      124.56209007273712      103.61666451450272
H          117.30019114593414      124.79609993940153      104.08200339915032
H          117.80936457532924      123.11697896457454      103.78714438240537
N          120.23036485505247      123.57715627092553      103.35048424405758
C          121.64332190980151      123.59644663568002      103.66215953134621
H          119.85465590969376      122.66892840256412      103.09494101758928
O          114.45218583676649      125.80271624607870      100.53464514376634
C          122.01903254270350      122.25854255147817      104.29401943972049
H          122.23071774854967      123.75804302317604      102.75147749348490
H          121.83866810843382      124.43352662147370      104.33756234169151
C          123.48844722857578      122.12455937831784      104.68610767841780
H          121.39741841098909      122.09940407982694      105.17693543566715
H          121.77356973986403      121.47314206191616      103.57523115170920
C          123.71679624318921      120.76303264008732      105.34390722608406
H          124.11518296321891      122.21743885947694      103.79618201411060
H          123.77402376877743      122.92434796045477      105.37233863850562
C          125.18780362003407      120.42674450568234      105.58424203732883
H          123.18384129228117      120.73817985054519      106.29705760162025
H          123.28045970994947      119.99614629230848      104.70098435548221
C          125.35470299436828      119.11725784593665      106.34740776187205
H          125.71070038883229      120.34641823724769      104.62828347758209
H          125.66162100933434      121.21956287858359      106.16655778472537
N          124.73060680635940      118.01307079546052      105.64065848624432
H          126.41893620457995      118.91244355960117      106.51482045283703
H          124.88664525944939      119.19659618300498      107.33472547887000
O          119.70292200231799      125.69322886474708      103.95050568603705
C          124.49090540995515      116.82042959075147      106.19987444829820
H          124.34979473053544      118.19833777148797      104.72063693963963
C          123.55542226132224      115.94127981446290      105.39019859643300
C          123.85720860078401      114.44431579947783      105.42601509241031
H          122.56075034257944      116.08812462714843      105.82535158709985
H          123.52331407103506      116.30013616229503      104.36192668840998
C          122.74279452205938      113.68639414645104      104.70481663069354
H          124.82127677619626      114.24015721881014      104.95466444825077
H          123.92131039096742      114.11889745370995      106.46489874001772
C          122.80931501539568      112.16721878380129      104.88384472441956
H          121.78503509373380      114.03520899786565      105.09224635582397
H          122.76883529871664      113.92891795267224      103.64135434506504
C          124.02447601990052      111.55953674228655      104.21038765201327
H          122.84188892371726      111.91758908251477      105.94409266207978
H          121.91571890551705      111.72358512911241      104.44151933976234
N          123.98753003247793      111.58530994068984      102.87658643806093
O          124.94854100987031      116.49945877323464      107.29344655186952
C          125.05398193558929      111.06376011272373      102.05044590686893
H          123.20830606531575      112.01829452580522      102.39814607011967
C          125.09801710203070      111.74880727052614      100.68934748762935
H          125.99478141111081      111.19472380979360      102.59233667973440
H          124.90251608404995      109.98590833490127      101.90275743954528
C          125.19689218589802      113.27249058581485      100.75887417011081
H          125.94774940298105      111.34677375237453      100.13533276830591
H          124.18700618432528      111.49238436903343      100.14484189145281
C          126.45078914918923      113.78432121795812      101.46529915836355
H          125.19448698780266      113.65230181935387       99.73487907052893
H          124.30648340135052      113.65695543842965      101.25398494772597
C          126.61399104029850      115.29632128596921      101.30536656100216
H          126.41515831013103      113.53478126392704      102.52684147446364
H          127.32468738535187      113.29194901507262      101.03427447704415
C          125.66557371963830      116.10134760251661      102.18821656280521
H          127.63481702790592      115.59476139991256      101.55120413418388
H          126.43506817786307      115.56390585528274      100.26202799750618
N          125.70092660950314      117.49145392524349      101.77957560917790
H          124.63363748743585      115.75334005673960      102.09165972743479
H          125.95530312991372      116.00465162356622      103.24175176298078
C          124.78177118085830      118.38858696314203      102.14490504730323
H          126.59477954527327      117.80200645908188      101.42085414762005
O          124.95702755978724      111.06768392041194      104.84451522198655
C          124.93133218923711      119.76303632235386      101.52469062114105
C          123.91499372616912      119.87195815724688      100.38194565552996
H          124.70803938371856      120.51813869655477      102.27930474200190
H          125.94469429213338      119.91009101507856      101.15343034320523
C          123.91737982438637      121.24415694977306       99.71213484303800
H          124.13500089689299      119.10536248761295       99.63636052065360
H          122.92186896953788      119.67012936329949      100.78775989897144
C          122.82777420034152      121.30189587364697       98.63569426927016
H          123.74570180233040      122.01592190429093      100.46290846168608
H          124.88883768725550      121.43031524716875       99.25066376047059
C          122.85486113910943      122.60268993777849       97.85964385420419
H          123.00862472264963      120.49953960424284       97.91794182563316
H          121.85061421408675      121.15590267261712       99.09643445169513
N          122.22216419693777      123.65862852587613       98.38770098136307
C          121.51502596384255      123.76097026338024       99.64692582524121
H          122.28458955477431      124.50888462885425       97.84391164575530
O          123.82395152986663      118.10568146944728      102.86457636685907
C          120.75377104135517      125.08124885577998       99.73741706198518
H          120.80396956700045      122.93403480772642       99.73390748958596
H          122.21908049605599      123.68604964369361      100.48021828999691
C          121.64461875006025      126.32234858820364       99.82113156571232
H          120.10038397591907      125.16572397946446       98.86693982767876
H          120.12797199169890      125.04516163033153      100.62952941555832
C          122.39405493427199      126.43333668183539      101.14709182069799
H          122.36426819284429      126.33401755021913       98.99986264453197
H          121.00811388170932      127.20191483807112       99.70905351807893
C          123.15051199974513      127.75538886408383      101.25459925714932
H          121.68394524718539      126.35738886738787      101.97284576116076
H          123.11082040937755      125.61626105760760      101.24374033541966
C          123.89088573807815      127.88080844333473      102.58414753299975
H          123.87524078219937      127.83480156307535      100.44281051118008
H          122.44749498465684      128.58479463308277      101.16751877028436
N          122.96069437201160      127.84977937917151      103.68868742285217
H          124.59157545442024      127.05237574119408      102.71875485431916
H          124.45610224096647      128.81999473176171      102.60568306461948
C          123.11291494566072      127.07595847680814      104.76093323386650
H          122.10549076407764      128.41342216611113      103.57679201112322
O          123.42556872595716      122.69642709215191       96.77431571513449
C          121.96118706116823      127.14636015803164      105.74199792387166
C          121.95672071552293      128.46520038173085      106.52118570074479
H          121.03379424403765      127.04009205411404      105.17810149774320
H          122.04257358423440      126.30634865842126      106.43324589813405
C          120.57174374209632      128.81791706211428      107.05916665903663
H          122.66191327804637      128.39823691537580      107.35091878698364
H          122.29298609238845      129.27440764823174      105.87022192990580
C          119.94363384061133      127.71724805506719      107.91209100127794
H          120.64243331069271      129.73188949242106      107.65435232685485
H          119.88564415183002      129.01376136779763      106.23218216398240
C          118.57088461177256      128.16629932875142      108.37566892759119
H          119.81277362078252      126.82054030101501      107.30447010324397
H          120.56579233664782      127.47728464364654      108.77176769702513
N          118.34503081963015      128.00712142277587      109.68451961463683
O          124.10284740866487      126.36439921157034      104.94850326048930
C          117.11893412169064      128.44701155591636      110.31456885476766
H          119.06353077133231      127.59404643158639      110.26234587567359
C          117.34775434632496      128.87473856670823      111.75840065878216
H          116.74141355694259      129.28119091352065      109.71402218760917
H          116.36628484389607      127.64974788101634      110.27087461494722
C          118.36158933355964      130.01059390863534      111.88512800932307
H          116.38510463902824      129.18332990580760      112.16382624769939
H          117.69134752914654      128.01722828267799      112.33678250900657
C          118.48200934105546      130.52840602021035      113.32062916414291
H          119.33833678927300      129.64626647885549      111.56286541033501
H          118.08424328446563      130.82092116946853      111.21024520898889
C          117.26002531858148      131.30047624011669      113.82046098736154
H          118.64000373883368      129.67703302752091      113.98390241261394
H          119.35532573149105      131.17811588263859      113.39475489772380
C          117.09026795924395      132.65457008902214      113.12586851002999
H          116.35444679434390      130.70976534779913      113.67629857475778
H          117.36783729537542      131.47322140537494      114.89349604537716
N          115.88492824334357      133.30477886997835      113.58861193285564
H          117.94724824370709      133.29429204056598      113.35974981306266
H          117.03765875858615      132.52343532252959      112.04833933503768
C          114.75349441819077      133.60711341493959      112.93849059855272
H          115.85448220536094      133.45388754961772      114.59014539736172
O          117.74146627680210      128.65241410129607      107.61083491567271
C          114.70690883133237      133.42398815044643      111.43551649110913
C          114.30325229120669      131.98572630257576      111.08718593517878
H          113.95088479331217      134.10840508297602      111.04822145381986
H          115.66474423417127      133.67727041952671      110.98329420899205
C          114.23343198032553      131.73413605260754      109.58063328846498
H          115.01315048282066      131.28433589486482      111.52915775098438
H          113.32298692373794      131.79537245400644      111.52469009813495
C          113.69248891356033      130.33287684692851      109.29884694233513
H          113.59222347939840      132.47511133725882      109.10139842964449
H          115.22812807709381      131.82776348376933      109.13976717742462
C          113.73941105047200      129.93318796070517      107.83283538478349
H          114.25694074981466      129.59252312330437      109.86453700752713
H          112.64610645310015      130.26909117456540      109.61148587631958
N          113.86680724008249      128.62205857076796      107.64740394061947
C          113.94459083293728      127.97677770515031      106.35316253940091
H          113.98755366601068      128.01399600700833      108.45299741848889
O          113.77909187301185      134.01975067599639      113.56996703188823
C          114.56201323973634      126.59470399658311      106.51346879289038
H          112.94014579011537      127.90733953078356      105.92067415041724
H          114.56074001366046      128.59220044409179      105.69156404740554
C          114.64362024251726      125.80770449093657      105.20797750396261
H          115.56614873193823      126.72125935297902      106.92459629248722
H          113.97248197710226      126.03108452101010      107.23918472420080
C          113.27757078855909      125.49063987643774      104.59782913692463
H          115.24480127237607      126.36558005922608      104.48747624841688
H          115.15919396630352      124.86766383363675      105.41675443271218
C          113.37743305449881      124.36110935586726      103.57367778391550
H          112.58716694668651      125.19288375048406      105.38983232855556
H          112.86459096991953      126.37984409848890      104.11910858224363
C          112.08358053434729      124.16800795001063      102.79008915435961
H          114.17760436589576      124.58318956132037      102.86552001494302
H          113.62751042076719      123.43230222160531      104.08771437430680
N          111.93562711671146      125.21832443517113      101.80742307158189
H          112.08952737413432      123.19129235611791      102.28963071438652
H          111.21357033919868      124.20236177014523      103.45243164669898
C          110.75864223808532      125.66165180237755      101.36273241838030
H          112.80045074350507      125.55301495002411      101.38865109152961
O          113.62446838009927      130.74389467857597      106.91152221479948
C          110.84781357935061      126.81873621279250      100.38214993699823
C          109.93792461972230      127.96664484742705      100.83106369500432
H          111.88306713511224      127.14413612243310      100.29060105695260
H          110.51146257822504      126.46337543098419       99.40564250734731
C          110.21693889906130      128.43000592516839      102.26022936866897
H          110.04431946416361      128.80447448659669      100.13990337438209
H          108.90501566356248      127.61667260361253      100.78248126884360
C          111.54607080419764      129.16448216208249      102.41796674338124
H          109.41342532570607      129.09568309383647      102.58181177923861
H          110.20207226620492      127.56730792147772      102.92861471979258
C          111.82284023907789      129.49150626591546      103.87502197506728
H          112.36925962046064      128.54893484955593      102.05064198384325
H          111.52419891282672      130.08720284194854      101.83630305843521
N          112.85120863137456      130.29599787854016      104.15202328526024
O          109.68262221151910      125.18811958251523      101.72623451683101
C          113.82724457318828      130.83048962841411      103.23080063032809
H          113.05632621725634      130.44693011645973      105.14367063345962
C          115.04716473309534      129.91586269232775      103.06250655830573
H          113.36265810565379      130.99683664366745      102.25712672764394
H          114.15227256685914      131.79591789658517      103.62483234711847
C          115.94390956388760      130.40040417983755      101.92437625010153
H          115.60480887005004      129.89264734640184      103.99988559939378
H          114.71074789903381      128.89902330414463      102.84822321521820
C          117.21920696949863      129.56740088963542      101.77222111807613
H          115.37522097663391      130.35020190791781      100.99329689235537
H          116.21063903950738      131.44572209718149      102.09320869090077
C          118.30193942227858      129.93727780660981      102.78278094663725
H          116.97290069822957      128.51093479799187      101.87769156813224
H          117.62149374867218      129.71867729854060      100.76791059414877
C          119.56032121038822      129.07389107960640      102.62672983680977
H          118.57289340044117      130.98841942729590      102.63990481541420
H          117.92085327570136      129.82788445983110      103.80079853905862
N          120.71137932061225      129.57836179527905      103.36908561483735
H          119.36438745820500      128.05794827839551      102.97940289823954
H          119.84440078251846      129.02404458513973      101.57206700881031
H          120.44929690232648      129.69265075276050      104.34346449801937
H          120.96913229274398      130.49692464790294      103.02046680807489
O          111.11591838242330      129.03497631783421      104.77723589743231
C          110.50503102407946      125.37077607040244      126.83793018184214
C          109.97067927436503      124.63708731319286      125.63061103085855
C          109.62947320156928      125.12877334063276      128.08089816803866
C          109.61361717685175      123.66914936379314      128.53454672900043
H          110.00797376056590      125.75622008636159      128.88911733216881
H          108.61045840312413      125.44891955499575      127.85399491847654
C          110.90990867569523      123.24120434274195      129.23728142735382
H          108.77386989838708      123.50840138355103      129.21313953440645
H          109.45359947084816      123.03917439576225      127.66011670868569
C          110.90663481822774      123.59796118289590      130.71185840707761
H          111.03194867841462      122.16197924737608      129.15487150913762
H          111.76875551146928      123.72847960789566      128.77480459455379
N          110.17900903698845      122.78214444582828      131.47406361949592
O          109.21726584669723      125.40241606227933      124.86963658128747
O          110.19429718831742      123.46764278347517      125.38725280717631
H          108.83226060733161      124.94910676329246      124.05898079201295
H          110.51032944964561      126.43627311364520      126.61295314485599
H          111.52720442313000      125.04521692179281      127.03169892514741
C          110.06230650959532      122.91540394479291      132.91162342814778
H          109.64392288920543      122.02538024601957      131.05583089043864
C          108.68645214924283      122.45330901350762      133.37768633253063
H          110.83562874110720      122.30148351146519      133.39227751799746
H          110.25019318474685      123.95957769466614      133.17521840443479
C          108.62325678898459      122.27227490231186      134.89208929389832
H          107.92873629038104      123.17020956131677      133.05772989480957
H          108.47288129125745      121.50552571433190      132.88423738152733
C          107.32861054345879      121.59538647560463      135.34841498944564
H          109.47818127947326      121.68145840668497      135.22273045750839
H          108.69672322416460      123.24976966982673      135.37255992257261
C          107.20909117236687      120.12697333306988      134.93599942127764
H          107.26110100544476      121.65740276804902      136.43637528477512
H          106.48081723514554      122.14332121017421      134.93266387944868
C          108.20686136946756      119.22335419366090      135.65675347750800
H          106.20350583860279      119.77335720953015      135.17481501548343
H          107.34717751242019      120.02599219649714      133.85910710238929
N          108.00006462865147      117.83881316542856      135.28946958280193
H          109.23764214759424      119.47175300060812      135.39503370098780
H          108.08798274216508      119.33699195004056      136.74127192985981