3864
 energy: -5104.204610844741 gnorm: 0.000865331591 xtb: 6.6.1 (8d0f1dd)
C           32.83402936518072       43.47870294158697       51.99949637011171
C           31.95295061024414       43.27635150527692       53.05331853705161
C           32.11430718701240       42.13925926533387       53.83736839179673
C           33.13974498296448       41.24611920527936       53.58718968436325
C           34.02120871924731       41.46859121904982       52.54320810406433
C           33.85867646316220       42.58502282911853       51.74279313534761
C           30.86001864234553       44.27962218881249       53.33451638333874
C           29.48327252753230       43.65960249842797       53.08395691660774
C           30.95954242293381       44.81866481539272       54.76860056020103
C           32.35013158591867       45.39941081532435       55.05493342396172
C           32.62073856119056       46.63378850895629       54.23289800497751
C           33.71693135126500       46.67976749738997       53.38071503347889
C           33.99217879842190       47.80909707676455       52.62961418803713
C           33.15907607963041       48.91141386442483       52.70946415865583
C           32.05846735467701       48.87656802978801       53.54756703591437
C           31.79750482143612       47.75110758901992       54.30846326852860
C           32.55080638193049       45.67979525096645       56.55262216953585
C           34.04087069939686       45.80127198823114       56.91451995819148
C           34.77669789647037       44.56836176200009       56.44942203191540
C           35.79773985931519       44.65828874258445       55.51201864936371
C           36.38435865353547       43.51902309227320       54.98943729029497
C           35.96233598584867       42.26741366254029       55.39831438955756
C           34.97732470493672       42.16563065522280       56.36423626392157
C           34.39523056704829       43.30450129908989       56.88654574819530
C           34.21422478159922       46.03383785982705       58.42259250258192
C           35.58068527889516       46.64246843986707       58.77263680027215
C           35.67278597563855       48.04128451190668       58.21484534214486
C           36.52923282112376       48.33758278496145       57.16170931419082
C           36.60148799264160       49.61682645330512       56.63851649698861
C           35.81185251154450       50.62512588918172       57.16201320506663
C           34.95681823060853       50.34550605719429       58.21451492609276
C           34.88983173057488       49.06589638896482       58.73579813093263
C           35.79858872625479       46.64557106170373       60.29679021128317
C           36.40681757793047       45.33612103948939       60.82897837112405
C           36.05626250482963       45.16523060319867       62.28531640369114
C           35.26039258889028       44.10604911896115       62.70268305490304
C           34.92650697051016       43.94799713767863       64.03660170495591
C           35.38179353102284       44.85499770293821       64.97775557165309
C           36.16935209637758       45.91900993810658       64.57222526889241
C           36.50389508170645       46.07242854287946       63.23961956339612
C           37.92692700854636       45.32877947871285       60.63442389092737
C           38.57025570708134       43.98764399769116       61.01946267416263
C           38.10735055617165       42.89140159896982       60.09589326759131
C           38.42823583194342       42.90493721014761       58.74362491210204
C           38.03136243418407       41.87712351805154       57.91036116428707
C           37.29078172270130       40.82135906246160       58.41164936758062
C           36.94136071963933       40.80794652548537       59.75032615971491
C           37.34904699292628       41.83509054148079       60.58380522913604
C           40.09740977519081       44.14033984539773       60.99849800630780
C           40.87127724004412       42.83559757208102       61.23739746964077
C           40.57374320813449       42.26111997612765       62.59903937618821
C           39.83685822443397       41.09026124616517       62.72045666645417
C           39.53893018147835       40.56208720152922       63.96367123842079
C           39.98685130816221       41.19095399830051       65.11169084069316
C           40.74113909608063       42.34574414719014       65.00367571182859
C           41.03057744704258       42.87407326887161       63.75952216285260
C           42.38211297619765       43.06733109821457       61.07024916644095
C           42.79991995303270       43.21694626672075       59.60172587807855
C           42.48502668253481       41.96911236834102       58.81824259619611
C           43.01406360155357       40.73577821633243       59.17905049544903
C           42.70507952459060       39.59421060374908       58.46311348721684
C           41.86882848777268       39.66483592384626       57.36196543650588
C           41.34883038611773       40.88943098838374       56.98386595379463
C           41.65198114673434       42.02818453862917       57.70848869535647
C           44.28443182967882       43.59366158015320       59.50521933279182
C           44.71734733601720       43.94539756396215       58.06333978043975
C           45.68150073423793       42.91880431904266       57.52519426727768
C           45.19547783095007       41.87301318353611       56.75011160431067
C           46.04586576200381       40.91221519541924       56.23613853180981
C           47.40334633275916       40.98198373030880       56.48651200879227
C           47.89430313957630       42.00558201542163       57.27481181912585
C           47.04432883495427       42.96510248106133       57.79213615983563
C           45.28587186814269       45.36779705264961       57.98275330339532
C           44.18329894020346       46.43595656439670       58.09650698799704
C           44.19599049023630       47.22524182831526       59.38051537513404
C           43.01979104157968       47.42780155149904       60.09141683635541
C           42.98064057192350       48.29320053124060       61.17110781941791
C           44.12508793932317       48.96728435541713       61.56110051081163
C           45.31273130233297       48.74506835615652       60.88498189984162
C           45.34487752696730       47.88272360701649       59.80395866305985
C           44.27100771551608       47.47005998982173       56.96146251970732
C           43.88917805780183       46.93672878169370       55.57477323727401
C           42.58562952444107       46.17969920163718       55.58432292108449
C           41.43402764389170       46.72316490562574       56.14542596964995
C           40.23812382759305       46.02782180477310       56.12248867815597
C           40.16378418686452       44.78161749087330       55.52233793398555
C           41.30175786514150       44.23194941913918       54.95618938617105
C           42.50051096959047       44.92299251027828       54.99659088767319
C           43.79801534595057       48.13314218551746       54.61417068379525
C           43.45581237590000       47.71969792724128       53.18211771460185
C           44.59622572329780       47.01304056043976       52.48536597033151
C           44.34429137523340       45.86162025668633       51.75101290657229
C           45.35100202227787       45.22383954277631       51.04887600238091
C           46.63779336891926       45.72881887996743       51.07025592545606
C           46.90295413856041       46.87804845556070       51.79236433491106
C           45.89167552921490       47.51622921940171       52.48726120548595
C           43.03695419791138       48.89835762288736       52.28377617303689
C           41.97299535351092       49.84184766313201       52.85256222020272
C           41.67645549950458       51.00214464279005       51.92880315613716
C           41.79501654603781       50.93744687131971       50.54659328560231
C           41.50679421958453       52.03565252452080       49.75491299556895
C           41.07900995273911       53.21877271621987       50.32793967935899
C           40.95318601383571       53.29868903099526       51.70393799518334
C           41.25950454348713       52.20486945343927       52.49205342330453
C           40.67307569869763       49.12228626988111       53.25775697066994
C           39.88013929255418       48.49449096479496       52.09164457357185
C           38.65183584578311       49.32029869485455       51.80924890804485
C           38.51412254215006       50.01232217511443       50.61489363323541
C           37.41700630017525       50.82424225704789       50.38998367384592
C           36.43373292813650       50.95081342360918       51.35473185821288
C           36.55023117710580       50.25267808772550       52.54466680420445
C           37.65032808095909       49.44660829702615       52.76615169312957
C           39.52067914894774       47.03731017152769       52.41091382105184
C           38.83750044591534       46.30653758797069       51.24570942542764
C           39.73083058970884       46.24866693596964       50.03527544089292
C           39.35831567907738       46.86526019619548       48.84857917463589
C           40.16590972255472       46.78522785656174       47.72675692789143
C           41.35948673731509       46.08710903500010       47.77185185952258
C           41.73987476215837       45.46982637030439       48.95225295164106
C           40.93265755041500       45.55002714027076       50.07062368353357
C           38.44303769902859       44.89375782065397       51.70689897243501
C           37.99212546946370       43.97113448874212       50.57046582259704
C           36.83775837835955       44.52159601819927       49.76980630018529
C           36.79900572748652       44.30879343220263       48.39638620092590
C           35.72316899178907       44.73363528758032       47.63867937320461
C           34.66765149745083       45.39475837525382       48.24268742108302
C           34.70037770506202       45.62648129543789       49.60583837412157
C           35.77043639209422       45.18317454174683       50.36305655187984
C           37.59067181543074       42.58400522412948       51.10723413088531
C           38.77616012086524       41.70282504320242       51.53887642360133
C           38.28551379770062       40.60901559857216       52.45337176810164
C           38.75883994684697       40.51359232323439       53.75553854903848
C           38.32758500456251       39.50611690633868       54.60177576248111
C           37.39902963891863       38.58087852885588       54.15747374616981
C           36.90802426590998       38.67190151058142       52.86521152931213
C           37.35000812927088       39.67533591697371       52.02172525976211
C           39.50518051967347       41.11736433765011       50.31884710383947
C           40.57665491229161       40.09096353113931       50.70796265249097
C           41.55291431036486       40.63312538247424       51.72189114547290
C           41.81992600463524       39.92661442601532       52.88793847478757
C           42.75294270838977       40.38557307553938       53.80189344582999
C           43.43999677864752       41.56166315894343       53.55742742642237
C           43.18212304351185       42.27530509571115       52.39873063889009
C           42.24632264228088       41.81625581542978       51.49010121524614
C           41.39272434225115       39.58856918574715       49.50367266483646
C           40.58028431244604       39.06686511089509       48.30918088241222
H           30.98824334520739       45.12336279792304       52.64630407722372
H           30.18836470220478       45.57587746314753       54.92044035902342
H           30.76630850147890       44.00560618133701       55.47119294371574
H           33.07661688119486       44.63283666948905       54.76536226937801
H           32.03854487360550       46.60324818810522       56.83048841303319
H           32.10628514492372       44.86689657592208       57.13015087967160
H           34.44039919138881       46.67164210834791       56.38138322107364
H           33.42912902092164       46.70936605146612       58.77037635681639
H           34.09666303579943       45.08767010846827       58.95400013289130
H           36.35483501203211       46.02594052546019       58.30374037325090
H           34.84058259347070       46.81758072640958       60.79305825679715
H           35.98231022230095       44.49469076147591       60.26969242500101
H           38.15294811511923       45.54650498456306       59.58935591551272
H           38.36884214602448       46.12154077769257       61.24159237643434
H           38.26175379620418       43.73154455144356       62.04015925204512
H           40.39119953418547       44.54743467175165       60.03028245776028
H           40.37446782178303       44.86625140546556       61.76422821876582
H           40.55320425643637       42.10384491606741       60.48594216771387
H           42.67865052206590       43.96765280260674       61.61155405851848
H           42.91515299167789       42.22743170086348       61.51936242925127
H           42.22796824492249       44.04172350665455       59.16350367052000
H           43.83114264440930       43.90900920748922       57.41963343558847
H           46.02671123787493       45.50817382173363       58.77023206282135
H           45.80425519604909       45.47491373942816       57.02849914193698
H           43.21013615639495       45.94178588217833       58.01874740877618
H           43.61364928822659       48.30741523897582       57.21092220288366
H           45.28927512338863       47.86006204783307       56.91657992320595
H           44.67450402152875       46.26179028632423       55.21903277157335
H           43.02701072550087       48.80188578163749       54.99595809870390
H           44.74065373495092       48.67918732285882       54.63537001643234
H           42.61140546503317       47.02421605843737       53.22933174186485
H           43.92092602336790       49.49782406227062       52.05460111323718
H           42.68309148886173       48.45576359745857       51.35040439393144
H           42.37633160004771       50.28590046434331       53.77076226784638
H           40.91962058747775       48.34736311628387       53.98530973021432
H           40.03696412642660       49.84922721050917       53.76825463521784
H           40.49827073170102       48.49130728547907       51.18991842946487
H           40.43462504290702       46.50056663315715       52.67638434797514
H           38.86301971345451       47.00163413109438       53.28216809087740
H           37.92921641886470       46.85566911909855       50.97220831643137
H           39.30051702161127       44.43630145864149       52.20552313500470
H           37.64938213573646       44.98059432602510       52.45142744779336
H           38.83263843566171       43.83960912786844       49.88150401338093
H           36.91375353417919       42.71814848776739       51.95553187234935
H           37.03345901283400       42.05865679765360       50.32682795538356
H           39.48786330479778       42.31179956878191       52.10524083150973
H           38.77191272960805       40.63559267898813       49.66962184584033
H           39.96233751962004       41.92954832461096       49.75157802815255
H           32.72203911521848       44.35233233577168       51.37328527342797
H           34.53164240958498       42.77105464839595       50.91836271526828
H           34.82984204580659       40.77619624113402       52.35942289067972
H           33.25469609174790       40.37197056804982       54.21208394242323
H           31.43885245993568       41.94937377942227       54.65876255882809
H           34.35561916191531       45.81038691069679       53.30902981062219
H           34.85653886421980       47.83396895086766       51.98101267850736
H           33.36652590685555       49.79678294469660       52.12574574564869
H           31.40371027676773       49.73373007920449       53.60945768568667
H           30.93897891013123       47.74564318019971       54.96534434412616
H           36.11810270902320       45.63423070624780       55.17292193057646
H           37.16563324733014       43.60213149094475       54.24725144568473
H           36.39892946355839       41.37818807998401       54.96825548627410
H           34.65144246883588       41.19308102745617       56.70416408737044
H           33.61649193577688       43.20283088241660       57.62888994832269
H           37.14701881148188       47.55246184765705       56.74794412210218
H           37.27801297835335       49.83905494169102       55.82697932294906
H           35.87138660054488       51.62543678980951       56.76035755368111
H           34.34164194061730       51.12992146629012       58.63294712871855
H           34.22136713359250       48.86282120916530       59.56016129417269
H           36.45979860939059       47.46934089937197       60.57147576451495
H           34.89913043179232       43.39367363835561       61.97324236679307
H           34.30831178644872       43.11569992032474       64.34271849591920
H           35.12136195828818       44.73385893603707       66.01947418635152
H           36.52545983837614       46.63696168139985       65.29691310356939
H           37.11472954017393       46.91325539689271       62.94600884183116
H           39.00291673372548       43.72209973344313       58.33440611232823
H           38.29708961127599       41.89737782347292       56.86464729236471
H           36.98408929481987       40.01480989349649       57.76121628689713
H           36.35517876787408       39.99163070522841       60.15053407175095
H           37.08259553060609       41.81460919421222       61.63222733246967
H           39.49053873255995       40.58775846332565       61.82755293057251
H           38.95646962923416       39.65407000945320       64.03730065242587
H           39.75451912883375       40.78013198357534       66.08370338561190
H           41.10147600380544       42.83916647168178       65.89545194326369
H           41.62144591612554       43.77404578502366       63.69672951088550
H           43.67650662908954       40.66263190608132       60.02780888338538
H           43.11565395521487       38.63913124471429       58.76248160756361
H           41.63000705731682       38.76845482886542       56.80578387903786
H           40.70770686302476       40.95721224676327       56.11767724321375
H           41.23887433833285       42.97773279502196       57.39863159047880
H           44.45766193195478       44.45315289827136       60.15464015785976
H           44.89340488540486       42.77327903179496       59.88979448270920
H           44.13376324675782       41.80961488635413       56.55718373086722
H           45.64269607333201       40.10809249841137       55.63561111912069
H           48.07776966012862       40.24552821022102       56.07892732319385
H           48.95142118232990       42.04841061624228       57.48569360326606
H           47.44948304068573       43.75479155667269       58.40692107690298
H           42.11868565620300       46.91458402245742       59.78442397498629
H           42.05296507053468       48.44790563151839       61.70390954540041
H           44.09391219938011       49.67223437286148       62.37987700016774
H           46.21070678236725       49.26230878429627       61.19427436147301
H           46.26751351574539       47.73406772258764       59.26377550830846
H           41.47087049906504       47.69487450903823       56.61618282166796
H           39.35799103896947       46.46184946886339       56.57663620565071
H           39.22653614476835       44.24276732578343       55.50491017271032
H           41.26573144284024       43.25768049869685       54.48722841238644
H           43.38388062157443       44.47670756297201       54.56199503242198
H           43.33780654721043       45.46782390405923       51.72802339124255
H           45.13743278237354       44.32780469064539       50.48228868505814
H           47.42683114511004       45.23049544644650       50.52645058148234
H           47.90628436928010       47.27997690435237       51.80687789235480
H           46.12087895064131       48.41972373279033       53.03258179500803
H           42.11842739913106       50.02980082083231       50.05986909484570
H           41.61602487350697       51.96330326644662       48.68219505432966
H           40.84901747969189       54.06774477395700       49.70019975589738
H           40.62046934997601       54.21761661090817       52.16595238189442
H           41.18044992860195       52.28657478445870       53.56779718430941
H           39.27718719927032       49.92472509345837       49.85491848413695
H           37.33943390384130       51.35814905219378       49.45500627201916
H           35.57762042695462       51.58814777076866       51.18933561742983
H           35.78283338133998       50.33786827379831       53.30131206744103
H           37.73164697268063       48.91130663724466       53.70145768747900
H           38.42227626623999       47.40571354245970       48.79817958502597
H           39.85359644589319       47.26985588691781       46.81317361097516
H           41.98713254215112       46.01085933269563       46.89495385006455
H           42.66575134875798       44.91383087636297       48.99533759391322
H           41.22925384596872       45.04763290840064       50.98062289651953
H           37.62014553389221       43.79309857652219       47.91705148181266
H           35.70673538400266       44.54914695859602       46.57312215844278
H           33.82199844258941       45.72491192839200       47.65644146667856
H           33.88591800093842       46.15197767900824       50.08539365637977
H           35.76132465971185       45.35223115548543       51.42878054765193
H           39.48008402022803       41.23707235418508       54.11034969711609
H           38.71371593849221       39.44415048310411       55.61019723428556
H           37.05666598649274       37.79420053101173       54.81578777431358
H           36.17665917416670       37.95676720445806       52.51334201134908
H           36.96347001503526       39.73323320266916       51.01503218686359
H           42.05664724132500       42.38220978739210       50.58880160181038
H           43.72172772315400       43.19074312943098       52.20515347577292
H           44.17779518630910       41.91822056239364       54.26017473605879
H           42.94415729978886       39.82271693749762       54.70480721023220
H           41.29177106081335       39.00320064053332       53.08540272822474
H           28.70071223824212       44.39872559977572       53.24105362501455
H           29.41392934089090       43.29413949258349       52.06158672768553
H           29.30881443881609       42.82434403911954       53.75807572221549
H           40.06956361749234       39.23414643395902       51.16250885505926
H           42.02321841103288       40.40421047278967       49.13888517772845
H           42.05647261317486       38.79726055373560       49.86123923692959
C           39.66086142959859       37.89727121273019       48.67649090281395
C           41.54251508829459       38.70137461504306       47.20456217273438
C           42.41003389932509       37.62119996620299       47.32169226004108
C           43.31736055339454       37.32941861296521       46.32053619970617
C           43.37477561353076       38.11448322566820       45.18170935775743
C           42.51742553007882       39.19168441612595       45.05219920769439
C           41.61032940589858       39.47921537433144       46.05687878326913
H           42.38048307079697       36.99926628718472       48.20433551314883
H           43.98720149989737       36.48982794961276       46.42717268012608
H           44.09039702259965       37.88404898433608       44.40635498460650
H           42.55740854219270       39.82398926166487       44.17577016568416
H           40.95198737377747       40.32952291132396       45.95521636886444
C           38.69510661992548       37.56407159683389       47.53137501786733
H           40.24808407139586       37.01106748294541       48.92153022495526
H           39.07494909978542       38.15531063861261       49.55921401163398
C           37.80413792442031       38.73411255700343       47.23219186486315
C           36.81988301591134       39.11411478423826       48.13782918880935
C           36.05784009266274       40.24837907868770       47.92393759957098
C           36.26598851789660       41.01878365680129       46.79198338591851
C           37.22281114156134       40.63276013062776       45.86918152391690
C           37.98409013388069       39.49776646760616       46.08652604662429
H           36.65034670183893       38.50701509549562       49.01711730916202
H           35.29916746197119       40.53670207258820       48.63937421852269
H           35.67821893324975       41.91160731496981       46.63637435433105
H           37.38353404237557       41.21972116320014       44.97612827976797
H           38.72605511922411       39.19675286620487       45.36069804411921
H           39.95422610866500       39.88641894417943       47.94295157173199
H           39.26607356087785       37.30208395590697       46.64049117738605
H           38.08966620324023       36.70098429646459       47.82055107037308
C           48.48192964411341       29.75173764452738       54.67223573035904
C           49.84551851433184       29.92978937912551       54.47040673263017
C           50.26769895168546       31.06389333988398       53.78647742817088
C           49.35451519796786       31.99211825111392       53.31924865992866
C           47.99909616059284       31.79834235823909       53.52384624018149
C           47.56326492045908       30.67378019224739       54.20195386778023
C           50.81643650331113       28.87335977660513       54.93642549164581
C           51.26347340655585       28.03135456103251       53.73574390334016
C           52.02698021513113       29.45329801246143       55.67679179974281
C           51.62513225624809       30.21532243158018       56.94576001087378
C           50.85158392460391       29.32904272465143       57.88913182420933
C           51.39313157228997       28.14346901923676       58.37443788010031
C           50.67632637040784       27.34236981701968       59.24453097861785
C           49.40509038280373       27.71500503616454       59.64904422186132
C           48.85936440745541       28.89654962890220       59.17856113349618
C           49.57856706290244       29.69553134561907       58.30699006585900
C           52.86442588932104       30.76815543719226       57.66914542204280
C           53.51123311971263       31.97897408629938       56.96955607412601
C           54.99712765326181       31.78790997361585       56.78824605524809
C           55.79711961976307       31.37098577763799       57.84704087790837
C           57.16205573793772       31.21556496872288       57.68701587009636
C           57.75470485683857       31.48616578123421       56.46501582088939
C           56.97298645264998       31.92044134823762       55.40953693151775
C           55.60521825393653       32.06861239739645       55.57157631688857
C           53.31682367066288       33.28650907662006       57.75583485743191
C           51.86513894605649       33.77578685436797       57.88866875206745
C           51.84955280495334       34.87507472637940       58.92531424245444
C           52.40553129647642       36.12493758184072       58.67111092011805
C           52.38500669158360       37.12108488300954       59.62949971421038
C           51.80872490685243       36.88388306021297       60.86599504193527
C           51.26464393596026       35.64129794686842       61.13755194382373
C           51.28869804348923       34.64637463549620       60.17498747583343
C           51.28433880123863       34.24094456581975       56.54311850000106
C           49.99484116313941       35.05337772146124       56.72586348182622
C           48.90873894874341       34.24056941215549       57.38300057117078
C           48.40828616676768       34.60712543743289       58.62638450511266
C           47.39442939306544       33.88076808842300       59.22675040186317
C           46.85095773833763       32.78095130483398       58.58513948454097
C           47.34115079480829       32.40579615759525       57.34594129091919
C           48.36549112031744       33.12532608995334       56.75684765134372
C           49.49342431551281       35.65270202293179       55.40205645811600
C           48.61730582977231       36.88213483160256       55.69150012810727
C           49.50084837318435       37.98781440499392       56.21602452873234
C           49.43943138372605       38.36823177724256       57.55003093901750
C           50.27645427970933       39.35009658272449       58.04717470113624
C           51.18502017322307       39.97598832903236       57.21376774466935
C           51.24028419083752       39.62230967895773       55.87629527136294
C           50.41310219021891       38.62986871298777       55.38608779671289
C           47.82302534807448       37.38511721878357       54.47842861052664
C           46.73290793079151       36.43350920654183       53.96306724644607
C           46.14065482409833       36.99979381716831       52.69378255960542
C           46.23221748692756       36.29619257328252       51.49908061590067
C           45.63953639139199       36.77701882270895       50.34455544007050
C           44.96483104127010       37.98446322452581       50.35749879717730
C           44.89455367496178       38.71131669066690       51.53379631769953
C           45.47125481389081       38.21946849355994       52.69020898942932
C           45.65147043913540       36.18605453470422       55.03062057961121
C           44.37656983719803       35.53847874077482       54.46824458171591
C           43.23632873659638       35.63283113797074       55.44925255612782
C           43.34969863182236       35.15501055127917       56.74970215008526
C           42.28877502444860       35.25140917894247       57.63251155804855