      -----------------------------------------------------------      
     |                   =====================                   |     
     |                           x T B                           |     
     |                   =====================                   |     
     |                         S. Grimme                         |     
     |          Mulliken Center for Theoretical Chemistry        |     
     |                    University of Bonn                     |     
      -----------------------------------------------------------      

   * xtb version 6.6.1 (8d0f1dd) compiled by 'stahn@M-Bot' on 2023-08-01

   xtb is free software: you can redistribute it and/or modify it under
   the terms of the GNU Lesser General Public License as published by
   the Free Software Foundation, either version 3 of the License, or
   (at your option) any later version.
   
   xtb is distributed in the hope that it will be useful,
   but WITHOUT ANY WARRANTY; without even the implied warranty of
   MERCHANTABILITY or FITNESS FOR A PARTICULAR PURPOSE.  See the
   GNU Lesser General Public License for more details.
   
   Cite this work as:
   * C. Bannwarth, E. Caldeweyher, S. Ehlert, A. Hansen, P. Pracht,
     J. Seibert, S. Spicher, S. Grimme, WIREs Comput. Mol. Sci., 2020, 11,
     e01493. DOI: 10.1002/wcms.1493
   
   for GFN2-xTB:
   * C. Bannwarth, S. Ehlert and S. Grimme., J. Chem. Theory Comput., 2019,
     15, 1652-1671. DOI: 10.1021/acs.jctc.8b01176
   for GFN1-xTB:
   * S. Grimme, C. Bannwarth, P. Shushkov, J. Chem. Theory Comput., 2017,
     13, 1989-2009. DOI: 10.1021/acs.jctc.7b00118
   for GFN0-xTB:
   * P. Pracht, E. Caldeweyher, S. Ehlert, S. Grimme, ChemRxiv, 2019, preprint.
     DOI: 10.26434/chemrxiv.8326202.v1
   for GFN-FF:
   * S. Spicher and S. Grimme, Angew. Chem. Int. Ed., 2020, 59, 15665-15673.
     DOI: 10.1002/anie.202004239
   
   for ALPB and GBSA implicit solvation:
   * S. Ehlert, M. Stahn, S. Spicher, S. Grimme, J. Chem. Theory Comput.,
     2021, 17, 4250-4261. DOI: 10.1021/acs.jctc.1c00471
   
   for DFT-D4:
   * E. Caldeweyher, C. Bannwarth and S. Grimme, J. Chem. Phys., 2017,
     147, 034112. DOI: 10.1063/1.4993215
   * E. Caldeweyher, S. Ehlert, A. Hansen, H. Neugebauer, S. Spicher,
     C. Bannwarth and S. Grimme, J. Chem. Phys., 2019, 150, 154122.
     DOI: 10.1063/1.5090222
   * E. Caldeweyher, J.-M. Mewes, S. Ehlert and S. Grimme, Phys. Chem. Chem. Phys.
     2020, 22, 8499-8512. DOI: 10.1039/D0CP00502A
   
   for sTDA-xTB:
   * S. Grimme and C. Bannwarth, J. Chem. Phys., 2016, 145, 054103.
     DOI: 10.1063/1.4959605
   
   in the mass-spec context:
   * V. Asgeirsson, C. Bauer and S. Grimme, Chem. Sci., 2017, 8, 4879.
     DOI: 10.1039/c7sc00601b
   * J. Koopman and S. Grimme, ACS Omega 2019, 4, 12, 15120-15133.
     DOI: 10.1021/acsomega.9b02011
   
   for metadynamics refer to:
   * S. Grimme, J. Chem. Theory Comput., 2019, 155, 2847-2862
     DOI: 10.1021/acs.jctc.9b00143
   
   for SPH calculations refer to:
   * S. Spicher and S. Grimme, J. Chem. Theory Comput., 2021, 17, 1701-1714
     DOI: 10.1021/acs.jctc.0c01306
   
   with help from (in alphabetical order)
   P. Atkinson, C. Bannwarth, F. Bohle, G. Brandenburg, E. Caldeweyher
   M. Checinski, S. Dohm, S. Ehlert, S. Ehrlich, I. Gerasimov, C. Hölzer
   A. Katbashev, J. Koopman, C. Lavigne, S. Lehtola, F. März, M. Müller,
   F. Musil, H. Neugebauer, J. Pisarek, C. Plett, P. Pracht, F. Pultar,
   J. Seibert, P. Shushkov, S. Spicher, M. Stahn, M. Steiner, T. Strunk,
   J. Stückrath, T. Rose, and J. Unsleber
   
 * started run on 2024/07/14 at 07:29:09.294     

           -------------------------------------------------
          |                Calculation Setup                |
           -------------------------------------------------

          program call               : /home/abt-grimme/AK-bin/xtb input.xyz --input input.inp --opt --gbsa water
          hostname                   : boar033.thch.uni-bonn.de
          coordinate file            : input.xyz
          omp threads                :                     8

   ID    Z sym.   atoms
    1    6 C      1-146, 294-300, 306, 309-314, 323-468, 616-622, 628,
                  631-636, 645-790, 938-944, 950, 953-958, 967-1112,
                  1260-1266, 1272, 1275-1280, 1289-1434, 1582-1588, 1594,
                  1597-1602, 1611-1756, 1904-1910, 1916, 1919-1924,
                  1933-2078, 2226-2232, 2238, 2241-2246, 2255-2400,
                  2548-2554, 2560, 2563-2568, 2577-2722, 2870-2876, 2882,
                  2885-2890, 2899-3044, 3192-3198, 3204, 3207-3212,
                  3221-3366, 3514-3520, 3526, 3529-3534, 3543-3688,
                  3836-3842, 3848, 3851-3856
    2    1 H      147-293, 301-305, 307, 308, 315-322, 469-615, 623-627, 629,
                  630, 637-644, 791-937, 945-949, 951, 952, 959-966,
                  1113-1259, 1267-1271, 1273, 1274, 1281-1288, 1435-1581,
                  1589-1593, 1595, 1596, 1603-1610, 1757-1903, 1911-1915,
                  1917, 1918, 1925-1932, 2079-2225, 2233-2237, 2239, 2240,
                  2247-2254, 2401-2547, 2555-2559, 2561, 2562, 2569-2576,
                  2723-2869, 2877-2881, 2883, 2884, 2891-2898, 3045-3191,
                  3199-3203, 3205, 3206, 3213-3220, 3367-3513, 3521-3525,
                  3527, 3528, 3535-3542, 3689-3835, 3843-3847, 3849, 3850,
                  3857-3864

molecular fragmentation (1/2 indicates fragments):
111111111111111111111111111111111111111111111111111111111111111111111111
111111111111111111111111111111111111111111111111111111111111111111111111
111111111111111111111111111111111111111111111111111111111111111111111111
111111111111111111111111111111111111111111111111111111111111111111111111
111111111111111111111111111111111122222222222222222222222222222222222222
222222222222222222222222222222222222222222222222222222222222222222222222
222222222222222222222222222222222222222222222222222222222222222222222222
222222222222222222222222222222222222222222222222222222222222222222222222
222222222222222222222222222222222222222222222222222222222222222222222222
222222222222222222222222222222222222222222222222222222222222222222222222
222222222222222222222222222222222222222222222222222222222222222222222222
222222222222222222222222222222222222222222222222222222222222222222222222
222222222222222222222222222222222222222222222222222222222222222222222222
222222222222222222222222222222222222222222222222222222222222222222222222
222222222222222222222222222222222222222222222222222222222222222222222222
222222222222222222222222222222222222222222222222222222222222222222222222
222222222222222222222222222222222222222222222222222222222222222222222222
222222222222222222222222222222222222222222222222222222222222222222222222
222222222222222222222222222222222222222222222222222222222222222222222222
222222222222222222222222222222222222222222222222222222222222222222222222
222222222222222222222222222222222222222222222222222222222222222222222222
222222222222222222222222222222222222222222222222222222222222222222222222
222222222222222222222222222222222222222222222222222222222222222222222222
222222222222222222222222222222222222222222222222222222222222222222222222
222222222222222222222222222222222222222222222222222222222222222222222222
222222222222222222222222222222222222222222222222222222222222222222222222
222222222222222222222222222222222222222222222222222222222222222222222222
222222222222222222222222222222222222222222222222222222222222222222222222
222222222222222222222222222222222222222222222222222222222222222222222222
222222222222222222222222222222222222222222222222222222222222222222222222
222222222222222222222222222222222222222222222222222222222222222222222222
222222222222222222222222222222222222222222222222222222222222222222222222
222222222222222222222222222222222222222222222222222222222222222222222222
222222222222222222222222222222222222222222222222222222222222222222222222
222222222222222222222222222222222222222222222222222222222222222222222222
222222222222222222222222222222222222222222222222222222222222222222222222
222222222222222222222222222222222222222222222222222222222222222222222222
222222222222222222222222222222222222222222222222222222222222222222222222
222222222222222222222222222222222222222222222222222222222222222222222222
222222222222222222222222222222222222222222222222222222222222222222222222
222222222222222222222222222222222222222222222222222222222222222222222222
222222222222222222222222222222222222222222222222222222222222222222222222
222222222222222222222222222222222222222222222222222222222222222222222222
222222222222222222222222222222222222222222222222222222222222222222222222
222222222222222222222222222222222222222222222222222222222222222222222222
222222222222222222222222222222222222222222222222222222222222222222222222
222222222222222222222222222222222222222222222222222222222222222222222222
222222222222222222222222222222222222222222222222222222222222222222222222
222222222222222222222222222222222222222222222222222222222222222222222222
222222222222222222222222222222222222222222222222222222222222222222222222
222222222222222222222222222222222222222222222222222222222222222222222222
222222222222222222222222222222222222222222222222222222222222222222222222
222222222222222222222222222222222222222222222222222222222222222222222222
222222222222222222222222222222222222222222222222
# atoms in fragment 1/2:   322  3542
 fragment masses (1/2) :     2085.00    22935.05
CMA distance (Bohr)    :  30.884
constraining FC (au)   :  0.0500

           -------------------------------------------------
          |                 G F N 2 - x T B                 |
           -------------------------------------------------

        Reference                      10.1021/acs.jctc.8b01176
      * Hamiltonian:
        H0-scaling (s, p, d)           1.850000    2.230000    2.230000
        zeta-weighting                 0.500000
      * Dispersion:
        s8                             2.700000
        a1                             0.520000
        a2                             5.000000
        s9                             5.000000
      * Repulsion:
        kExp                           1.500000    1.000000
        rExp                           1.000000
      * Coulomb:
        alpha                          2.000000
        third order                    shell-resolved
        anisotropic                    true
        a3                             3.000000
        a5                             4.000000
        cn-shift                       1.200000
        cn-exp                         4.000000
        max-rad                        5.000000

      * Solvation model:               GBSA
        Solvent                        water
        Parameter file                 internal GFN2-xTB/GBSA
        Dielectric constant                8.0200E+01
        Reference state                gsolv [1 M gas/solution]
        Free energy shift                  1.8574E-03 Eh       1.1656E+00 kcal/mol
        Temperature                        2.9815E+02 K
        Density                            1.0000E+00 kg/L
        Solvent mass                       1.8000E+01 g/mol
        Interaction kernel             Still
        Born radius scaling (c1)           1.5524E+00
        Born radii integrator          GBOBC
        Born offset                        2.4628E-02 a0       4.6540E-02 AA
        H-bond correction              true
        Ion screening                  false
        Surface tension                    1.0000E-05 Eh       1.5569E+01 dyn/cm
        Grid points                               230 per atom
q/qsh data taken from xtbrestart
CAMM data taken from xtbrestart

          ...................................................
          :                      SETUP                      :
          :.................................................:
          :  # basis functions                9624          :
          :  # atomic orbitals                9624          :
          :  # shells                         5784          :
          :  # electrons                      9624          :
          :  max. iterations                   250          :
          :  Hamiltonian                  GFN2-xTB          :
          :  restarted?                       true          :
          :  GBSA solvation                   true          :
          :  PC potential                    false          :
          :  electronic temp.          300.0000000     K    :
          :  accuracy                    1.0000000          :
          :  -> integral cutoff          0.2500000E+02      :
          :  -> integral neglect         0.1000000E-07      :
          :  -> SCF convergence          0.1000000E-05 Eh   :
          :  -> wf. convergence          0.1000000E-03 e    :
          :  Broyden damping             0.4000000          :
          ...................................................

 iter      E             dE          RMSdq      gap      omega  full diag
   1  -5190.4523752 -0.519045E+04  0.849E-05    3.75       0.0  T
   2  -5190.4523752 -0.926138E-08  0.693E-05    3.75      23.2  T
   3  -5190.4523752 -0.641739E-08  0.575E-05    3.75      28.0  T

   *** convergence criteria satisfied after 3 iterations ***

         #    Occupation            Energy/Eh            Energy/eV
      -------------------------------------------------------------
         1        2.0000           -0.6331214             -17.2281
       ...           ...                  ...                  ...
      4806        2.0000           -0.3616166              -9.8401
      4807        2.0000           -0.3614383              -9.8352
      4808        2.0000           -0.3604778              -9.8091
      4809        2.0000           -0.3601648              -9.8006
      4810        2.0000           -0.3592817              -9.7766
      4811        2.0000           -0.3589433              -9.7673
      4812        2.0000           -0.3577343              -9.7344 (HOMO)
      4813                         -0.2198770              -5.9832 (LUMO)
      4814                         -0.2196503              -5.9770
      4815                         -0.2194618              -5.9719
      4816                         -0.2190123              -5.9596
      4817                         -0.2188513              -5.9552
       ...                                ...                  ...
      9624                          0.6703215              18.2404
      -------------------------------------------------------------
                  HL-Gap            0.1378574 Eh            3.7513 eV
             Fermi-level           -0.2888056 Eh           -7.8588 eV

 SCC (total)                   0 d,  0 h, 16 min, 35.605 sec
 SCC setup                      ...        0 min,  2.504 sec (  0.252%)
 Dispersion                     ...        0 min,  6.872 sec (  0.690%)
 classical contributions        ...        0 min,  0.166 sec (  0.017%)
 integral evaluation            ...        0 min, 11.906 sec (  1.196%)
 iterations                     ...       10 min, 36.950 sec ( 63.976%)
 molecular gradient             ...        5 min, 10.323 sec ( 31.169%)
 printout                       ...        0 min, 26.884 sec (  2.700%)

         :::::::::::::::::::::::::::::::::::::::::::::::::::::
         ::                     SUMMARY                     ::
         :::::::::::::::::::::::::::::::::::::::::::::::::::::
         :: total energy           -5103.342060737887 Eh    ::
         :: total w/o Gsasa/hb     -5103.153507248475 Eh    ::
         :: gradient norm              0.739044059349 Eh/a0 ::
         :: HOMO-LUMO gap              3.751289559620 eV    ::
         ::.................................................::
         :: SCC energy             -5190.452375191127 Eh    ::
         :: -> isotropic ES            0.293240303907 Eh    ::
         :: -> anisotropic ES          0.816099826049 Eh    ::
         :: -> anisotropic XC          3.457371054011 Eh    ::
         :: -> dispersion             -6.933817540935 Eh    ::
         :: -> Gsolv                  -0.209107556863 Eh    ::
         ::    -> Gelec               -0.020554067451 Eh    ::
         ::    -> Gsasa               -0.183821366618 Eh    ::
         ::    -> Ghb                 -0.006589565921 Eh    ::
         ::    -> Gshift               0.001857443127 Eh    ::
         :: repulsion energy          85.970001733610 Eh    ::
         :: add. restraining           0.000000000000 Eh    ::
         :: total charge              -0.000000000035 e     ::
         :::::::::::::::::::::::::::::::::::::::::::::::::::::

      ----------------------------------------------------------- 
     |              Fast Inertial Relaxation Engine              |
      ----------------------------------------------------------- 

          ...................................................
          :                      SETUP                      :
          :.................................................:
          :   energy convergence        0.5000000E-05 Eh    :
          :   grad. convergence         0.1000000E-02 Eh/a0 :
          :   optimization log               true           :
          :   writing optlog all                1     steps :
          :   Hessian reset                    20     steps :
          :   time step scaling                 5     steps :
          :   maximium step len.        1.0000000     a0    :
          :   initial time step         0.2500000     fs    :
          :   maximum time step         1.2500000     fs    :
          :   power reset thr           0.0000000     au    :
          :   alpha parameter           0.1000000           :
          :   BFGS update                   false           :
          :   preconditioning               false           :
          ...................................................

........................................................................
.............................. CYCLE    1 ..............................
........................................................................

 iter      E             dE          RMSdq      gap      omega  full diag
   1  -5190.6643642 -0.519066E+04  0.904E-03    3.76       0.0  T
   2  -5190.6643997 -0.354501E-04  0.551E-03    3.76       1.0  T
   3  -5190.6643900  0.967490E-05  0.293E-03    3.76       1.0  T
   4  -5190.6644077 -0.176969E-04  0.787E-04    3.76       2.0  T
   5  -5190.6644095 -0.176714E-05  0.274E-04    3.76       5.9  T
   6  -5190.6644096 -0.111672E-06  0.179E-04    3.76       9.0  T
   7  -5190.6644096 -0.442778E-07  0.124E-04    3.76      13.0  T
     SCC iter.                  ...       24 min, 41.636 sec
     gradient                   ...        5 min, 20.163 sec
 * total energy  : -5103.4031868 Eh     change    :  -0.6112602E-01 Eh
   gradient norm :     0.6789341 Eh/a0  converged?    E=F G=F D=F
   time step     :     0.2500000 fs     power     :   0.3107040E-05
   step length   :     0.0866144 a0     speed     :   0.8380407E-02

........................................................................
.............................. CYCLE    2 ..............................
........................................................................

 iter      E             dE          RMSdq      gap      omega  full diag
   1  -5190.9765363 -0.519098E+04  0.132E-02    3.77       0.0  T
   2  -5190.9766118 -0.754700E-04  0.802E-03    3.77       1.0  T
   3  -5190.9765917  0.200957E-04  0.423E-03    3.77       1.0  T
   4  -5190.9766285 -0.367955E-04  0.115E-03    3.77       1.4  T
   5  -5190.9766323 -0.378524E-05  0.411E-04    3.77       3.9  T
   6  -5190.9766325 -0.243543E-06  0.276E-04    3.77       5.8  T
   7  -5190.9766327 -0.109314E-06  0.193E-04    3.77       8.3  T
     SCC iter.                  ...       24 min, 48.827 sec
     gradient                   ...        5 min, 13.633 sec
 * total energy  : -5103.4833641 Eh     change    :  -0.8017736E-01 Eh
   gradient norm :     0.5961988 Eh/a0  converged?    E=F G=F D=F
   time step     :     0.2500000 fs     power     :   0.3967387E-05
   step length   :     0.1262628 a0     speed     :   0.1221661E-01

........................................................................
.............................. CYCLE    3 ..............................
........................................................................

 iter      E             dE          RMSdq      gap      omega  full diag
   1  -5191.3814892 -0.519138E+04  0.167E-02    3.78       0.0  T
   2  -5191.3816103 -0.121073E-03  0.102E-02    3.78       1.0  T
   3  -5191.3815782  0.321044E-04  0.531E-03    3.78       1.0  T
   4  -5191.3816360 -0.578285E-04  0.146E-03    3.78       1.1  T
   5  -5191.3816421 -0.613416E-05  0.523E-04    3.78       3.1  T
   6  -5191.3816425 -0.382305E-06  0.357E-04    3.78       4.5  T
   7  -5191.3816427 -0.185957E-06  0.250E-04    3.78       6.4  T
     SCC iter.                  ...       24 min, 33.788 sec
     gradient                   ...        5 min, 11.850 sec
 * total energy  : -5103.5704739 Eh     change    :  -0.8710975E-01 Eh
   gradient norm :     0.4985537 Eh/a0  converged?    E=F G=F D=F
   time step     :     0.2500000 fs     power     :   0.4168043E-05
   step length   :     0.1609625 a0     speed     :   0.1557399E-01

........................................................................
.............................. CYCLE    4 ..............................
........................................................................

 iter      E             dE          RMSdq      gap      omega  full diag
   1  -5191.8711478 -0.519187E+04  0.195E-02    3.79       0.0  T
   2  -5191.8713103 -0.162516E-03  0.119E-02    3.79       1.0  T
   3  -5191.8712666  0.436766E-04  0.608E-03    3.79       1.0  T
   4  -5191.8713429 -0.762962E-04  0.169E-03    3.79       1.0  T
   5  -5191.8713513 -0.836935E-05  0.608E-04    3.79       2.6  T
   6  -5191.8713517 -0.492292E-06  0.420E-04    3.79       3.8  T
   7  -5191.8713520 -0.263797E-06  0.293E-04    3.79       5.5  T
     SCC iter.                  ...       24 min, 37.206 sec
     gradient                   ...        5 min, 13.628 sec
 * total energy  : -5103.6525027 Eh     change    :  -0.8202880E-01 Eh
   gradient norm :     0.4003435 Eh/a0  converged?    E=F G=F D=F
   time step     :     0.2500000 fs     power     :   0.3752203E-05
   step length   :     0.1894353 a0     speed     :   0.1832888E-01

........................................................................
.............................. CYCLE    5 ..............................
........................................................................

 iter      E             dE          RMSdq      gap      omega  full diag
   1  -5192.4369970 -0.519244E+04  0.214E-02    3.80       0.0  T
   2  -5192.4371854 -0.188384E-03  0.130E-02    3.80       1.0  T
   3  -5192.4371327  0.526762E-04  0.647E-03    3.80       1.0  T
   4  -5192.4372204 -0.876354E-04  0.183E-03    3.80       1.0  T
   5  -5192.4372303 -0.996411E-05  0.660E-04    3.80       2.4  T
   6  -5192.4372309 -0.539367E-06  0.462E-04    3.80       3.5  T
   7  -5192.4372312 -0.327515E-06  0.321E-04    3.80       5.0  T
     SCC iter.                  ...       24 min, 42.957 sec
     gradient                   ...        5 min, 13.627 sec
 * total energy  : -5103.7202976 Eh     change    :  -0.6779496E-01 Eh
   gradient norm :     0.3241520 Eh/a0  converged?    E=F G=F D=F
   time step     :     0.2500000 fs     power     :   0.2911384E-05
   step length   :     0.2105777 a0     speed     :   0.2037453E-01

........................................................................
.............................. CYCLE    6 ..............................
........................................................................

 iter      E             dE          RMSdq      gap      omega  full diag
   1  -5193.1358687 -0.519314E+04  0.244E-02    3.81       0.0  T
   2  -5193.1360967 -0.228004E-03  0.147E-02    3.81       1.0  T
   3  -5193.1360280  0.687244E-04  0.701E-03    3.81       1.0  T
   4  -5193.1361341 -0.106174E-03  0.202E-03    3.81       1.0  T
   5  -5193.1361467 -0.125999E-04  0.736E-04    3.81       2.2  T
   6  -5193.1361473 -0.599016E-06  0.519E-04    3.81       3.1  T
   7  -5193.1361478 -0.425826E-06  0.355E-04    3.81       4.5  T
     SCC iter.                  ...       24 min, 42.715 sec
     gradient                   ...        5 min, 13.227 sec
 * total energy  : -5103.7742339 Eh     change    :  -0.5393629E-01 Eh
   gradient norm :     0.2949570 Eh/a0  converged?    E=F G=F D=F
   time step     :     0.2750000 fs     power     :   0.1853257E-05
   step length   :     0.2470861 a0     speed     :   0.2173355E-01

........................................................................
.............................. CYCLE    7 ..............................
........................................................................

 iter      E             dE          RMSdq      gap      omega  full diag
   1  -5193.9591877 -0.519396E+04  0.259E-02    3.83       0.0  T
   2  -5193.9594095 -0.221801E-03  0.155E-02    3.83       1.0  T
   3  -5193.9593361  0.733314E-04  0.673E-03    3.83       1.0  T
   4  -5193.9594394 -0.103245E-03  0.203E-03    3.83       1.0  T
   5  -5193.9594525 -0.131248E-04  0.760E-04    3.83       2.1  T
   6  -5193.9594531 -0.557699E-06  0.530E-04    3.83       3.0  T
   7  -5193.9594535 -0.476876E-06  0.355E-04    3.83       4.5  T
     SCC iter.                  ...       24 min, 33.201 sec
     gradient                   ...        5 min, 10.519 sec
 * total energy  : -5103.8125993 Eh     change    :  -0.3836535E-01 Eh
   gradient norm :     0.3229339 Eh/a0  converged?    E=F G=F D=F
   time step     :     0.3025000 fs     power     :   0.1009309E-05
   step length   :     0.2759939 a0     speed     :   0.2206933E-01

........................................................................
.............................. CYCLE    8 ..............................
........................................................................

 iter      E             dE          RMSdq      gap      omega  full diag
   1  -5194.8714690 -0.519487E+04  0.258E-02    3.85       0.0  T
   2  -5194.8716355 -0.166572E-03  0.153E-02    3.84       1.0  T
   3  -5194.8715821  0.534040E-04  0.544E-03    3.84       1.0  T
   4  -5194.8716518 -0.697101E-04  0.179E-03    3.84       1.0  T
   5  -5194.8716623 -0.104789E-04  0.719E-04    3.84       2.2  T
   6  -5194.8716628 -0.471476E-06  0.467E-04    3.84       3.4  T
   7  -5194.8716632 -0.428179E-06  0.307E-04    3.84       5.2  T
     SCC iter.                  ...       24 min, 39.388 sec
     gradient                   ...        5 min, 12.333 sec
 * total energy  : -5103.8434486 Eh     change    :  -0.3084931E-01 Eh
   gradient norm :     0.3652675 Eh/a0  converged?    E=F G=F D=F
   time step     :     0.3327500 fs     power     :   0.7252286E-06
   step length   :     0.2965441 a0     speed     :   0.2155690E-01

........................................................................
.............................. CYCLE    9 ..............................
........................................................................

 iter      E             dE          RMSdq      gap      omega  full diag
   1  -5195.8289300 -0.519583E+04  0.253E-02    3.86       0.0  T
   2  -5195.8290314 -0.101404E-03  0.148E-02    3.86       1.0  T
   3  -5195.8290145  0.168850E-04  0.360E-03    3.86       1.0  T
   4  -5195.8290405 -0.260489E-04  0.125E-03    3.86       1.3  T
   5  -5195.8290449 -0.432797E-05  0.629E-04    3.86       2.6  T
   6  -5195.8290452 -0.370379E-06  0.357E-04    3.86       4.5  T
   7  -5195.8290455 -0.310666E-06  0.236E-04    3.86       6.8  T
     SCC iter.                  ...       24 min, 34.295 sec
     gradient                   ...        5 min, 12.157 sec
 * total energy  : -5103.8797448 Eh     change    :  -0.3629626E-01 Eh
   gradient norm :     0.3766632 Eh/a0  converged?    E=F G=F D=F
   time step     :     0.3660250 fs     power     :   0.9430610E-06
   step length   :     0.3169197 a0     speed     :   0.2094371E-01

........................................................................
.............................. CYCLE   10 ..............................
........................................................................

 iter      E             dE          RMSdq      gap      omega  full diag
   1  -5196.7858860 -0.519679E+04  0.259E-02    3.87       0.0  T
   2  -5196.7859645 -0.785138E-04  0.151E-02    3.87       1.0  T
   3  -5196.7859316  0.329127E-04  0.418E-03    3.87       1.0  T
   4  -5196.7859783 -0.467831E-04  0.107E-03    3.87       1.5  T
   5  -5196.7859808 -0.247468E-05  0.528E-04    3.87       3.0  T
   6  -5196.7859811 -0.249071E-06  0.322E-04    3.87       5.0  T
   7  -5196.7859813 -0.185819E-06  0.192E-04    3.87       8.4  T
     SCC iter.                  ...       24 min, 35.343 sec
     gradient                   ...        5 min, 10.040 sec
 * total energy  : -5103.9282455 Eh     change    :  -0.4850064E-01 Eh
   gradient norm :     0.3326427 Eh/a0  converged?    E=F G=F D=F
   time step     :     0.4026275 fs     power     :   0.1212830E-05
   step length   :     0.3464078 a0     speed     :   0.2081131E-01

........................................................................
.............................. CYCLE   11 ..............................
........................................................................

 iter      E             dE          RMSdq      gap      omega  full diag
   1  -5197.6920072 -0.519769E+04  0.287E-02    3.88       0.0  T
   2  -5197.6921409 -0.133629E-03  0.170E-02    3.88       1.0  T
   3  -5197.6920350  0.105861E-03  0.694E-03    3.88       1.0  T
   4  -5197.6921787 -0.143708E-03  0.137E-03    3.87       1.2  T
   5  -5197.6921830 -0.425172E-05  0.591E-04    3.87       2.7  T
   6  -5197.6921837 -0.751495E-06  0.294E-04    3.87       5.5  T
   7  -5197.6921838 -0.668188E-07  0.148E-04    3.87      10.9  T
     SCC iter.                  ...       24 min, 39.086 sec
     gradient                   ...        5 min,  9.563 sec
 * total energy  : -5103.9784139 Eh     change    :  -0.5016844E-01 Eh
   gradient norm :     0.2359445 Eh/a0  converged?    E=F G=F D=F
   time step     :     0.4428903 fs     power     :   0.9324990E-06
   step length   :     0.3870896 a0     speed     :   0.2114124E-01

........................................................................
.............................. CYCLE   12 ..............................
........................................................................

 iter      E             dE          RMSdq      gap      omega  full diag
   1  -5198.4900386 -0.519849E+04  0.323E-02    3.88       0.0  T
   2  -5198.4902814 -0.242744E-03  0.194E-02    3.87       1.0  T
   3  -5198.4901196  0.161774E-03  0.926E-03    3.87       1.0  T
   4  -5198.4903555 -0.235867E-03  0.179E-03    3.87       1.0  T
   5  -5198.4903635 -0.807857E-05  0.685E-04    3.87       2.3  T
   6  -5198.4903645 -0.977861E-06  0.355E-04    3.87       4.5  T
   7  -5198.4903646 -0.895116E-07  0.208E-04    3.87       7.7  T
     SCC iter.                  ...       24 min, 40.676 sec
     gradient                   ...        5 min, 12.537 sec
 * total energy  : -5104.0022969 Eh     change    :  -0.2388300E-01 Eh
   gradient norm :     0.1710910 Eh/a0  converged?    E=F G=F D=F
   time step     :     0.4871793 fs     power     :  -0.1454261E-06
   step length   :     0.4262474 a0     speed     :   0.2116352E-01

........................................................................
.............................. CYCLE   13 ..............................
........................................................................
 * reset velocities

 iter      E             dE          RMSdq      gap      omega  full diag
   1  -5198.4767464 -0.519848E+04  0.920E-04    3.87       0.0  T
   2  -5198.4767468 -0.425105E-06  0.554E-04    3.87       2.9  T
   3  -5198.4767468  0.127857E-07  0.262E-04    3.87       6.1  T
     SCC iter.                  ...       10 min, 36.270 sec
     gradient                   ...        5 min, 12.997 sec
 * total energy  : -5104.0039012 Eh     change    :  -0.1604315E-02 Eh
   gradient norm :     0.1660360 Eh/a0  converged?    E=F G=F D=F
   time step     :     0.2435896 fs     power     :   0.8607225E-07
   step length   :     0.0095182 a0     speed     :   0.9451720E-03

........................................................................
.............................. CYCLE   14 ..............................
........................................................................

 iter      E             dE          RMSdq      gap      omega  full diag
   1  -5198.4497834 -0.519845E+04  0.181E-03    3.87       0.0  T
   2  -5198.4497849 -0.151111E-05  0.108E-03    3.87       1.5  T
   3  -5198.4497848  0.101052E-06  0.465E-04    3.87       3.5  T
   4  -5198.4497851 -0.247286E-06  0.139E-04    3.87      11.5  T
     SCC iter.                  ...       14 min,  5.881 sec
     gradient                   ...        5 min, 10.390 sec
 * total energy  : -5104.0069219 Eh     change    :  -0.3020654E-02 Eh
   gradient norm :     0.1563204 Eh/a0  converged?    E=F G=F D=F
   time step     :     0.2435896 fs     power     :   0.1594821E-06
   step length   :     0.0187542 a0     speed     :   0.1862322E-02

........................................................................
.............................. CYCLE   15 ..............................
........................................................................

 iter      E             dE          RMSdq      gap      omega  full diag
   1  -5198.4100115 -0.519841E+04  0.260E-03    3.86       0.0  T
   2  -5198.4100147 -0.320787E-05  0.157E-03    3.87       1.0  T
   3  -5198.4100144  0.292463E-06  0.723E-04    3.87       2.2  T
   4  -5198.4100151 -0.692068E-06  0.213E-04    3.87       7.5  T
     SCC iter.                  ...       14 min,  5.490 sec
     gradient                   ...        5 min, 10.829 sec
 * total energy  : -5104.0110163 Eh     change    :  -0.4094407E-02 Eh
   gradient norm :     0.1429075 Eh/a0  converged?    E=F G=F D=F
   time step     :     0.2435896 fs     power     :   0.2124950E-06
   step length   :     0.0274417 a0     speed     :   0.2725007E-02

........................................................................
.............................. CYCLE   16 ..............................
........................................................................

 iter      E             dE          RMSdq      gap      omega  full diag
   1  -5198.3582184 -0.519836E+04  0.332E-03    3.86       0.0  T
   2  -5198.3582235 -0.511556E-05  0.200E-03    3.86       1.0  T
   3  -5198.3582230  0.529084E-06  0.914E-04    3.86       1.8  T
   4  -5198.3582241 -0.115713E-05  0.276E-04    3.86       5.8  T
   5  -5198.3582243 -0.206961E-06  0.952E-05    3.86      16.9  T
     SCC iter.                  ...       17 min, 35.087 sec
     gradient                   ...        5 min, 12.949 sec
 * total energy  : -5104.0157496 Eh     change    :  -0.4733297E-02 Eh
   gradient norm :     0.1272136 Eh/a0  converged?    E=F G=F D=F
   time step     :     0.2435896 fs     power     :   0.2411004E-06
   step length   :     0.0353523 a0     speed     :   0.3510542E-02

........................................................................
.............................. CYCLE   17 ..............................
........................................................................

 iter      E             dE          RMSdq      gap      omega  full diag
   1  -5198.2954610 -0.519830E+04  0.392E-03    3.86       0.0  T
   2  -5198.2954680 -0.703602E-05  0.236E-03    3.86       1.0  T
   3  -5198.2954673  0.698147E-06  0.105E-03    3.86       1.5  T
   4  -5198.2954688 -0.150880E-05  0.322E-04    3.86       5.0  T
   5  -5198.2954691 -0.280633E-06  0.113E-04    3.86      14.3  T
   6  -5198.2954691 -0.156115E-07  0.784E-05    3.86      20.5  T
     SCC iter.                  ...       21 min,  7.034 sec
     gradient                   ...        5 min, 10.851 sec
 * total energy  : -5104.0206734 Eh     change    :  -0.4923763E-02 Eh
   gradient norm :     0.1111783 Eh/a0  converged?    E=F G=F D=F
   time step     :     0.2435896 fs     power     :   0.2457983E-06
   step length   :     0.0423030 a0     speed     :   0.4200755E-02

........................................................................
.............................. CYCLE   18 ..............................
........................................................................

 iter      E             dE          RMSdq      gap      omega  full diag
   1  -5198.2231560 -0.519822E+04  0.439E-03    3.86       0.0  T
   2  -5198.2231644 -0.840046E-05  0.264E-03    3.86       1.0  T
   3  -5198.2231633  0.109680E-05  0.115E-03    3.86       1.4  T
   4  -5198.2231653 -0.202814E-05  0.367E-04    3.86       4.4  T
   5  -5198.2231657 -0.383212E-06  0.122E-04    3.86      13.1  T
   6  -5198.2231657 -0.173295E-07  0.838E-05    3.86      19.2  T
     SCC iter.                  ...       21 min,  9.302 sec
     gradient                   ...        5 min, 15.452 sec
 * total energy  : -5104.0254099 Eh     change    :  -0.4736516E-02 Eh
   gradient norm :     0.0971552 Eh/a0  converged?    E=F G=F D=F
   time step     :     0.2435896 fs     power     :   0.2316353E-06
   step length   :     0.0481548 a0     speed     :   0.4781846E-02

........................................................................
.............................. CYCLE   19 ..............................
........................................................................

 iter      E             dE          RMSdq      gap      omega  full diag
   1  -5198.1344076 -0.519813E+04  0.525E-03    3.86       0.0  T
   2  -5198.1344186 -0.109737E-04  0.315E-03    3.86       1.0  T
   3  -5198.1344167  0.191079E-05  0.133E-03    3.86       1.2  T
   4  -5198.1344198 -0.310252E-05  0.433E-04    3.86       3.7  T
   5  -5198.1344203 -0.556345E-06  0.140E-04    3.86      11.5  T
   6  -5198.1344203 -0.196414E-07  0.933E-05    3.86      17.2  T
     SCC iter.                  ...       21 min, 10.528 sec
     gradient                   ...        5 min,  9.349 sec
 * total energy  : -5104.0301476 Eh     change    :  -0.4737713E-02 Eh
   gradient norm :     0.0865420 Eh/a0  converged?    E=F G=F D=F
   time step     :     0.2679486 fs     power     :   0.2036819E-06
   step length   :     0.0586398 a0     speed     :   0.5293659E-02

........................................................................
.............................. CYCLE   20 ..............................
........................................................................

 iter      E             dE          RMSdq      gap      omega  full diag
   1  -5198.0297837 -0.519803E+04  0.607E-03    3.85       0.0  T
   2  -5198.0297964 -0.126701E-04  0.365E-03    3.86       1.0  T
   3  -5198.0297931  0.325961E-05  0.147E-03    3.86       1.1  T
   4  -5198.0297978 -0.469105E-05  0.483E-04    3.86       3.3  T
   5  -5198.0297985 -0.719509E-06  0.153E-04    3.86      10.5  T
   6  -5198.0297986 -0.186837E-07  0.979E-05    3.86      16.4  T
     SCC iter.                  ...       21 min,  9.300 sec
     gradient                   ...        5 min,  9.496 sec
 * total energy  : -5104.0346721 Eh     change    :  -0.4524480E-02 Eh
   gradient norm :     0.0817897 Eh/a0  converged?    E=F G=F D=F
   time step     :     0.2947435 fs     power     :   0.1713730E-06
   step length   :     0.0694536 a0     speed     :   0.5699878E-02
 * RMSD in coord.:     0.0410743 a0     energy gain  -0.6926113E+00 Eh

........................................................................
.............................. CYCLE   21 ..............................
........................................................................

 iter      E             dE          RMSdq      gap      omega  full diag
   1  -5197.9408817 -0.519794E+04  0.520E-03    3.85       0.0  T
   2  -5197.9408892 -0.745053E-05  0.313E-03    3.86       1.0  T
   3  -5197.9408862  0.301887E-05  0.120E-03    3.86       1.3  T
   4  -5197.9408902 -0.401293E-05  0.379E-04    3.86       4.2  T
   5  -5197.9408906 -0.452899E-06  0.124E-04    3.86      13.0  T
   6  -5197.9408907 -0.107420E-07  0.769E-05    3.86      20.9  T
     SCC iter.                  ...       21 min,  2.338 sec
     gradient                   ...        5 min,  9.684 sec
 * total energy  : -5104.0380224 Eh     change    :  -0.3350319E-02 Eh
   gradient norm :     0.0814996 Eh/a0  converged?    E=F G=F D=F
   time step     :     0.2500000 fs     power     :   0.1549087E-06
   step length   :     0.0606986 a0     speed     :   0.5872920E-02

........................................................................
.............................. CYCLE   22 ..............................
........................................................................

 iter      E             dE          RMSdq      gap      omega  full diag
   1  -5197.8557807 -0.519786E+04  0.522E-03    3.86       0.0  T
   2  -5197.8557862 -0.551237E-05  0.313E-03    3.86       1.0  T
   3  -5197.8557825  0.368899E-05  0.115E-03    3.86       1.4  T
   4  -5197.8557872 -0.468270E-05  0.320E-04    3.86       5.0  T
   5  -5197.8557875 -0.320217E-06  0.110E-04    3.86      14.7  T
   6  -5197.8557875 -0.501041E-08  0.633E-05    3.86      25.4  T
     SCC iter.                  ...       21 min,  7.998 sec
     gradient                   ...        5 min, 12.627 sec
 * total energy  : -5104.0411877 Eh     change    :  -0.3165278E-02 Eh
   gradient norm :     0.0815235 Eh/a0  converged?    E=F G=F D=F
   time step     :     0.2500000 fs     power     :   0.1495945E-06
   step length   :     0.0616524 a0     speed     :   0.5965205E-02

........................................................................
.............................. CYCLE   23 ..............................
........................................................................

 iter      E             dE          RMSdq      gap      omega  full diag
   1  -5197.7777527 -0.519778E+04  0.524E-03    3.86       0.0  T
   2  -5197.7777566 -0.383744E-05  0.314E-03    3.86       1.0  T
   3  -5197.7777524  0.418897E-05  0.112E-03    3.86       1.4  T
   4  -5197.7777576 -0.519796E-05  0.256E-04    3.86       6.3  T
   5  -5197.7777578 -0.190752E-06  0.975E-05    3.86      16.5  T
   6  -5197.7777578 -0.222099E-08  0.541E-05    3.86      29.7  T
     SCC iter.                  ...       21 min,  4.731 sec
     gradient                   ...        5 min, 13.550 sec
 * total energy  : -5104.0443311 Eh     change    :  -0.3143444E-02 Eh
   gradient norm :     0.0801939 Eh/a0  converged?    E=F G=F D=F
   time step     :     0.2500000 fs     power     :   0.1516574E-06
   step length   :     0.0622856 a0     speed     :   0.6026468E-02

........................................................................
.............................. CYCLE   24 ..............................
........................................................................

 iter      E             dE          RMSdq      gap      omega  full diag
   1  -5197.7092243 -0.519771E+04  0.529E-03    3.86       0.0  T
   2  -5197.7092269 -0.265073E-05  0.317E-03    3.86       1.0  T
   3  -5197.7092226  0.434948E-05  0.110E-03    3.86       1.5  T
   4  -5197.7092279 -0.533426E-05  0.207E-04    3.86       7.8  T
   5  -5197.7092280 -0.110917E-06  0.915E-05    3.86      17.6  T
   6  -5197.7092280 -0.321324E-08  0.503E-05    3.86      32.0  T
     SCC iter.                  ...       21 min,  6.197 sec
     gradient                   ...        5 min,  9.432 sec
 * total energy  : -5104.0475250 Eh     change    :  -0.3193871E-02 Eh
   gradient norm :     0.0772241 Eh/a0  converged?    E=F G=F D=F
   time step     :     0.2500000 fs     power     :   0.1560355E-06
   step length   :     0.0629495 a0     speed     :   0.6090706E-02

........................................................................
.............................. CYCLE   25 ..............................
........................................................................

 iter      E             dE          RMSdq      gap      omega  full diag
   1  -5197.6518454 -0.519765E+04  0.535E-03    3.86       0.0  T
   2  -5197.6518474 -0.192841E-05  0.319E-03    3.86       1.0  T
   3  -5197.6518433  0.407548E-05  0.105E-03    3.86       1.5  T
   4  -5197.6518483 -0.497377E-05  0.181E-04    3.86       8.9  T
   5  -5197.6518483 -0.756463E-07  0.941E-05    3.86      17.1  T
   6  -5197.6518484 -0.769705E-08  0.540E-05    3.86      29.8  T
     SCC iter.                  ...       21 min,  2.754 sec
     gradient                   ...        5 min, 10.968 sec
 * total energy  : -5104.0507632 Eh     change    :  -0.3238236E-02 Eh
   gradient norm :     0.0731868 Eh/a0  converged?    E=F G=F D=F
   time step     :     0.2500000 fs     power     :   0.1589943E-06
   step length   :     0.0637827 a0     speed     :   0.6171322E-02

........................................................................
.............................. CYCLE   26 ..............................
........................................................................

 iter      E             dE          RMSdq      gap      omega  full diag
   1  -5197.6023372 -0.519760E+04  0.594E-03    3.86       0.0  T
   2  -5197.6023391 -0.185047E-05  0.353E-03    3.86       1.0  T
   3  -5197.6023350  0.408604E-05  0.105E-03    3.86       1.5  T
   4  -5197.6023400 -0.500120E-05  0.190E-04    3.86       8.4  T
   5  -5197.6023401 -0.757973E-07  0.114E-04    3.86      14.2  T
   6  -5197.6023401 -0.188629E-07  0.719E-05    3.86      22.4  T
     SCC iter.                  ...       21 min,  4.984 sec
     gradient                   ...        5 min, 13.188 sec
 * total energy  : -5104.0543285 Eh     change    :  -0.3565277E-02 Eh
   gradient norm :     0.0685037 Eh/a0  converged?    E=F G=F D=F
   time step     :     0.2750000 fs     power     :   0.1578943E-06
   step length   :     0.0715917 a0     speed     :   0.6297167E-02

........................................................................
.............................. CYCLE   27 ..............................
........................................................................

 iter      E             dE          RMSdq      gap      omega  full diag
   1  -5197.5637443 -0.519756E+04  0.654E-03    3.86       0.0  T
   2  -5197.5637462 -0.188482E-05  0.388E-03    3.86       1.0  T
   3  -5197.5637428  0.336432E-05  0.973E-04    3.86       1.7  T
   4  -5197.5637470 -0.420740E-05  0.212E-04    3.86       7.6  T
   5  -5197.5637471 -0.889859E-07  0.138E-04    3.86      11.6  T
   6  -5197.5637472 -0.327254E-07  0.960E-05    3.86      16.8  T
     SCC iter.                  ...       21 min,  8.714 sec
     gradient                   ...        5 min, 16.318 sec
 * total energy  : -5104.0581557 Eh     change    :  -0.3827160E-02 Eh
   gradient norm :     0.0641052 Eh/a0  converged?    E=F G=F D=F
   time step     :     0.3025000 fs     power     :   0.1524590E-06
   step length   :     0.0807229 a0     speed     :   0.6454856E-02

........................................................................
.............................. CYCLE   28 ..............................
........................................................................

 iter      E             dE          RMSdq      gap      omega  full diag
   1  -5197.5389832 -0.519754E+04  0.707E-03    3.86       0.0  T
   2  -5197.5389851 -0.193435E-05  0.418E-03    3.86       1.0  T
   3  -5197.5389830  0.210554E-05  0.834E-04    3.86       1.9  T
   4  -5197.5389859 -0.284302E-05  0.239E-04    3.86       6.7  T
   5  -5197.5389860 -0.108541E-06  0.161E-04    3.86      10.0  T
   6  -5197.5389860 -0.485279E-07  0.114E-04    3.86      14.1  T
     SCC iter.                  ...       21 min,  7.250 sec
     gradient                   ...        5 min,  9.908 sec
 * total energy  : -5104.0621786 Eh     change    :  -0.4022943E-02 Eh
   gradient norm :     0.0604504 Eh/a0  converged?    E=F G=F D=F
   time step     :     0.3327500 fs     power     :   0.1440979E-06
   step length   :     0.0911203 a0     speed     :   0.6623879E-02

........................................................................
.............................. CYCLE   29 ..............................
........................................................................

 iter      E             dE          RMSdq      gap      omega  full diag
   1  -5197.5304031 -0.519753E+04  0.748E-03    3.85       0.0  T
   2  -5197.5304052 -0.202207E-05  0.441E-03    3.85       1.0  T
   3  -5197.5304036  0.151252E-05  0.802E-04    3.85       2.0  T
   4  -5197.5304059 -0.228363E-05  0.254E-04    3.85       6.3  T
   5  -5197.5304060 -0.103188E-06  0.179E-04    3.85       9.0  T
   6  -5197.5304061 -0.684549E-07  0.121E-04    3.85      13.3  T
     SCC iter.                  ...       21 min,  5.308 sec
     gradient                   ...        5 min, 14.837 sec
 * total energy  : -5104.0663523 Eh     change    :  -0.4173698E-02 Eh
   gradient norm :     0.0575670 Eh/a0  converged?    E=F G=F D=F
   time step     :     0.3660250 fs     power     :   0.1345181E-06
   step length   :     0.1027033 a0     speed     :   0.6787170E-02

........................................................................
.............................. CYCLE   30 ..............................
........................................................................

 iter      E             dE          RMSdq      gap      omega  full diag
   1  -5197.5394532 -0.519754E+04  0.771E-03    3.85       0.0  T
   2  -5197.5394555 -0.226490E-05  0.455E-03    3.85       1.0  T
   3  -5197.5394529  0.257349E-05  0.996E-04    3.85       1.6  T
   4  -5197.5394565 -0.358685E-05  0.253E-04    3.85       6.4  T
   5  -5197.5394566 -0.891814E-07  0.185E-04    3.85       8.7  T
   6  -5197.5394567 -0.739874E-07  0.122E-04    3.85      13.2  T
     SCC iter.                  ...       21 min,  8.082 sec
     gradient                   ...        5 min, 12.940 sec
 * total energy  : -5104.0706656 Eh     change    :  -0.4313323E-02 Eh
   gradient norm :     0.0560490 Eh/a0  converged?    E=F G=F D=F
   time step     :     0.4026275 fs     power     :   0.1254554E-06
   step length   :     0.1154366 a0     speed     :   0.6935140E-02

........................................................................
.............................. CYCLE   31 ..............................
........................................................................

 iter      E             dE          RMSdq      gap      omega  full diag
   1  -5197.5665940 -0.519757E+04  0.775E-03    3.84       0.0  T
   2  -5197.5665966 -0.258174E-05  0.460E-03    3.84       1.0  T
   3  -5197.5665926  0.392673E-05  0.116E-03    3.84       1.4  T
   4  -5197.5665978 -0.514389E-05  0.242E-04    3.84       6.6  T
   5  -5197.5665979 -0.837472E-07  0.172E-04    3.84       9.4  T
   6  -5197.5665979 -0.571035E-07  0.113E-04    3.84      14.3  T
     SCC iter.                  ...       21 min,  4.070 sec
     gradient                   ...        5 min, 10.648 sec
 * total energy  : -5104.0751973 Eh     change    :  -0.4531703E-02 Eh
   gradient norm :     0.0566304 Eh/a0  converged?    E=F G=F D=F
   time step     :     0.4428903 fs     power     :   0.1203251E-06
   step length   :     0.1293463 a0     speed     :   0.7064363E-02

........................................................................
.............................. CYCLE   32 ..............................
........................................................................

 iter      E             dE          RMSdq      gap      omega  full diag
   1  -5197.6117862 -0.519761E+04  0.773E-03    3.84       0.0  T
   2  -5197.6117888 -0.261582E-05  0.461E-03    3.84       1.0  T
   3  -5197.6117855  0.330106E-05  0.103E-03    3.84       1.6  T
   4  -5197.6117897 -0.426663E-05  0.223E-04    3.84       7.2  T
   5  -5197.6117898 -0.803575E-07  0.141E-04    3.84      11.4  T
   6  -5197.6117898 -0.301643E-07  0.913E-05    3.84      17.6  T
     SCC iter.                  ...       21 min,  7.629 sec
     gradient                   ...        5 min, 11.400 sec
 * total energy  : -5104.0801864 Eh     change    :  -0.4989050E-02 Eh
   gradient norm :     0.0570492 Eh/a0  converged?    E=F G=F D=F
   time step     :     0.4871793 fs     power     :   0.1225740E-06
   step length   :     0.1447808 a0     speed     :   0.7188484E-02

........................................................................
.............................. CYCLE   33 ..............................
........................................................................

 iter      E             dE          RMSdq      gap      omega  full diag
   1  -5197.6759665 -0.519768E+04  0.800E-03    3.84       0.0  T
   2  -5197.6759694 -0.280665E-05  0.477E-03    3.84       1.0  T
   3  -5197.6759676  0.179933E-05  0.778E-04    3.84       2.1  T
   4  -5197.6759699 -0.238769E-05  0.230E-04    3.84       7.0  T
   5  -5197.6759701 -0.119244E-06  0.111E-04    3.84      14.5  T
   6  -5197.6759701 -0.111386E-07  0.589E-05    3.84      27.3  T
     SCC iter.                  ...       21 min, 10.109 sec
     gradient                   ...        5 min, 11.525 sec
 * total energy  : -5104.0858628 Eh     change    :  -0.5676465E-02 Eh
   gradient norm :     0.0526293 Eh/a0  converged?    E=F G=F D=F
   time step     :     0.5358972 fs     power     :   0.1272269E-06
   step length   :     0.1628536 a0     speed     :   0.7350739E-02

........................................................................
.............................. CYCLE   34 ..............................
........................................................................

 iter      E             dE          RMSdq      gap      omega  full diag
   1  -5197.7628705 -0.519776E+04  0.880E-03    3.84       0.0  T
   2  -5197.7628748 -0.430512E-05  0.527E-03    3.84       1.0  T
   3  -5197.7628676  0.720689E-05  0.138E-03    3.84       1.2  T
   4  -5197.7628762 -0.863382E-05  0.263E-04    3.84       6.1  T
   5  -5197.7628764 -0.190977E-06  0.120E-04    3.84      13.4  T
   6  -5197.7628764 -0.905584E-08  0.572E-05    3.84      28.1  T
     SCC iter.                  ...       21 min,  4.374 sec
     gradient                   ...        5 min, 10.262 sec
 * total energy  : -5104.0919733 Eh     change    :  -0.6110453E-02 Eh
   gradient norm :     0.0439220 Eh/a0  converged?    E=F G=F D=F
   time step     :     0.5894869 fs     power     :   0.1196703E-06
   step length   :     0.1847745 a0     speed     :   0.7581984E-02

........................................................................
.............................. CYCLE   35 ..............................
........................................................................

 iter      E             dE          RMSdq      gap      omega  full diag
   1  -5197.8794551 -0.519788E+04  0.967E-03    3.84       0.0  T
   2  -5197.8794613 -0.626651E-05  0.584E-03    3.84       1.0  T
   3  -5197.8794431  0.182672E-04  0.213E-03    3.84       1.0  T
   4  -5197.8794651 -0.220449E-04  0.298E-04    3.84       5.4  T
   5  -5197.8794653 -0.217110E-06  0.141E-04    3.84      11.4  T
   6  -5197.8794653 -0.102200E-07  0.665E-05    3.84      24.2  T
     SCC iter.                  ...       21 min,  2.740 sec
     gradient                   ...        5 min, 10.007 sec
 * total energy  : -5104.0978066 Eh     change    :  -0.5833337E-02 Eh
   gradient norm :     0.0418151 Eh/a0  converged?    E=F G=F D=F
   time step     :     0.6484356 fs     power     :   0.9772663E-07
   step length   :     0.2099477 a0     speed     :   0.7831759E-02

........................................................................
.............................. CYCLE   36 ..............................
........................................................................

 iter      E             dE          RMSdq      gap      omega  full diag
   1  -5198.0277616 -0.519803E+04  0.998E-03    3.84       0.0  T
   2  -5198.0277682 -0.661418E-05  0.606E-03    3.84       1.0  T
   3  -5198.0277444  0.238157E-04  0.238E-03    3.84       1.0  T
   4  -5198.0277730 -0.286469E-04  0.287E-04    3.84       5.6  T
   5  -5198.0277732 -0.161316E-06  0.140E-04    3.84      11.5  T
   6  -5198.0277732 -0.788532E-08  0.653E-05    3.84      24.7  T
     SCC iter.                  ...       21 min,  8.231 sec
     gradient                   ...        5 min, 12.947 sec
 * total energy  : -5104.1032988 Eh     change    :  -0.5492197E-02 Eh
   gradient norm :     0.0434918 Eh/a0  converged?    E=F G=F D=F
   time step     :     0.7132792 fs     power     :   0.8367654E-07
   step length   :     0.2347817 a0     speed     :   0.7961957E-02

........................................................................
.............................. CYCLE   37 ..............................
........................................................................

 iter      E             dE          RMSdq      gap      omega  full diag
   1  -5198.1939805 -0.519819E+04  0.103E-02    3.84       0.0  T
   2  -5198.1939894 -0.887159E-05  0.619E-03    3.84       1.0  T
   3  -5198.1939726  0.168057E-04  0.227E-03    3.84       1.0  T
   4  -5198.1939931 -0.205042E-04  0.353E-04    3.84       4.6  T
   5  -5198.1939934 -0.323399E-06  0.149E-04    3.84      10.8  T
   6  -5198.1939934 -0.750424E-08  0.796E-05    3.84      20.2  T
     SCC iter.                  ...       21 min,  6.687 sec
     gradient                   ...        5 min,  9.154 sec
 * total energy  : -5104.1088135 Eh     change    :  -0.5514661E-02 Eh
   gradient norm :     0.0400898 Eh/a0  converged?    E=F G=F D=F
   time step     :     0.7846071 fs     power     :   0.7483923E-07
   step length   :     0.2600098 a0     speed     :   0.8015906E-02

........................................................................
.............................. CYCLE   38 ..............................
........................................................................

 iter      E             dE          RMSdq      gap      omega  full diag
   1  -5198.3415535 -0.519834E+04  0.107E-02    3.84       0.0  T
   2  -5198.3415629 -0.939039E-05  0.628E-03    3.84       1.0  T
   3  -5198.3415541  0.875875E-05  0.187E-03    3.84       1.0  T
   4  -5198.3415650 -0.109073E-04  0.357E-04    3.84       4.5  T
   5  -5198.3415653 -0.302198E-06  0.152E-04    3.84      10.6  T
   6  -5198.3415654 -0.851105E-08  0.832E-05    3.84      19.3  T
     SCC iter.                  ...       21 min,  3.849 sec
     gradient                   ...        5 min, 14.643 sec
 * total energy  : -5104.1142046 Eh     change    :  -0.5391096E-02 Eh
   gradient norm :     0.0426626 Eh/a0  converged?    E=F G=F D=F
   time step     :     0.8630678 fs     power     :   0.6462334E-07
   step length   :     0.2873960 a0     speed     :   0.8054729E-02

........................................................................
.............................. CYCLE   39 ..............................
........................................................................

 iter      E             dE          RMSdq      gap      omega  full diag
   1  -5198.4193439 -0.519842E+04  0.107E-02    3.84       0.0  T
   2  -5198.4193487 -0.473145E-05  0.631E-03    3.84       1.0  T
   3  -5198.4193421  0.651869E-05  0.143E-03    3.84       1.1  T
   4  -5198.4193502 -0.804765E-05  0.271E-04    3.84       5.9  T
   5  -5198.4193503 -0.139407E-06  0.141E-04    3.84      11.4  T
   6  -5198.4193503 -0.128193E-07  0.668E-05    3.84      24.1  T
     SCC iter.                  ...       21 min,  1.635 sec
     gradient                   ...        5 min, 10.289 sec
 * total energy  : -5104.1201011 Eh     change    :  -0.5896490E-02 Eh
   gradient norm :     0.0422446 Eh/a0  converged?    E=F G=F D=F
   time step     :     0.9493746 fs     power     :   0.6781392E-07
   step length   :     0.3159978 a0     speed     :   0.8051217E-02

........................................................................
.............................. CYCLE   40 ..............................
........................................................................

 iter      E             dE          RMSdq      gap      omega  full diag
   1  -5198.3936079 -0.519839E+04  0.110E-02    3.84       0.0  T
   2  -5198.3936168 -0.891438E-05  0.665E-03    3.84       1.0  T
   3  -5198.3936018  0.150491E-04  0.202E-03    3.84       1.0  T
   4  -5198.3936203 -0.185062E-04  0.374E-04    3.84       4.3  T
   5  -5198.3936206 -0.298498E-06  0.229E-04    3.84       7.0  T
   6  -5198.3936206 -0.548380E-07  0.149E-04    3.84      10.8  T
     SCC iter.                  ...       21 min, 12.781 sec
     gradient                   ...        5 min,  9.825 sec
 * total energy  : -5104.1267778 Eh     change    :  -0.6676753E-02 Eh
   gradient norm :     0.0395019 Eh/a0  converged?    E=F G=F D=F
   time step     :     1.0443120 fs     power     :   0.6830755E-07
   step length   :     0.3508028 a0     speed     :   0.8125459E-02

........................................................................
.............................. CYCLE   41 ..............................
........................................................................

 iter      E             dE          RMSdq      gap      omega  full diag
   1  -5198.2871063 -0.519829E+04  0.124E-02    3.83       0.0  T
   2  -5198.2871243 -0.179822E-04  0.745E-03    3.84       1.0  T
   3  -5198.2871096  0.147301E-04  0.225E-03    3.84       1.0  T
   4  -5198.2871280 -0.184443E-04  0.550E-04    3.84       2.9  T
   5  -5198.2871289 -0.901994E-06  0.263E-04    3.84       6.1  T
   6  -5198.2871290 -0.582913E-07  0.168E-04    3.84       9.6  T
     SCC iter.                  ...       21 min,  7.159 sec
     gradient                   ...        5 min, 10.985 sec
 * total energy  : -5104.1336973 Eh     change    :  -0.6919514E-02 Eh
   gradient norm :     0.0359141 Eh/a0  converged?    E=F G=F D=F
   time step     :     1.1487432 fs     power     :   0.5988630E-07
   step length   :     0.3918977 a0     speed     :   0.8252108E-02

........................................................................
.............................. CYCLE   42 ..............................
........................................................................

 iter      E             dE          RMSdq      gap      omega  full diag
   1  -5198.1806531 -0.519818E+04  0.136E-02    3.83       0.0  T
   2  -5198.1806627 -0.959678E-05  0.810E-03    3.83       1.0  T
   3  -5198.1806443  0.184421E-04  0.254E-03    3.83       1.0  T
   4  -5198.1806668 -0.225830E-04  0.386E-04    3.83       4.2  T
   5  -5198.1806671 -0.225634E-06  0.203E-04    3.83       7.9  T
   6  -5198.1806671 -0.219616E-07  0.965E-05    3.84      16.7  T
     SCC iter.                  ...       21 min, 10.461 sec
     gradient                   ...        5 min, 14.349 sec
 * total energy  : -5104.1403233 Eh     change    :  -0.6625950E-02 Eh
   gradient norm :     0.0372444 Eh/a0  converged?    E=F G=F D=F
   time step     :     1.2500000 fs     power     :   0.5192543E-07
   step length   :     0.4308916 a0     speed     :   0.8338215E-02
 * RMSD in coord.:     0.0559328 a0     energy gain  -0.1056512E+00 Eh

........................................................................
.............................. CYCLE   43 ..............................
........................................................................

 iter      E             dE          RMSdq      gap      omega  full diag
   1  -5198.1681381 -0.519817E+04  0.233E-03    3.84       0.0  T
   2  -5198.1681384 -0.329273E-06  0.141E-03    3.84       1.1  T
   3  -5198.1681372  0.122840E-05  0.559E-04    3.84       2.9  T
   4  -5198.1681387 -0.148533E-05  0.722E-05    3.84      22.3  T
   5  -5198.1681387 -0.102946E-07  0.428E-05    3.84      37.5  T
   6  -5198.1681387 -0.255750E-08  0.253E-05    3.84      63.5  T
     SCC iter.                  ...       21 min,  1.564 sec
     gradient                   ...        5 min, 14.196 sec
 * total energy  : -5104.1415603 Eh     change    :  -0.1236986E-02 Eh
   gradient norm :     0.0364250 Eh/a0  converged?    E=F G=F D=F
   time step     :     0.2500000 fs     power     :   0.6321862E-07
   step length   :     0.0815041 a0     speed     :   0.7885956E-02

........................................................................
.............................. CYCLE   44 ..............................
........................................................................

 iter      E             dE          RMSdq      gap      omega  full diag
   1  -5198.1644422 -0.519816E+04  0.231E-03    3.84       0.0  T
   2  -5198.1644427 -0.588210E-06  0.144E-03    3.84       1.1  T
   3  -5198.1644412  0.151591E-05  0.650E-04    3.84       2.5  T
   4  -5198.1644432 -0.198100E-05  0.818E-05    3.84      19.7  T
   5  -5198.1644432 -0.183054E-07  0.373E-05    3.84      43.2  T
   6  -5198.1644432 -0.114869E-08  0.211E-05    3.84      76.4  T
     SCC iter.                  ...       21 min,  9.216 sec
     gradient                   ...        5 min, 13.938 sec
 * total energy  : -5104.1429460 Eh     change    :  -0.1385702E-02 Eh
   gradient norm :     0.0327917 Eh/a0  converged?    E=F G=F D=F
   time step     :     0.2500000 fs     power     :   0.7028780E-07
   step length   :     0.0780505 a0     speed     :   0.7551806E-02

........................................................................
.............................. CYCLE   45 ..............................
........................................................................

 iter      E             dE          RMSdq      gap      omega  full diag
   1  -5198.1695758 -0.519817E+04  0.251E-03    3.84       0.0  T
   2  -5198.1695767 -0.893925E-06  0.158E-03    3.84       1.0  T
   3  -5198.1695749  0.173595E-05  0.737E-04    3.84       2.2  T
   4  -5198.1695773 -0.241476E-05  0.979E-05    3.84      16.4  T
   5  -5198.1695774 -0.269029E-07  0.425E-05    3.84      37.8  T
   6  -5198.1695774 -0.144610E-08  0.240E-05    3.84      67.0  T
     SCC iter.                  ...       21 min,  4.581 sec
     gradient                   ...        5 min,  8.896 sec
 * total energy  : -5104.1443679 Eh     change    :  -0.1421876E-02 Eh
   gradient norm :     0.0286227 Eh/a0  converged?    E=F G=F D=F
   time step     :     0.2500000 fs     power     :   0.7074660E-07
   step length   :     0.0757368 a0     speed     :   0.7327938E-02

........................................................................
.............................. CYCLE   46 ..............................
........................................................................

 iter      E             dE          RMSdq      gap      omega  full diag
   1  -5198.1835588 -0.519818E+04  0.270E-03    3.84       0.0  T
   2  -5198.1835598 -0.953180E-06  0.168E-03    3.84       1.0  T
   3  -5198.1835577  0.206705E-05  0.776E-04    3.84       2.1  T
   4  -5198.1835605 -0.277353E-05  0.102E-04    3.84      15.8  T
   5  -5198.1835605 -0.269247E-07  0.470E-05    3.84      34.2  T
   6  -5198.1835605 -0.152613E-08  0.261E-05    3.84      61.6  T
     SCC iter.                  ...       21 min,  4.589 sec
     gradient                   ...        5 min,  9.513 sec
 * total energy  : -5104.1457301 Eh     change    :  -0.1362246E-02 Eh
   gradient norm :     0.0264051 Eh/a0  converged?    E=F G=F D=F
   time step     :     0.2500000 fs     power     :   0.6686629E-07
   step length   :     0.0742106 a0     speed     :   0.7180270E-02

........................................................................
.............................. CYCLE   47 ..............................
........................................................................

 iter      E             dE          RMSdq      gap      omega  full diag
   1  -5198.2056992 -0.519821E+04  0.275E-03    3.84       0.0  T
   2  -5198.2056999 -0.711984E-06  0.168E-03    3.84       1.0  T
   3  -5198.2056978  0.202408E-05  0.715E-04    3.84       2.2  T
   4  -5198.2057004 -0.252224E-05  0.932E-05    3.84      17.3  T
   5  -5198.2057004 -0.197051E-07  0.462E-05    3.84      34.8  T
   6  -5198.2057004 -0.133423E-08  0.247E-05    3.84      65.1  T
     SCC iter.                  ...       21 min,  8.068 sec
     gradient                   ...        5 min, 12.227 sec
 * total energy  : -5104.1470102 Eh     change    :  -0.1280080E-02 Eh
   gradient norm :     0.0264600 Eh/a0  converged?    E=F G=F D=F
   time step     :     0.2500000 fs     power     :   0.6313141E-07
   step length   :     0.0728797 a0     speed     :   0.7051500E-02

........................................................................
.............................. CYCLE   48 ..............................
........................................................................

 iter      E             dE          RMSdq      gap      omega  full diag
   1  -5198.2372812 -0.519824E+04  0.296E-03    3.84       0.0  T
   2  -5198.2372817 -0.495609E-06  0.177E-03    3.84       1.0  T
   3  -5198.2372803  0.144678E-05  0.597E-04    3.84       2.7  T
   4  -5198.2372820 -0.172815E-05  0.882E-05    3.84      18.2  T
   5  -5198.2372820 -0.164773E-07  0.451E-05    3.84      35.7  T
   6  -5198.2372820 -0.854016E-09  0.214E-05    3.84      75.2  T
     SCC iter.                  ...       21 min,  6.606 sec
     gradient                   ...        5 min, 12.084 sec
 * total energy  : -5104.1483663 Eh     change    :  -0.1356092E-02 Eh
   gradient norm :     0.0270626 Eh/a0  converged?    E=F G=F D=F
   time step     :     0.2750000 fs     power     :   0.6139521E-07
   step length   :     0.0786392 a0     speed     :   0.6917057E-02

........................................................................
.............................. CYCLE   49 ..............................
........................................................................

 iter      E             dE          RMSdq      gap      omega  full diag
   1  -5198.2772903 -0.519828E+04  0.311E-03    3.84       0.0  T
   2  -5198.2772907 -0.367547E-06  0.184E-03    3.84       1.0  T
   3  -5198.2772901  0.590911E-06  0.448E-04    3.84       3.6  T
   4  -5198.2772908 -0.737300E-06  0.787E-05    3.84      20.4  T
     SCC iter.                  ...       14 min, 11.228 sec
     gradient                   ...        5 min, 14.947 sec
 * total energy  : -5104.1498425 Eh     change    :  -0.1476207E-02 Eh
   gradient norm :     0.0267237 Eh/a0  converged?    E=F G=F D=F
   time step     :     0.3025000 fs     power     :   0.6125095E-07
   step length   :     0.0848971 a0     speed     :   0.6788633E-02

........................................................................
.............................. CYCLE   50 ..............................
........................................................................

 iter      E             dE          RMSdq      gap      omega  full diag
   1  -5198.3238359 -0.519832E+04  0.327E-03    3.84       0.0  T
   2  -5198.3238363 -0.409413E-06  0.194E-03    3.84       1.0  T
   3  -5198.3238355  0.818211E-06  0.501E-04    3.84       3.2  T
   4  -5198.3238365 -0.101176E-05  0.743E-05    3.84      21.7  T
   5  -5198.3238365 -0.565524E-08  0.414E-05    3.84      38.9  T
     SCC iter.                  ...       17 min, 35.902 sec
     gradient                   ...        5 min, 10.629 sec
 * total energy  : -5104.1514562 Eh     change    :  -0.1613739E-02 Eh
   gradient norm :     0.0251143 Eh/a0  converged?    E=F G=F D=F
   time step     :     0.3327500 fs     power     :   0.6070488E-07
   step length   :     0.0920557 a0     speed     :   0.6691873E-02

........................................................................
.............................. CYCLE   51 ..............................
........................................................................

 iter      E             dE          RMSdq      gap      omega  full diag
   1  -5198.3736808 -0.519837E+04  0.346E-03    3.84       0.0  T
   2  -5198.3736813 -0.559885E-06  0.207E-03    3.84       1.0  T
   3  -5198.3736799  0.147851E-05  0.604E-04    3.84       2.7  T
   4  -5198.3736816 -0.178135E-05  0.872E-05    3.84      18.4  T
   5  -5198.3736816 -0.113996E-07  0.473E-05    3.84      34.0  T
   6  -5198.3736816 -0.108048E-08  0.205E-05    3.84      78.6  T
     SCC iter.                  ...       21 min,  8.621 sec
     gradient                   ...        5 min, 12.279 sec
 * total energy  : -5104.1531776 Eh     change    :  -0.1721388E-02 Eh
   gradient norm :     0.0229084 Eh/a0  converged?    E=F G=F D=F
   time step     :     0.3660250 fs     power     :   0.5815191E-07
   step length   :     0.1004586 a0     speed     :   0.6638827E-02

........................................................................
.............................. CYCLE   52 ..............................
........................................................................

 iter      E             dE          RMSdq      gap      omega  full diag
   1  -5198.4215514 -0.519842E+04  0.366E-03    3.84       0.0  T
   2  -5198.4215521 -0.655752E-06  0.219E-03    3.84       1.0  T
   3  -5198.4215508  0.124742E-05  0.575E-04    3.84       2.8  T
   4  -5198.4215523 -0.152468E-05  0.103E-04    3.84      15.6  T
   5  -5198.4215524 -0.199907E-07  0.541E-05    3.84      29.7  T
   6  -5198.4215524 -0.103137E-08  0.231E-05    3.84      69.6  T
     SCC iter.                  ...       21 min, 11.025 sec
     gradient                   ...        5 min, 10.288 sec
 * total energy  : -5104.1549507 Eh     change    :  -0.1773078E-02 Eh
   gradient norm :     0.0215123 Eh/a0  converged?    E=F G=F D=F
   time step     :     0.4026275 fs     power     :   0.5362723E-07
   step length   :     0.1101797 a0     speed     :   0.6619319E-02

........................................................................
.............................. CYCLE   53 ..............................
........................................................................

 iter      E             dE          RMSdq      gap      omega  full diag
   1  -5198.4603440 -0.519846E+04  0.384E-03    3.84       0.0  T
   2  -5198.4603448 -0.742497E-06  0.228E-03    3.84       1.0  T
   3  -5198.4603438  0.100115E-05  0.584E-04    3.84       2.8  T
   4  -5198.4603451 -0.127595E-05  0.106E-04    3.84      15.2  T
   5  -5198.4603451 -0.180689E-07  0.612E-05    3.84      26.3  T
   6  -5198.4603451 -0.246655E-08  0.269E-05    3.84      59.7  T
     SCC iter.                  ...       21 min,  7.049 sec
     gradient                   ...        5 min,  9.216 sec
 * total energy  : -5104.1567528 Eh     change    :  -0.1802107E-02 Eh
   gradient norm :     0.0222392 Eh/a0  converged?    E=F G=F D=F
   time step     :     0.4428903 fs     power     :   0.4946588E-07
   step length   :     0.1208260 a0     speed     :   0.6599022E-02

........................................................................
.............................. CYCLE   54 ..............................
........................................................................

 iter      E             dE          RMSdq      gap      omega  full diag
   1  -5198.4839406 -0.519848E+04  0.399E-03    3.85       0.0  T
   2  -5198.4839415 -0.916202E-06  0.238E-03    3.85       1.0  T
   3  -5198.4839385  0.297716E-05  0.872E-04    3.85       1.8  T
   4  -5198.4839421 -0.359903E-05  0.114E-04    3.85      14.1  T
   5  -5198.4839421 -0.233804E-07  0.686E-05    3.85      23.5  T
   6  -5198.4839421 -0.348427E-08  0.350E-05    3.85      46.0  T
     SCC iter.                  ...       21 min,  9.975 sec
     gradient                   ...        5 min,  9.903 sec
 * total energy  : -5104.1586599 Eh     change    :  -0.1907134E-02 Eh
   gradient norm :     0.0233477 Eh/a0  converged?    E=F G=F D=F
   time step     :     0.4871793 fs     power     :   0.4849365E-07
   step length   :     0.1318464 a0     speed     :   0.6546279E-02

........................................................................
.............................. CYCLE   55 ..............................
........................................................................

 iter      E             dE          RMSdq      gap      omega  full diag
   1  -5198.4894539 -0.519849E+04  0.425E-03    3.84       0.0  T
   2  -5198.4894551 -0.114633E-05  0.255E-03    3.84       1.0  T
   3  -5198.4894505  0.459485E-05  0.106E-03    3.84       1.5  T
   4  -5198.4894560 -0.555003E-05  0.114E-04    3.84      14.2  T
   5  -5198.4894560 -0.184837E-07  0.683E-05    3.84      23.6  T
   6  -5198.4894561 -0.298405E-08  0.351E-05    3.84      45.8  T
     SCC iter.                  ...       21 min,  2.867 sec
     gradient                   ...        5 min,  8.372 sec
 * total energy  : -5104.1607699 Eh     change    :  -0.2109951E-02 Eh
   gradient norm :     0.0217425 Eh/a0  converged?    E=F G=F D=F
   time step     :     0.5358972 fs     power     :   0.4906496E-07
   step length   :     0.1438774 a0     speed     :   0.6494210E-02

........................................................................
.............................. CYCLE   56 ..............................
........................................................................

 iter      E             dE          RMSdq      gap      omega  full diag
   1  -5198.4767855 -0.519848E+04  0.463E-03    3.84       0.0  T
   2  -5198.4767868 -0.129868E-05  0.276E-03    3.84       1.0  T
   3  -5198.4767830  0.376835E-05  0.103E-03    3.84       1.6  T
   4  -5198.4767875 -0.452772E-05  0.129E-04    3.84      12.5  T
   5  -5198.4767875 -0.323726E-07  0.673E-05    3.84      23.9  T
   6  -5198.4767875 -0.184173E-08  0.299E-05    3.84      53.8  T
     SCC iter.                  ...       21 min,  5.630 sec
     gradient                   ...        5 min,  9.270 sec
 * total energy  : -5104.1630278 Eh     change    :  -0.2257899E-02 Eh
   gradient norm :     0.0189287 Eh/a0  converged?    E=F G=F D=F
   time step     :     0.5894869 fs     power     :   0.4649181E-07
   step length   :     0.1582910 a0     speed     :   0.6495269E-02

........................................................................
.............................. CYCLE   57 ..............................
........................................................................

 iter      E             dE          RMSdq      gap      omega  full diag
   1  -5198.4495160 -0.519845E+04  0.498E-03    3.84       0.0  T
   2  -5198.4495171 -0.108071E-05  0.296E-03    3.84       1.0  T
   3  -5198.4495151  0.196609E-05  0.811E-04    3.84       2.0  T
   4  -5198.4495175 -0.241542E-05  0.123E-04    3.84      13.1  T
   5  -5198.4495176 -0.181071E-07  0.688E-05    3.84      23.4  T
   6  -5198.4495176 -0.247201E-08  0.319E-05    3.84      50.5  T
     SCC iter.                  ...       21 min,  5.560 sec
     gradient                   ...        5 min,  9.269 sec
 * total energy  : -5104.1653035 Eh     change    :  -0.2275690E-02 Eh
   gradient norm :     0.0190155 Eh/a0  converged?    E=F G=F D=F
[...]
  3609   6 C     3614   6 C                                       1.3905065
  3613   6 C     3614   6 C                                       1.3825126
  3608   6 C     3615   6 C                                       1.5378932
  3615   6 C     3616   6 C                                       1.5324935
  3617   6 C     3618   6 C                                       1.3901166
  3618   6 C     3619   6 C                                       1.3839545
  3619   6 C     3620   6 C                                       1.3840844
  3620   6 C     3621   6 C                                       1.3845582
  3617   6 C     3622   6 C                                       1.3903214
  3621   6 C     3622   6 C                                       1.3834925
  3616   6 C     3623   6 C                                       1.5398866
  3623   6 C     3624   6 C                                       1.5393698
  3625   6 C     3626   6 C                                       1.3899876
  3626   6 C     3627   6 C                                       1.3822535
  3627   6 C     3628   6 C                                       1.3844179
  3628   6 C     3629   6 C                                       1.3837190
  3625   6 C     3630   6 C                                       1.3894326
  3629   6 C     3630   6 C                                       1.3832713
  3624   6 C     3631   6 C                                       1.5331523
  3631   6 C     3632   6 C                                       1.5335628
  3633   6 C     3634   6 C                                       1.3893665
  3634   6 C     3635   6 C                                       1.3851825
  3635   6 C     3636   6 C                                       1.3834000
  3636   6 C     3637   6 C                                       1.3843061
  3633   6 C     3638   6 C                                       1.3909536
  3637   6 C     3638   6 C                                       1.3827108
  3639   6 C     3640   6 C                                       1.5369212
  3641   6 C     3642   6 C                                       1.3909893
  3642   6 C     3643   6 C                                       1.3825083
  3643   6 C     3644   6 C                                       1.3850039
  3644   6 C     3645   6 C                                       1.3833993
  3641   6 C     3646   6 C                                       1.3893222
  3645   6 C     3646   6 C                                       1.3838116
  3649   6 C     3650   6 C                                       1.3918018
  3650   6 C     3651   6 C                                       1.3831174
  3651   6 C     3652   6 C                                       1.3847864
  3652   6 C     3653   6 C                                       1.3838471
  3649   6 C     3654   6 C                                       1.3877606
  3653   6 C     3654   6 C                                       1.3845200
  3648   6 C     3655   6 C                                       1.5371257
  3655   6 C     3656   6 C                                       1.5394640
  3657   6 C     3658   6 C                                       1.3906934
  3658   6 C     3659   6 C                                       1.3821090
  3659   6 C     3660   6 C                                       1.3849921
  3660   6 C     3661   6 C                                       1.3835945
  3657   6 C     3662   6 C                                       1.3890380
  3661   6 C     3662   6 C                                       1.3848748
  3656   6 C     3663   6 C                                       1.5326613
  3663   6 C     3664   6 C                                       1.5358493
  3665   6 C     3666   6 C                                       1.3902275
  3666   6 C     3667   6 C                                       1.3839948
  3667   6 C     3668   6 C                                       1.3847397
  3668   6 C     3669   6 C                                       1.3845059
  3665   6 C     3670   6 C                                       1.3893673
  3669   6 C     3670   6 C                                       1.3838590
  3664   6 C     3671   6 C                                       1.5371560
  3673   6 C     3674   6 C                                       1.3889841
  3674   6 C     3675   6 C                                       1.3847579
  3675   6 C     3676   6 C                                       1.3834132
  3676   6 C     3677   6 C                                       1.3848750
  3673   6 C     3678   6 C                                       1.3912002
  3677   6 C     3678   6 C                                       1.3828955
  3672   6 C     3679   6 C                                       1.5368099
  3681   6 C     3682   6 C                                       1.3896155
  3682   6 C     3683   6 C                                       1.3844832
  3683   6 C     3684   6 C                                       1.3837450
  3684   6 C     3685   6 C                                       1.3848149
  3681   6 C     3686   6 C                                       1.3910528
  3685   6 C     3686   6 C                                       1.3827472
  3680   6 C     3687   6 C                                       1.5324633
  3687   6 C     3688   6 C                                       1.5342443
  3549   6 C     3689   1 H                                       1.0967951
  3551   6 C     3690   1 H                                       1.0923404
  3551   6 C     3691   1 H                                       1.0910712
  3552   6 C     3692   1 H                                       1.0957186
  3559   6 C     3693   1 H                                       1.0908723
  3559   6 C     3694   1 H                                       1.0919862
  3560   6 C     3695   1 H                                       1.0947109
  3567   6 C     3696   1 H                                       1.0901239
  3567   6 C     3697   1 H                                       1.0930155
  3568   6 C     3698   1 H                                       1.0946198
  3575   6 C     3699   1 H                                       1.0905063
  3576   6 C     3700   1 H                                       1.0959398
  3583   6 C     3701   1 H                                       1.0918579
  3583   6 C     3702   1 H                                       1.0908325
  3584   6 C     3703   1 H                                       1.0952343
  3591   6 C     3704   1 H                                       1.0924754
  3591   6 C     3705   1 H                                       1.0923396
  3592   6 C     3706   1 H                                       1.0935993
  3599   6 C     3707   1 H                                       1.0917820
  3599   6 C     3708   1 H                                       1.0923787
  3600   6 C     3709   1 H                                       1.0951607
  3608   6 C     3710   1 H                                       1.0957587
  3615   6 C     3711   1 H                                       1.0898793
  3615   6 C     3712   1 H                                       1.0912180
  3616   6 C     3713   1 H                                       1.0955725
  3623   6 C     3714   1 H                                       1.0925081
  3623   6 C     3715   1 H                                       1.0922241
  3624   6 C     3716   1 H                                       1.0950784
  3631   6 C     3717   1 H                                       1.0923045
  3631   6 C     3718   1 H                                       1.0899979
  3632   6 C     3719   1 H                                       1.0965000
  3639   6 C     3720   1 H                                       1.0914558
  3639   6 C     3721   1 H                                       1.0918466
  3640   6 C     3722   1 H                                       1.0948749
  3647   6 C     3723   1 H                                       1.0932234
  3647   6 C     3724   1 H                                       1.0919756
  3648   6 C     3725   1 H                                       1.0930980
  3655   6 C     3726   1 H                                       1.0930697
  3655   6 C     3727   1 H                                       1.0932920
  3656   6 C     3728   1 H                                       1.0944566
  3663   6 C     3729   1 H                                       1.0911219
  3663   6 C     3730   1 H                                       1.0918273
  3664   6 C     3731   1 H                                       1.0959203
  3671   6 C     3732   1 H                                       1.0899941
  3671   6 C     3733   1 H                                       1.0922834
  3672   6 C     3734   1 H                                       1.0939047
  3679   6 C     3735   1 H                                       1.0930672
  3679   6 C     3736   1 H                                       1.0917215
  3543   6 C     3737   1 H                                       1.0823713
  3548   6 C     3738   1 H                                       1.0804729
  3547   6 C     3739   1 H                                       1.0805645
  3546   6 C     3740   1 H                                       1.0815430
  3545   6 C     3741   1 H                                       1.0807739
  3554   6 C     3742   1 H                                       1.0811073
  3555   6 C     3743   1 H                                       1.0795757
  3556   6 C     3744   1 H                                       1.0811110
  3557   6 C     3745   1 H                                       1.0819819
  3558   6 C     3746   1 H                                       1.0816829
  3562   6 C     3747   1 H                                       1.0802195
  3563   6 C     3748   1 H                                       1.0803288
  3564   6 C     3749   1 H                                       1.0802122
  3565   6 C     3750   1 H                                       1.0806412
  3566   6 C     3751   1 H                                       1.0811255
  3570   6 C     3752   1 H                                       1.0814766
  3571   6 C     3753   1 H                                       1.0813149
  3572   6 C     3754   1 H                                       1.0815161
  3573   6 C     3755   1 H                                       1.0800365
  3574   6 C     3756   1 H                                       1.0800964
  3575   6 C     3757   1 H                                       1.0912692
  3578   6 C     3758   1 H                                       1.0817597
  3579   6 C     3759   1 H                                       1.0815630
  3580   6 C     3760   1 H                                       1.0805330
  3581   6 C     3761   1 H                                       1.0808714
  3582   6 C     3762   1 H                                       1.0798182
  3586   6 C     3763   1 H                                       1.0817216
  3587   6 C     3764   1 H                                       1.0815304
  3588   6 C     3765   1 H                                       1.0813029
  3589   6 C     3766   1 H                                       1.0810290
  3590   6 C     3767   1 H                                       1.0788999
  3594   6 C     3768   1 H                                       1.0785815
  3595   6 C     3769   1 H                                       1.0818910
  3596   6 C     3770   1 H                                       1.0811955
  3597   6 C     3771   1 H                                       1.0805018
  3598   6 C     3772   1 H                                       1.0814466
  3602   6 C     3773   1 H                                       1.0805049
  3603   6 C     3774   1 H                                       1.0809639
  3604   6 C     3775   1 H                                       1.0805645
  3605   6 C     3776   1 H                                       1.0810250
  3606   6 C     3777   1 H                                       1.0804331
  3607   6 C     3778   1 H                                       1.0906902
  3607   6 C     3779   1 H                                       1.0922550
  3610   6 C     3780   1 H                                       1.0821666
  3611   6 C     3781   1 H                                       1.0814133
  3612   6 C     3782   1 H                                       1.0809442
  3613   6 C     3783   1 H                                       1.0800722
  3614   6 C     3784   1 H                                       1.0802564
  3618   6 C     3785   1 H                                       1.0796660
  3619   6 C     3786   1 H                                       1.0807220
  3620   6 C     3787   1 H                                       1.0807389
  3621   6 C     3788   1 H                                       1.0812433
  3622   6 C     3789   1 H                                       1.0822878
  3626   6 C     3790   1 H                                       1.0795141
  3627   6 C     3791   1 H                                       1.0806322
  3628   6 C     3792   1 H                                       1.0812595
  3629   6 C     3793   1 H                                       1.0805172
  3630   6 C     3794   1 H                                       1.0821351
  3634   6 C     3795   1 H                                       1.0785285
  3635   6 C     3796   1 H                                       1.0815643
  3636   6 C     3797   1 H                                       1.0813645
  3637   6 C     3798   1 H                                       1.0807426
  3638   6 C     3799   1 H                                       1.0810455
  3642   6 C     3800   1 H                                       1.0802528
  3643   6 C     3801   1 H                                       1.0814798
  3644   6 C     3802   1 H                                       1.0811802
  3645   6 C     3803   1 H                                       1.0810568
  3646   6 C     3804   1 H                                       1.0821258
  3650   6 C     3805   1 H                                       1.0813906
  3651   6 C     3806   1 H                                       1.0818837
  3652   6 C     3807   1 H                                       1.0808076
  3653   6 C     3808   1 H                                       1.0797733
  3654   6 C     3809   1 H                                       1.0817545
  3658   6 C     3810   1 H                                       1.0794008
  3659   6 C     3811   1 H                                       1.0811037
  3660   6 C     3812   1 H                                       1.0807316
  3661   6 C     3813   1 H                                       1.0816683
  3662   6 C     3814   1 H                                       1.0826001
  3666   6 C     3815   1 H                                       1.0795407
  3667   6 C     3816   1 H                                       1.0811672
  3668   6 C     3817   1 H                                       1.0809468
  3669   6 C     3818   1 H                                       1.0814042
  3670   6 C     3819   1 H                                       1.0804776
  3674   6 C     3820   1 H                                       1.0816889
  3675   6 C     3821   1 H                                       1.0810356
  3676   6 C     3822   1 H                                       1.0808333
  3677   6 C     3823   1 H                                       1.0813161
  3678   6 C     3824   1 H                                       1.0804111
  3686   6 C     3825   1 H                                       1.0818970
  3685   6 C     3826   1 H                                       1.0809182
  3684   6 C     3827   1 H                                       1.0806491
  3683   6 C     3828   1 H                                       1.0809080
  3682   6 C     3829   1 H                                       1.0789686
  3550   6 C     3830   1 H                                       1.0878803
  3550   6 C     3831   1 H                                       1.0879901
  3550   6 C     3832   1 H                                       1.0877980
  3680   6 C     3833   1 H                                       1.0950056
  3687   6 C     3834   1 H                                       1.0915623
  3687   6 C     3835   1 H                                       1.0909078
  3688   6 C     3836   6 C                                       1.5387669
  3837   6 C     3838   6 C                                       1.3896731
  3838   6 C     3839   6 C                                       1.3828320
  3839   6 C     3840   6 C                                       1.3842445
  3840   6 C     3841   6 C                                       1.3840471
  3837   6 C     3842   6 C                                       1.3893683
  3841   6 C     3842   6 C                                       1.3837678
  3838   6 C     3843   1 H                                       1.0796254
  3839   6 C     3844   1 H                                       1.0811017
  3840   6 C     3845   1 H                                       1.0806463
  3841   6 C     3846   1 H                                       1.0809148
  3842   6 C     3847   1 H                                       1.0815754
  3836   6 C     3848   6 C                                       1.5268428
  3836   6 C     3849   1 H                                       1.0927853
  3836   6 C     3850   1 H                                       1.0914296
  3851   6 C     3852   6 C                                       1.3879459
  3852   6 C     3853   6 C                                       1.3858941
  3853   6 C     3854   6 C                                       1.3826503
  3854   6 C     3855   6 C                                       1.3854119
  3851   6 C     3856   6 C                                       1.3933701
  3855   6 C     3856   6 C                                       1.3813530
  3852   6 C     3857   1 H                                       1.0788928
  3853   6 C     3858   1 H                                       1.0810458
  3854   6 C     3859   1 H                                       1.0802884
  3855   6 C     3860   1 H                                       1.0810076
  3856   6 C     3861   1 H                                       1.0814881
  3688   6 C     3862   1 H                                       1.0951479
  3848   6 C     3863   1 H                                       1.0929927
  3848   6 C     3864   1 H                                       1.0954261

 * 2 distinct bonds (by element types)

   Z      Z             #   av. dist./Å        max./Å        min./Å
   1 H    6 C        1944     1.0852608     1.0977166     1.0764636
   6 C    6 C        1859     1.4195642     1.5408456     1.3797849


optimized geometry written to: xtbopt.xyz


           -------------------------------------------------
          | TOTAL ENERGY            -5104.239970508133 Eh   |
          | GRADIENT NORM               0.000855891894 Eh/α |
          | HOMO-LUMO GAP               3.805954566750 eV   |
           -------------------------------------------------

------------------------------------------------------------------------
 * finished run on 2024/07/21 at 14:10:27.977     
------------------------------------------------------------------------
 total:
 * wall-time:     7 d,  6 h, 41 min, 18.682 sec
 *  cpu-time:    46 d, 21 h, 16 min, 47.776 sec
 * ratio c/w:     6.442 speedup
 SCF:
 * wall-time:     0 d,  0 h, 16 min, 35.853 sec
 *  cpu-time:     0 d,  1 h, 44 min, 36.672 sec
 * ratio c/w:     6.303 speedup
 ANC optimizer:
 * wall-time:     7 d,  6 h, 23 min, 31.693 sec
 *  cpu-time:    46 d, 19 h, 30 min, 38.292 sec
 * ratio c/w:     6.442 speedup

