3795
 energy: -5103.730498510815 gnorm: 0.000909214774 xtb: 6.6.1 (8d0f1dd)
C          114.78816130954260      100.08476782302213      101.65450278728251
C          113.70848843404229       99.84331302606374      102.68628383310048
C          114.17540211573588      100.68106666339969      100.37564998260530
C          113.42252013895266      101.98179859751504      100.64602887274158
H          114.98608115092865      100.87048111268875       99.66959070886953
H          113.50009838988370       99.94891913843068       99.92817021053715
C          113.10453442565206      102.75163963899836       99.36364542243547
H          112.48713907802377      101.76283418338160      101.16649553910527
H          114.03248128652362      102.61669456978048      101.28733828264652
C          112.11912754749397      103.87235322640230       99.64284504510192
H          114.01487465893935      103.15433047818746       98.92091773003175
H          112.63299700653678      102.07422087025948       98.64762921204122
N          112.53584896183268      105.09993629293579       99.32931831472793
O          113.46814438526543      100.81629597599921      103.53742166297889
O          113.05584652847072       98.81604573968205      102.71222254266264
H          114.14919392863892      101.56867555662389      103.48576385227449
H          115.25499751637673       99.13047443089489      101.40778675060457
H          115.53527559813466      100.76701018721424      102.06132665819807
C          111.63800761949831      106.23944032224694       99.36447848813003
H          113.46746695009520      105.23352576505242       98.95018829718418
C          112.35941911388822      107.57235698388328       99.50501750136277
H          111.04909832026790      106.24148558304088       98.44097101810641
H          110.95594289391042      106.08645830422104      100.20270620010956
C          111.37907003553156      108.75044465602484       99.51100233833368
H          112.93234126732234      107.57702173130602      100.43362786074587
H          113.06061004784564      107.68772571847208       98.67753798557412
C          110.63093422687967      108.90888752118647       98.18523503269887
H          110.66395150077271      108.62039107572569      100.32440683022163
H          111.94312536546593      109.66310348315909       99.70901747271905
C          109.93820180189400      110.26446996781007       98.02908169991585
H          111.34247705057089      108.79744704615487       97.36506686726503
H          109.88124246847062      108.12218754716373       98.09021665848464
C          108.83042164781570      110.52085275887042       99.05194325061248
H          110.66926603441388      111.06865425733140       98.11663389532680
H          109.50409842449193      110.32345717844566       97.02901683473547
N          107.81365697680462      109.49050534084337       99.02408777562992
H          109.23644065946662      110.53318629179101      100.06462805945596
H          108.37159465225587      111.49454947091229       98.84452463446848
C          107.45116929051693      108.78716009245527      100.09869890837113
H          107.36000607958867      109.30007086424654       98.13817261401573
O          111.00784195484830      103.64913369472663      100.12659757770697
C          106.41078094677846      107.71215142260122       99.84030421039675
C          107.00278586889320      106.53466786063566       99.05824104500411
H          106.02642330739212      107.37333159810839      100.80166833309858
H          105.58959257573514      108.14205075876470       99.26551390982290
C          108.21016462554374      105.90514498165555       99.75062254609722
H          106.23007989670880      105.77699749016122       98.91877846919110
H          107.30784222085515      106.89426545629360       98.07516804499711
C          107.83919486452965      104.91356673746888      100.85805929702477
H          108.81936205066704      105.37762612113775       99.01528291318607
H          108.81553909851530      106.69959973611130      100.18661715123022
C          107.25131443855508      103.64853234682353      100.26959227470978
H          108.74100697948401      104.64879131858372      101.40896513615859
H          107.12535310669932      105.36608366644599      101.54426027024306
N          108.17552464602524      102.78019792076599       99.84747255785750
C          107.86804620136128      101.47483690314954       99.31036085142675
H          109.15493775953519      103.00689813184147       99.98115718616341
O          107.92464098598860      108.97785223551992      101.21718272152798
C          108.08970668826332      100.36089104536748      100.33870377176659
H          106.81778151414068      101.48780316360445       99.00728791308974
H          108.49221768461403      101.29904978194359       98.43026134300092
C          109.56082809667703      100.19022468891248      100.71665017199297
H          107.49894796599871      100.58988023046417      101.22629166118747
H          107.71761615549988       99.42568181097241       99.91662100442339
C          109.79634746626471       99.00589749630900      101.65756797709828
H          110.13753647758581      100.02789688393932       99.80308162984412
H          109.93287996616759      101.10324554900519      101.18416770729384
C          109.28579295120655       99.25604082620377      103.07721692891782
H          109.30264187192823       98.12190994200989      101.24763987800155
H          110.86655500658414       98.79520586125075      101.69920374131624
C          109.38059663147452       98.01360384959077      103.95734106306203
N          110.74385305673042       97.71635240595691      104.35092117201606
H          108.80001105548088       98.14256918764322      104.87613375464602
H          108.96292362018956       97.15117386583903      103.42255304910363
C          111.04773859764940       97.07192880975238      105.47917104885313
H          111.49076662933538       98.01419558260002      103.73347007980571
O          106.03964332693263      103.45585652935351      100.15978598519160
C          112.52197549870243       96.81706697805663      105.70055566932491
C          113.11577686639939       97.91101769061416      106.59068716340082
H          112.63112737098865       95.85213004847519      106.19858441594729
H          113.05547824418605       96.78993988046253      104.75165005830715
C          114.53698029070782       97.55425525189612      107.01509604564410
H          113.12247936675470       98.85729393029619      106.04476660739323
H          112.48888362860706       98.03610360209335      107.47755333027497
C          115.21059264611081       98.72826339970963      107.72756474398187
H          114.51492719454656       96.68892103587076      107.68067654757139
H          115.12057850597107       97.28772606110252      106.13192074336739
C          114.46364831231112       99.10078326637291      108.98953963737880
H          116.22850905703841       98.44367109216965      108.00149212527187
H          115.23531652443771       99.58423574358734      107.05840487236833
N          113.86060363535837      100.29316004552186      108.97720393038711
C          113.11318928383098      100.74135526405442      110.13296800506332
H          113.86168521086266      100.85561226804543      108.13051136854159
H          109.85992984035762      100.06511791283600      103.53160496258263
H          108.23846654660188       99.55722167535083      103.04639185537665
O          110.20082372147426       96.72638093990109      106.30636773280816
O          114.41980433213105       98.36400342731228      109.97456723277874
C          112.88647462390463      102.24540512955147      110.17472733250415
H          112.14801045635573      100.21964574932313      110.17761640691731
H          113.69050141355746      100.42588807710240      111.00858350879605
C          112.11123897493722      102.59058687657165      111.44568826318924
H          113.84549063441965      102.76523183297087      110.15952453852854
H          112.31483779393120      102.55957493036827      109.30093211419528
C          111.95921747860091      104.08961511700831      111.67945667082547
H          111.12810380570443      102.12314327685776      111.37910382399858
H          112.61884279756570      102.15109088227921      112.30728726506044
C          111.14852755220839      104.38846306713245      112.94086120921371
H          112.95280357592266      104.53067238889412      111.77116771797074
H          111.45393194691614      104.54075170432260      110.82608456840813
C          109.65887118289211      104.14947625555352      112.69558239675345
H          111.48502372619157      103.75834383192256      113.76763051307103
H          111.28522094445391      105.42962184602921      113.23479465247320
N          108.87534836202158      104.34117306539815      113.89437959030276
H          109.30152378011965      104.85001296526447      111.93746938159200
H          109.50121727704862      103.12787192116247      112.34588445546187
C          108.09372180870194      105.40139888220521      114.09277388015744
H          108.89139316710401      103.58348458983080      114.56402738085491
C          107.38206130842529      105.45750314846687      115.43327257209864
C          106.60681765246650      104.19565634378266      115.81666082321966
H          108.14798839658930      105.63651709897239      116.19149425879517
H          106.70829418767140      106.31632684438453      115.42339437344300
C          105.99091997428134      104.35152164266836      117.20688237882715
H          105.82078378570885      104.00211430444232      115.08712479554036
H          107.27396203735820      103.33246071925788      115.82939874982324
C          105.45575313579640      103.02617447256978      117.75708687917175
H          106.76547358714264      104.71630041387850      117.88148323502747
H          105.18497173284477      105.08744464616231      117.18256507411282
C          105.10053980517046      103.14733033038110      119.23063826341897
H          104.57608217955972      102.69739193435944      117.20289137259522
H          106.22745958099696      102.26004747829319      117.65773547004409
N          106.15451730615102      103.40963133719004      120.00077937239922
C          106.13872513531152      103.59930392079748      121.43397230622602
H          107.06544378791286      103.50289734461292      119.56369276065973
O          107.99458385026875      106.30913540423683      113.26853565641687
C          107.47697992487534      103.14125036378910      122.00504601326170
H          105.98546487959322      104.66265357185756      121.65993422415032
H          105.29891514282338      103.03910508781793      121.85311153487042
C          107.68956088526565      103.57841282211021      123.45078416255301
H          107.54798389059721      102.05434054244118      121.93574149291682
H          108.25803579690704      103.56780905902905      121.37450339082309
C          109.04852018176607      103.13725148344155      124.00084568871112
H          107.60336576372738      104.66351520034351      123.52148912766268
H          106.90605415852379      103.14694926584110      124.07713299765088
C          110.25445765810362      103.65761885750931      123.21565763739630
H          109.12946727632145      103.47693500413580      125.03559086385759
H          109.09024700073104      102.04631017709549      124.00800149193368
C          110.30081032930119      105.17929121517172      123.15389585073629
H          111.16669360668706      103.30130782160725      123.69847076969204
H          110.24990309869364      103.25244596517652      122.20339604271446
N          111.56745857238310      105.64666108344578      122.62363828197127
H          109.50756430276120      105.56977663463023      122.51074199868577
H          110.15750719123989      105.59144853869678      124.16149135996103
O          103.95297336265658      103.02123612356257      119.65948565568921
C          111.68372258671405      106.79999799379961      121.96217267767460
H          112.35165096849303      105.00750125301630      122.69414293198575
C          113.07720580254177      107.14892867361220      121.48213824392865
C          113.38270770120928      106.41131105747775      120.17666608002958
H          113.11074450470588      108.22573676693511      121.31076568071722
H          113.80924867297230      106.87787280145390      122.24307754411745
C          114.68033253630011      106.88785632213596      119.53018374118847
H          113.45230154477940      105.34231739125501      120.38084063985688
H          112.55752546104044      106.56100227130089      119.47971906518370
C          115.02909656186446      106.04810543294698      118.29878151934447
H          114.58732491093104      107.93522295507606      119.23826826068697
H          115.49651121045827      106.80710133904161      120.25052719281034
C          113.96598538745474      106.17346770348782      117.22076168884361
H          115.98838451130301      106.37618957462035      117.89712666563233
H          115.10435345539912      104.99840265389173      118.58713365971374
N          114.03378677004950      107.29200210701565      116.50415158655952
O          110.72713072455778      107.54361644519692      121.74433092082765
C          113.21872666675335      107.56255462228259      115.33876443235178
H          114.77047441313260      107.97221616301451      116.68680653883875
C          114.10237338919676      108.05508997317931      114.19333896159341
H          112.70611531388276      106.63440981814804      115.07116149855125
H          112.47042390898891      108.31978375987549      115.58647389724412
C          113.36283093254976      108.09739334897210      112.85728871328328
H          114.48419648612631      109.04298711231377      114.45076618960950
H          114.95739552597301      107.38257203128879      114.10279099774266
C          112.24398364343129      109.13736457488869      112.81546297985271
H          114.07945775834698      108.32157543011725      112.06489873179216
H          112.94940975112037      107.10857663795743      112.65814309966476
C          111.51087595000442      109.14411763591049      111.47433310642151
H          111.52109015419612      108.93403093739782      113.60545494002956
H          112.66695212687065      110.12642195717039      112.99896539866265
C          110.72529845470453      107.85644716038252      111.25611955049169
H          110.80679433658948      109.97721479624882      111.44870921573153
H          112.22788375334696      109.27827948153747      110.66297466516727
N          109.86406224253417      107.96089887202633      110.09704410258163
H          111.38730381293981      107.00442899941552      111.09406183742429
H          110.10653764522054      107.64740329094477      112.13800763753417
C          109.46035970405192      106.90110231447720      109.41582242937159
H          109.43331759408541      108.87538524968816      109.92690200908756
O          113.10944480823866      105.30268920752262      117.03991427671581
C          108.37941670745084      107.14032208781583      108.39122073474520
C          107.01981093569562      106.84930321976810      109.04238485640673
H          108.39619428480211      108.16539922473474      108.02494497810954
H          108.51823111031818      106.45002832064640      107.55716522259526
C          106.71936544423272      107.78243432911766      110.21331277714283
H          106.24180290030789      106.95233005739964      108.28409000155096
H          107.01397168404517      105.81325314920612      109.39181513456273
C          105.41986257284185      107.37471280020671      110.90581922170978
H          107.53000997353860      107.72125194870409      110.93731243614967
H          106.65861197323369      108.81057206073604      109.85436386959113
C          105.07668135047710      108.24772696297467      112.09935094549223
H          104.58286115763086      107.41170168082579      110.20633984538016
H          105.53692290599646      106.34954116778154      111.25894426282413
N          106.03501306496491      108.33395332468166      113.01833134350251
C          105.97002182257967      109.16770857266701      114.19650704836543
H          106.83470658509879      107.70531254023716      112.97079609996146
O          109.90912337782656      105.76264288554955      109.63554778221558
C          107.37178526037962      109.66201889339514      114.55109948720737
H          105.27424718376568      109.98106590793191      113.99098572357130
H          105.56649042266393      108.59232097128982      115.04245581305476
C          108.05330695346939      110.51155635306253      113.47418452957437
H          107.32557169164888      110.22153377638482      115.48371455585794
H          107.98170335258422      108.77300902641616      114.72572990206746
C          107.69977969708923      111.99943226295339      113.48674849217949
H          109.13118265476821      110.44101206017412      113.63008919631811
H          107.83767615165721      110.09717701393147      112.48804365755178
C          106.26571148380700      112.30698471236889      113.05821658460199
H          107.89120217757196      112.40939866255820      114.47949276632150
H          108.38157589128987      112.49661561940485      112.79499199518430
C          106.08682387453328      113.74511689689356      112.57003313497134
H          105.98464600036168      111.64298652343547      112.23922575425819
H          105.57698290810004      112.13528081319365      113.88625702003044
N          106.20785086651443      114.70141489989234      113.64729802433487
H          106.84075422092602      113.98376798354626      111.81814163865121
H          105.09089574257207      113.83837442038102      112.12255256216777
C          107.01804165457298      115.75176937567353      113.67809673154052
H          105.58551911659666      114.56669280470943      114.44461575626113
O          103.98323599935944      108.80983546120937      112.20357549757287
C          106.93739206798483      116.55739600772510      114.95519441574376
C          105.65682402539389      117.39254221635500      115.02858586226023
H          106.96315667649984      115.87723291145299      115.80686578801803
H          107.79390528243400      117.22884265865358      115.00354378783258
C          105.69262475077151      118.26759177508931      116.27884503074844
H          105.57592482284302      118.02008467750316      114.13856067399162
H          104.78857945982368      116.73425831235573      115.06454475291928
C          104.47070221108945      119.17912390880647      116.40668843407650
H          105.73543500498904      117.62509348626543      117.15932929466608
H          106.59102971500940      118.88572484741459      116.26770595725493
C          104.26476791335787      119.99064292190454      115.14740813143231
H          103.57541354050581      118.58494629287325      116.58511267014704
H          104.62377186092307      119.86253390934058      117.24249927196881
N          105.18178055692890      120.93208012841471      114.93127305567899
O          107.78104585791591      116.06654417883217      112.75704675986512
C          105.14203116736770      121.79101178541751      113.76499916453872
H          105.92936748113036      121.06340269360537      115.60028081638053
C          106.41287585757675      122.61549415677146      113.61568978113424
H          104.98321463791584      121.16527825112215      112.88012959017331
H          104.27512656378416      122.45993875321163      113.84267964227355
C          106.43876754265210      123.81158136683021      114.56681706884888
H          107.28053936374856      121.97958775548803      113.79651532698853
H          106.44967461035814      122.96815289869232      112.58614571071347
C          107.62630358472860      124.75325799019963      114.34170901534239
H          105.51249901593313      124.37750248192724      114.44207289850988
H          106.46451193616033      123.45569218392156      115.59771269801631
C          107.76056424400126      125.18586147383316      112.88103238047204
H          107.47695881594318      125.63603932647510      114.96580862695950
H          108.54670885310858      124.27032175892370      114.66948228222076
C          108.55300180482186      126.47440884383148      112.68902030318337
H          108.23611503925700      124.39556685336402      112.29991310851938
H          106.76743433144625      125.35664362445847      112.46449213712775
N          108.58065137137972      126.81046710208093      111.27855806150630
H          108.08117050172469      127.28709995756074      113.25352921040465
H          109.58695251400583      126.38098471919496      113.03227287443765
C          109.58953944281123      127.44431215943933      110.67984150423476
H          107.75995967966170      126.54529877805597      110.74538504981476
O          103.31976716123800      119.78599002701820      114.38096056846526
C          109.42421419888315      127.66474144580089      109.18572387513713
C          109.07874074193819      126.37734358481448      108.43111234142575
H          108.63717314207504      128.40396033329083      109.02018294154752
H          110.36142545551115      128.08457813777036      108.81561144952848
C          109.36343964647764      126.48825674000511      106.93290805756303
H          109.66590479526170      125.54972714051442      108.83375446863582
H          108.02302433609736      126.15032337569920      108.58124208848383
C          110.85613212533843      126.41366931760174      106.62679234103388
H          108.86773176911052      125.67026250361805      106.40740384561651
H          108.95459149987977      127.41867704325412      106.53493547927886
C          111.15859931123056      126.40290137516291      105.13878512851112
H          111.39071287821575      127.25977937744234      107.06306916598844
H          111.27725756175661      125.50281451308487      107.05453980274615
N          112.45040219597524      126.15562517840657      104.87204848240430
C          112.97099529082040      125.99491579613567      103.53331723504601
H          113.10572002076601      126.06296836084999      105.63978718221051
O          110.59543706165634      127.82664446118801      111.27670576332416
C          113.99862940273931      124.86769718484804      103.49227137069886
H          112.12003170205753      125.77855229818800      102.88051448367433
H          113.42727555880927      126.93270455529387      103.18889538934428
C          114.44798477514333      124.54749710494414      102.06871460249022
H          114.86298143723525      125.16290773344235      104.09201110194464
H          113.57087388207518      123.97577731327218      103.95144303177112
C          115.53359542657719      123.47300728457351      102.07396772450028
H          113.59364731892282      124.20564340203865      101.48066464023238
H          114.81498368228867      125.46179954140230      101.60152821105370
C          116.19533706251143      123.22947834105027      100.71801658624619
H          116.30630976299595      123.74881588891122      102.79370195187376
H          115.08197695047990      122.53871039465496      102.41090175108629
C          117.05859198005402      124.39900481825498      100.24568469434554
H          116.83288514441311      122.34754537873364      100.79694925669092
H          115.43311375316617      123.03320580160836       99.96309163230130
N          118.14559914320704      124.63423489987083      101.17296007805693
H          117.46617730904318      124.16036607729851       99.25505290959504
H          116.44626891434562      125.29472460445436      100.15553176809131
C          118.75477704960382      125.78429880877918      101.46375661699157
H          118.54323893328579      123.79222422824421      101.58294238238823
O          110.31412612423721      126.58636233745528      104.26963311460318
C          118.23227993404143      127.05899438106549      100.82982288368132
C          117.10072714768155      127.65800850648995      101.67873358914891
H          119.06001743878006      127.76841303662394      100.78536363118378
H          117.88851930090385      126.86560815087989       99.81550481646288
C          117.62648719740666      128.33465253414352      102.94370731026630
H          116.55784097764109      128.39131405271041      101.07870401072445
H          116.39957325255804      126.87218899431338      101.96433728228290
C          116.47245003274458      128.79544473594692      103.84093396912191
H          118.26259933185091      127.63995984111656      103.49516115772414
H          118.24259707737930      129.19094719477965      102.66238291740433
C          116.96403892490254      129.67431392380331      104.97772584679070
H          115.74806787298508      129.35579601763027      103.24509023429756
H          115.96569093718449      127.92866326491995      104.26927518772560
N          117.32259388514187      130.91079805590235      104.59563236898538
O          119.70153417238387      125.82170452007384      102.25272560831608
C          117.67673789117703      131.96674070841385      105.51840355477263
H          117.17228893624093      131.18665819520263      103.63709602255216
C          116.62460429871078      133.08017041616597      105.52927095024801
H          117.76927947525502      131.50817645546545      106.50348051322524
H          118.64682210784557      132.38330015171647      105.23264625420255
C          115.21410725843839      132.57740957175903      105.84325831956720
H          116.91934449488249      133.82459691816166      106.26951708953341
H          116.61555801146922      133.56507208397221      104.55052650957008
C          115.05709944601935      132.08925276497675      107.28149679353795
H          114.50495971639441      133.38965515756192      105.66818342008509
H          114.95743626276301      131.76839596526412      105.15587751274181
C          113.66895484042006      131.51070113724572      107.56211379505132
H          115.80375453344560      131.32756406796571      107.50157008006195
H          115.23051844645829      132.92644040447064      107.96099102919564
C          113.45521775149248      130.09852664886211      107.00794486607042
H          113.51558001039380      131.47238795058374      108.64075297067949
H          112.90808791702935      132.16939885002310      107.13685875095476
N          114.26797241959399      129.12416299957428      107.72289656076860
H          112.40459913378636      129.82385458246043      107.15509219231308
H          113.63950503709474      130.09388613774843      105.91951261061307
H          114.04656709944427      128.18622466536763      107.40077785462501
H          115.24712499236711      129.26899863127244      107.49204088011152
O          117.05174434607046      129.28193482105661      106.13349128809949
C          129.70824305283352      108.45637577773455      102.09847484662967
C          129.17852457837648      107.14643302136815      102.63562608661765
C          129.18176188301922      109.66048836403243      102.89369010597166
C          129.73147069922248      109.71405932964009      104.31772195005240
H          129.47932762073296      110.56630793568854      102.36122209880538
H          128.09061750294282      109.62866223122487      102.91852680901201
C          129.49084413599630      111.07017464540777      104.98005841308544
H          129.26046268389484      108.93709627831208      104.92224825003215
H          130.80421949268356      109.51869439692709      104.29170293828301
C          128.04444565305036      111.28660802084676      105.39937368810011
H          130.09546461920090      111.13724179324389      105.88689614889849
H          129.79543972530612      111.88456688449337      104.32200457235653
N          127.71120521998253      112.56988368425444      105.54161589709442
O          129.91446272115715      106.64183171448886      103.59831572687581
O          128.16962575709942      106.61606249602356      102.21267330360759
H          129.57802955397361      105.74889082826850      103.92640099842556
H          129.38797873980351      108.54454350580784      101.05974491809752
H          130.79645954140187      108.43539456444189      102.14682335794996
C          126.38937418131340      113.04310291943194      105.88801058937689
H          128.39731385165064      113.29480780683780      105.33507437351065
C          125.90386591061940      114.12984873191425      104.93070950958121
H          125.70700409970237      112.18962594817924      105.88984980788949
H          126.41212656291043      113.45679311856399      106.90182670152743
C          125.33058645092004      113.59899183398639      103.61921695022548
H          125.14132580876415      114.70927938905051      105.45006566075868
H          126.73809453452893      114.80123626780153      104.72295845450643
C          126.38727053887368      112.94043441382865      102.73451390953063
H          124.53645139522091      112.88739704881201      103.85558131427591
H          124.88629360918071      114.43011680390283      103.06610819356058
C          125.85517098684933      112.53243170921519      101.35990258955231
H          127.20364375106334      113.65010844284849      102.58580394508979
H          126.80928549279533      112.07287747461855      103.24282906032188
C          124.71372595872272      111.51972094007901      101.41981558595327
H          125.49488449321997      113.42543636591641      100.84686746191227
H          126.67465376500334      112.10974033599977      100.77538040248409
N          125.09745784248113      110.31017663397709      102.11279741856846
H          123.84804606902948      111.96774951717275      101.91944607776992
H          124.41536145364131      111.22658202170298      100.41151443011348