3864
 energy: -5104.234353147766 gnorm: 0.000997563926 xtb: 6.6.1 (8d0f1dd)
C           45.47075488730323       31.12636977838211       45.21778254142373
C           46.49007240092219       30.38575017002527       44.63263986293304
C           47.17396430277181       30.94341929806898       43.55860193548300
C           46.82182210455562       32.18641933203754       43.06322574576170
C           45.79137042539439       32.90450395416533       43.64528145924244
C           45.12240866356935       32.37533552626459       44.73469688915190
C           46.81523497122402       29.00231731264348       45.14052650847218
C           46.79381615723950       27.98434710195085       43.99751265523163
C           48.17140018346095       28.97250541414175       45.86176814964101
C           48.11368707963774       29.63381368507445       47.24231868822256
C           47.12914100628463       28.95800271868369       48.16734057570729
C           46.23071699493126       29.72442225656588       48.89958258878439
C           45.34798242469402       29.14157299980195       49.79320412671563
C           45.34501827449634       27.76877776721760       49.96272750663402
C           46.23927075455881       26.99217074894496       49.24575000582792
C           47.12727751735106       27.58179697892703       48.36342399426402
C           49.49393030566149       29.62757879777622       47.92488992994329
C           50.45585321977933       30.72638374355930       47.44168157051730
C           51.86119292930432       30.36649983784058       47.85589068783025
C           52.86464481170428       30.22866265624100       46.90520967685640
C           54.15388641403013       29.88804598199667       47.27578149567235
C           54.45849791954392       29.66950714431755       48.60843160652878
C           53.46456558277246       29.79384624651535       49.56386654454477
C           52.17967064870546       30.14112033685272       49.19038339764300
C           50.05122448850185       32.09814513473808       47.99729560229471
C           50.96739627070616       33.24184973760784       47.53591670985264
C           51.03388341811213       33.34944600302058       46.03486935562838
C           52.25569257374563       33.24760871259812       45.38110898312896
C           52.34239610982202       33.38986928877826       44.00741396378537
C           51.20366782820791       33.64701877453984       43.26326534191595
C           49.98083843575039       33.74958285038788       43.90363545373845
C           49.89643827295007       33.59557328371657       45.27473119209364
C           50.46690831958767       34.56102139891029       48.14221531757189
C           51.27517911171776       35.79233052896638       47.71242742796451
C           52.72666818270677       35.69730998198048       48.10147061366648
C           53.10988631935783       35.52926902810002       49.42682633232410
C           54.44633008136548       35.50588599431964       49.78337774498688
C           55.42625398052078       35.64298949798539       48.81510724344761
C           55.05823419635916       35.79753478005365       47.48914081270016
C           53.71994302593786       35.82539223960472       47.13821936805320
C           50.63116090444635       37.04399041145813       48.32941138390618
C           51.39845562920482       38.34055727145540       48.05255815650173
C           51.71869086973097       38.53071589944504       46.58933999199104
C           50.73767607065275       38.41559160240001       45.61032499789818
C           51.03033033216266       38.67261076790803       44.28284260882717
C           52.30572302313739       39.06016965394365       43.90898345331374
C           53.29288599774937       39.17210805273509       44.87177863383136
C           52.99739587710318       38.90360164868574       46.19668445576247
C           50.59027656534612       39.57629598244113       48.48830348506621
C           50.20807266947058       39.67041924321065       49.97881485210823
C           48.76453129861098       40.08541520881593       50.11864983458971
C           48.30303931694969       41.23428126902672       49.48447215417413
C           47.00007528271346       41.65998203266465       49.66326154839414
C           46.12767492146122       40.92725345844828       50.44944859264290
C           46.57278647690342       39.77652584421146       51.07553448015469
C           47.88651379030451       39.36680749273000       50.91863788232472
C           51.06168934531434       40.69232366356380       50.75199682240145
C           52.39920535394374       40.13232278037117       51.26001131632734
C           52.13754926205079       39.15245637027281       52.37558849422759
C           51.61811507251049       39.57104353194292       53.59554318044959
C           51.35753420054900       38.65931290003345       54.60128042852335
C           51.60865819682869       37.31192559771790       54.40349170585103
C           52.12850967508128       36.88172403531739       53.19560826496107
C           52.39144886466006       37.79962500951750       52.19295278675126
C           53.33473978007839       41.27227213062250       51.71416032040047
C           54.47456586038797       41.57084026250553       50.72284453510853
C           55.32662534000782       42.67942710962679       51.28892417875692
C           54.93164245238764       44.01139806522403       51.23047331790340
C           55.72920460959001       45.00981834708534       51.76059055665120
C           56.91992224042481       44.69118242037279       52.39054514064266
C           57.31291713724543       43.36720275083096       52.47728870610995
C           56.52590433527130       42.37441809216063       51.92083738209499
C           53.93281009562563       41.89332599840327       49.32535698274646
C           54.98163820062535       42.41751978969111       48.33228600810843
C           56.27665911962870       41.65160883558411       48.38133930075622
C           56.30398692008462       40.26392117058485       48.30384269117843
C           57.49984304440212       39.57148643071513       48.33739583883499
C           58.69745442416238       40.25865531063484       48.44276023257867
C           58.68545121473108       41.64060485448090       48.51622234811431
C           57.48494717113361       42.32805496775767       48.48875719418366
C           54.38349155907652       42.37204048030983       46.91345476786032
C           55.01806873489898       43.38437177993315       45.94880117061400
C           54.78428162578032       42.97236410420140       44.51752765038146
C           55.85574695933795       42.78995023101943       43.65190148289441
C           55.65178850954108       42.41578764346451       42.33489027417780
C           54.36688610962273       42.20038512039261       41.86694020536711
C           53.29184276867383       42.37201622245303       42.72180426255430
C           53.49891944286849       42.76340328174359       44.03098442753331
C           54.44414655279144       44.78254526472838       46.21126191770062
C           55.12085534526476       45.88672353425381       45.39159162959690
C           56.61566111552695       45.86968065572265       45.58378033296992
C           57.46246006600790       45.77489498024116       44.48679232095313
C           58.83588189648601       45.73962091354235       44.64970086215593
C           59.39017212589824       45.81751691699871       45.91491991644709
C           58.55695755171490       45.91870524677571       47.01578635960191
C           57.18384006856890       45.93974161878776       46.85100967950024
C           54.53687666727676       47.25842128436148       45.77649178086569
C           53.17885746634558       47.52852756197960       45.10108646924899
C           52.27348140217416       48.33242798678378       46.00016518920221
C           52.65614463963918       49.57857106496136       46.48232270098029
C           51.81606456781692       50.30417601163688       47.30927121598118
C           50.57651437744488       49.79895827482754       47.66339742606526
C           50.18457906723148       48.56139934782812       47.18516495608154
C           51.02825505157299       47.83419791169828       46.36423759555711
C           53.38102063735555       48.23641986388081       43.75496885309132
C           52.07838542193547       48.35447086619497       42.96022507151953
C           51.57230330598212       47.00589152083062       42.50601744797746
C           50.28931225360856       46.59335149000246       42.84086687168771
C           49.78005291943420       45.38783476819098       42.39247663580012
C           50.54722989941236       44.57570774107779       41.57640245261501
C           51.82914953968299       44.97201272003903       41.23475349036740
C           52.33951515823580       46.16994501942244       41.70210131361977
C           52.24149513833952       49.25211227000006       41.72215654092759
C           52.36676829843489       50.76058519110423       41.99638550492004
C           52.63061305562685       51.47669991500982       40.69187538788167
C           53.77377829147854       52.24870285114856       40.52982298128521
C           54.01732016367706       52.91865496038682       39.34292615229798
C           53.11508901193962       52.83336908965652       38.29717145701653
C           51.97106456323821       52.06715202036891       38.44118614110180
C           51.73735319183912       51.39432249410858       39.62765661039547
C           51.10576408309448       51.32273198683777       42.67013871555578
C           51.13028694146627       52.85192526046383       42.78139444611225
C           52.20927246256080       53.34099615559885       43.71610766721334
C           53.17738931896248       54.22891914015939       43.26272338598075
C           54.12207558419557       54.75648078770930       44.12652632538733
C           54.10644295402527       54.40243081027104       45.46338152090240
C           53.16403341367041       53.50028912012925       45.92293070728925
C           52.22330705893739       52.97501249302042       45.05701814669748
C           49.78163490945776       53.41888614721776       43.25636959104946
C           48.58673290478266       53.12776477896328       42.33547211634074
C           47.35099911470189       53.77190893001654       42.91107447695332
C           46.30921052280909       52.98312517815506       43.37978631520107
C           45.16100578047122       53.55555529575933       43.89669876577866
C           45.04146339832576       54.93120572052096       43.95089559038500
C           46.07655333596984       55.72854583131949       43.49720037992147
C           47.22322550446235       55.15416167726257       42.98302612299254
C           48.84960922595263       53.60387848095757       40.90104293981218
C           47.62043280268528       53.48350548498854       39.98955823419507
C           46.96400732035954       52.13125838968038       40.11657316614167
C           45.62631526644638       52.03963580170159       40.47666348248617
C           45.01204406231393       50.80965386025210       40.62898289484749
C           45.73210734924242       49.64629327791847       40.42543454055203
C           47.06082879209752       49.72118579971020       40.04176549026684
C           47.66752481268397       50.95455415195194       39.88671756297407
C           48.00327996230731       53.72637063186886       38.52149608253617
C           48.46267553510449       55.15790648740401       38.19061671303614
H           46.04351388679537       28.70685940310604       45.86109874502870
H           48.49169849759382       27.93433444904748       45.96645070958949
H           48.91711832386741       29.48416607552112       45.24991439507695
H           47.79090376029221       30.67028420190180       47.10353175280606
H           49.35410535339788       29.73832087655363       49.00141776700365
H           49.96034221377343       28.65273439785496       47.76172121430583
H           50.42416631200302       30.77761775011918       46.34812621954422
H           49.02927436945583       32.31845499543713       47.68680431256575
H           50.06153454646034       32.05986936423777       49.08871731471592
H           51.98156962064913       33.04640024880275       47.90497103511883
H           50.48104242495068       34.47181761298716       49.23018854925616
H           51.22176814129776       35.87612094469553       46.62144614617938
H           49.61273709364955       37.13306335420241       47.94819956619604
H           50.57439818562429       36.90037192462560       49.40954109648775
H           52.34360463714484       38.30597371496938       48.60664914163083
H           51.16240286243326       40.46321043903217       48.20995342796595
H           49.67859999317919       39.58576844450684       47.88692818495841
H           50.33395528082347       38.69748031609590       50.46065188829714
H           51.24023356901478       41.56075567781804       50.11832392761027
H           50.49071289164104       41.03427996210757       51.61937399586475
H           52.88610196132593       39.58334471605724       50.44918922454249
H           55.10093365340754       40.67347071231165       50.64999314629916
H           53.48397692862948       40.99014889096474       48.91076744280409
H           53.14551823143057       42.64559801334097       49.40527567682998
H           55.20918014452386       43.45528638106916       48.59218907070759
H           54.50492891293892       41.36549020995017       46.50889534719710
H           53.31327877333650       42.57388627316665       46.97541499895478
H           56.09920103314306       43.40155869086891       46.12783777422266
H           53.37750062953037       44.77406072925525       45.98007014705512
H           54.54934862896186       45.01177408495327       47.27272307646278
H           54.91709692149509       45.70108164275598       44.33066214178898
H           54.42105219513696       47.29474637435390       46.86200974770340
H           55.24340388534490       48.04431621058614       45.49884035739009
H           52.69070583780615       46.56811745061992       44.90211496160588
H           53.78418825234126       49.23498247086160       43.93146531637321
H           54.11436248207217       47.67938900362660       43.16901744692172
H           51.31974557623953       48.79286944462876       43.61497368319703
H           53.12694920477666       48.92700743843679       41.17049772275014
H           51.37644548441430       49.08671137990443       41.07469402703916
H           53.22357720631678       50.93878893297978       42.65468882509816
H           50.23669905633619       51.01961465816120       42.08535565821480
H           51.00442039210021       50.89362417852622       43.66763603648130
H           51.34274694878140       53.26612161824044       41.79165960183917
H           49.55089544280320       53.02410042079568       44.24818037368447
H           49.88955056484303       54.50165521113245       43.35500250411553
H           48.40960008883916       52.04805209297732       42.31569149799697
H           49.17307437757986       54.64558923973590       40.92681431853091
H           49.66200949923930       53.01635026209283       40.47127386107732
H           44.93759422358047       30.70582604682649       46.05784167949420
H           44.31916170064820       32.93573430342240       45.19121865115477
H           45.50032453459654       33.86713881591942       43.25034502565776
H           47.34822809414284       32.58810346328743       42.20845036464186
H           47.98227398912159       30.40056387668158       43.09070012670242
H           46.22863628328653       30.79636073114761       48.76092609431477
H           44.64988472031977       29.75563015344337       50.34421049707252
H           44.64887266604548       27.30109338560427       50.64460231298919
H           46.24631148099815       25.91907510298027       49.37631771537738
H           47.82524986994877       26.95740590810598       47.82611443593545
H           52.63467887510249       30.39221905957076       45.86109584654267
H           54.92238224962286       29.78897825535053       46.52177057121860
H           55.46404471171760       29.40025048536417       48.89897856169757
H           53.68833015723752       29.62082676940264       50.60664554896010
H           51.42087127360437       30.22468933329274       49.95288257859667
H           53.15160076992670       33.06043120795858       45.95777075500666
H           53.30264688801991       33.30691771739613       43.51698187871877
H           51.27137495873318       33.76899048827629       42.19141732455729
H           49.08719795079227       33.95442404807864       43.33327481237408
H           48.93187294296033       33.67863078867653       45.75126644248178
H           49.43030743347247       34.71909496598780       47.83953137811619
H           52.35940847325993       35.41493298034274       50.19460398814482
H           54.72446013333916       35.38192463819639       50.82081973682056
H           56.47129593817174       35.62714961151947       49.09236121547597
H           55.81655523752165       35.90264649014534       46.72511752352965
H           53.44123155616131       35.95406161186739       46.10104441463137
H           49.73440661117620       38.12276328245654       45.88016921036644
H           50.25891774403496       38.57440573658184       43.53137873860606
H           52.53237529209942       39.27079224799375       42.87384467314850
H           54.29274444596290       39.47253870507360       44.58838006289464
H           53.77970444331238       38.97651531701894       46.93951223473436
H           48.96593919783769       41.79794101425671       48.84385025641895
H           46.67092645767693       42.57488907459414       49.19393993578578
H           45.10354708093583       41.24647251048213       50.57145587765287
H           45.89320451907048       39.20477595041176       51.69133563141530
H           48.24019318444076       38.47786126456632       51.42388149432703
H           51.42716905113448       40.62121940354737       53.76437652106605
H           50.96665964213397       38.99662202199609       55.54985458143337
H           51.41443761978506       36.60549569874809       55.19640942008062
H           52.33695051886495       35.83157134884798       53.03394480569153
H           52.81024839619383       37.46147590280891       51.25539501395831
H           52.75959896749231       42.18713520000587       51.86662387670955
H           53.78776193475064       41.01072394749993       52.67403107490031
H           53.99262292453397       44.27866810089147       50.76810633690806
H           55.42509163423544       46.04326729992179       51.68114688462828
H           57.53980796250717       45.46942748640629       52.81226166374574
H           58.23800301255109       43.10794851470346       52.97453220246745
H           56.85185643107476       41.34340134130120       51.97385564768024
H           55.38139038115128       39.70807580740502       48.22199911082553
H           57.49699518214595       38.49155742023997       48.28148769956838
H           59.63388119509793       39.71911418388832       48.46799455730755
H           59.61570294337029       42.18514102807790       48.59769120334020
H           57.49030774826640       43.40709690513004       48.55339776623217
H           56.86379354509884       42.94629446843301       44.01280349990609
H           56.49818666003740       42.29198204389130       41.67284571864565
H           54.20888807707751       41.89921343857769       40.83997467803702
H           52.28368223543198       42.20591272196872       42.37154521164420
H           52.64416789246359       42.90098521226454       44.67481320210021
H           57.04503208083021       45.70930868850466       43.49078139161044
H           59.47369432100747       45.64209260001257       43.78351039533644
H           60.46335060852603       45.79998930858300       46.04306432486730
H           58.98245311340772       45.97288340840353       48.00825093496094
H           56.54902947379598       46.00394709041992       47.72252548555365
H           53.61776910911390       49.99137906308632       46.21294103585768
H           52.13097347548112       51.26948317461555       47.67672614907298
H           49.91755370072860       50.36342389925356       48.30745279169746
H           49.21265825207148       48.17000590262106       47.44773030270521
H           50.72112210143040       46.86506300177100       45.99513103238061
H           49.67981898318209       47.23600310391643       43.46031136693009
H           48.78332585700629       45.08364375163529       42.67763418431084
H           50.14833277619196       43.64377126860067       41.20071246249107
H           52.43606584824631       44.34601730427467       40.59518225926691
H           53.34442951056562       46.45574636562060       41.42405860333249
H           54.48141960608492       52.32451309906375       41.34295658563718
H           54.91645124070914       53.50941903283827       39.23313658855822
H           53.30023263192025       53.35803031976445       37.37089637051702
H           51.26536615132125       51.98915668293498       37.62443276196174
H           50.84793277381887       50.78824249374946       39.71920523756891
H           53.18147412765737       54.51784632437042       42.22013237291326
H           54.86066455700352       55.45502113419845       43.75747528996030
H           54.82333234596318       54.81848248678106       46.15359795675206
H           53.16493974504275       53.22144565724669       46.96600877752030
H           51.48869345019092       52.27840144189780       45.43353758232033
H           46.39419280736200       51.90637724657174       43.33551974438983
H           44.36205443767282       52.92180924378758       44.25131050486536
H           44.14907603890695       55.39682571238291       44.34102249379558
H           45.97698714926851       56.80193010276128       43.53683552464101
H           48.02201562984146       55.79197861221220       42.63110962913102
H           48.70509063523095       51.00218414687926       39.59087337170101
H           47.62503696308193       48.81577667913881       39.86240590868762
H           45.26156213708359       48.68537869368862       40.56969991456624
H           43.96980992336984       50.76634085282044       40.91056291738785
H           45.05654336659977       52.93967464395554       40.65441751985941
H           47.63257427828252       28.13285736938550       43.32171973338978
H           46.85133521197169       26.97401947015543       44.39690556609452
H           45.87226106794811       28.07436506340458       43.42608687254763
H           46.88292376783060       54.23076846363016       40.29605583361357
H           48.81096226888444       53.04005228473125       38.25455997858575
H           47.14630834180608       53.48577984305385       37.88674441736271
C           47.32443030945916       56.16508701932911       38.38492925718961
C           48.99048766639849       55.14856150261500       36.77674327183639
C           48.13368892086493       55.08757674213128       35.68311763101243
C           48.63056674421828       55.03612595461398       34.39452011952632
C           49.99603481294596       55.04169451563374       34.17096309867858
C           50.85855797338963       55.09574888802346       35.25104451224564
C           50.35984102885156       55.14470241735060       36.54071870187051
H           47.06484836883993       55.07191946424919       35.82932955167271
H           47.94415019950404       54.99145433418721       33.56232438217533
H           50.38430197104196       55.00193620695469       33.16248774707955
H           51.92561081804965       55.09761067919488       35.08047945357221
H           51.04546045876986       55.17080790927034       37.37690661762430
C           47.67208750291650       57.57443563803033       37.89017124199437
H           46.43875452217047       55.80737727893376       37.85755907493543
H           47.07140338391338       56.22329798938844       39.44522551172550
C           46.45314054886076       58.45061398379973       37.91230656393248
C           46.34351714407836       59.53500881818259       38.77285249305066
C           45.19512058393069       60.30958369784128       38.79467094300472
C           44.13493669087038       60.00326386646930       37.95962664937640
C           44.23549287603630       58.92701484095017       37.09442727609531
C           45.38717580374251       58.16414123592627       37.06640308489072
H           47.17236323473837       59.78470301006543       39.42194606891277
H           45.12386382283025       61.15824284118624       39.45872645931341
H           43.24325160874280       60.61346977486916       37.97149988144228
H           43.41467542689411       58.68602637710006       36.43551570952653
H           45.46733018976394       57.33531096989820       36.37612717478357
H           49.28963530040100       55.42712743701689       38.85520226665082
H           48.45780226040830       58.00321623243340       38.51513877416269
H           48.05609654760299       57.51409038336761       36.86758206236046
C           45.75377854866594       72.10614866947887       35.39271336779692
C           44.83737525048473       71.42529996881335       34.60130034166993
C           45.28848829789319       70.35823639006446       33.83225204957473
C           46.61899193836210       69.98101808761707       33.85748982026085
C           47.52211581523498       70.66915048462693       34.64981968095789
C           47.08634375755525       71.73360471861551       35.41932591798636
C           43.39190734705873       71.85441782828269       34.57535143991924
C           43.05629526047477       72.47545313812108       33.21616969021927
C           42.44036369463576       70.68895013291471       34.87685556944088
C           42.79608407694072       69.95553584046242       36.17739248696893
C           42.84817145770835       70.91999180232108       37.33755506157616
C           41.72790982398165       71.64792919465474       37.72249423493660
C           41.79524375402028       72.55273055296922       38.76716499612100
C           42.98543270024591       72.74410834960523       39.44848815465490
C           44.10535556708389       72.02020093022716       39.08015178915055
C           44.03310459448337       71.11486360151297       38.03663061875363
C           41.80627430711731       68.81808535462638       36.47532482518508
C           41.88497572525149       67.62583827577406       35.50339457784113
C           40.64526568063354       66.78618159175124       35.68646926873726
C           39.62085079696500       66.85052196199247       34.74899275627989
C           38.45708305358433       66.11985654222509       34.91203897988667
C           38.29638374343682       65.31286442151023       36.02524975196359
C           39.30634788925014       65.24807789394818       36.96849628650537
C           40.46902029832248       65.97769039993146       36.80227849597716
C           43.17095108787235       66.81495328441152       35.69150575864941
C           43.30669006544866       65.66583878976837       34.67956998361574
C           43.35632802773492       66.23074065409949       33.28320605890490
C           44.47537805236451       66.92687335558973       32.83957652264387
C           44.51459117363085       67.46898161206227       31.56813842467463
C           43.42733805499939       67.33724737960023       30.72080025810612
C           42.30603115284956       66.65000455981614       31.15296803069667
C           42.27609595003233       66.09633394972025       32.42101124480746
C           44.56003887983230       64.82138340170044       34.98666358622324
C           44.24207040924762       63.44936036977273       35.59274462925167
C           43.49161980997718       63.54689176042140       36.89692208306688
C           44.04968628291501       64.16292377608583       38.01181507320987
C           43.38019155395111       64.17524040449439       39.22261587787193
C           42.14278501221405       63.56597459966937       39.34495201373927
C           41.57142085025449       62.96063825678263       38.23972885131896
C           42.23982128502708       62.95840318660331       37.02775772906715
C           45.53266425952015       62.63534350879652       35.81224150865973
C           46.05365726955141       61.97922749090703       34.52674618140984
C           47.51624920808017       61.62419971457044       34.61734411267628
C           48.37407363109993       61.89185270086990       33.55858746655122
C           49.69337057772544       61.47633234216400       33.58968814211303
C           50.18395815533555       60.80990021064415       34.69814040625508
C           49.34668118093814       60.56059378366500       35.77185408980947
C           48.02303884045813       60.95599138538262       35.72654838992751
C           45.26468021613741       60.70000647380273       34.19421515783701
C           45.35980036898947       60.36390377095440       32.70198204792375
C           44.63696436838106       61.41629567671445       31.89661224433664
C           43.26562005704223       61.60645937572794       32.02952025348034
C           42.61285122596703       62.58889907664062       31.30794673702825
C           43.31932184418713       63.40361642731800       30.44006535466352
C           44.68288732875394       63.22164178537606       30.29360936178821
C           45.33144610665850       62.23272422754687       31.01262361420179
C           44.80077792709011       58.97343340840997       32.36583875727267
C           45.71056677963738       57.80961879950205       32.78847886216440
C           47.14021022392783       58.02027760115767       32.35717689879878
C           47.47338995021716       58.12867607844729       31.01077215867983
C           48.79278685174731       58.25729984789820       30.61774313793588