3864
 energy: -5104.086585817157 gnorm: 0.000993462890 xtb: 6.6.1 (8d0f1dd)
C           45.51176846215881       31.14952156659030       45.26318580275093
C           46.49822219014712       30.39437683994080       44.64124601146209
C           47.14873017157117       30.94166894038853       43.54165021857440
C           46.79271905424221       32.18729366606564       43.05583301279676
C           45.79382017589235       32.91950753557992       43.67383373319917
C           45.16126558846145       32.40166518172567       44.79008195606072
C           46.82457651473261       29.00894385362141       45.14289187800259
C           46.80718544196191       27.99139128222877       43.99997486328204
C           48.18034540953366       28.98238231036986       45.86550281857460
C           48.11745292677659       29.63959440379545       47.24768128502156
C           47.12492892458504       28.96647240086970       48.16595786725916
C           46.24250684496584       29.73847011752312       48.91199795694857
C           45.35013341037891       29.15872591838969       49.79824563133960
C           45.32050278605663       27.78381262909229       49.94623702210592
C           46.19832727516226       27.00175232247737       49.21525408224356
C           47.09643342969861       27.58775833738468       48.34115249843315
C           49.49452340612861       29.62987727356662       47.93718391106668
C           50.45613633516462       30.73058697695654       47.45940426866500
C           51.86432924853455       30.38159446786702       47.87465273699840
C           52.87576162352441       30.28796990529615       46.92732150344971
C           54.16982329870689       29.96933595130965       47.29983630028683
C           54.47044514416293       29.72870045375717       48.62934730920443
C           53.46824689953385       29.80769539058750       49.58064680219923
C           52.17804458545294       30.13407556761965       49.20603287736682
C           50.04799090738997       32.10071537435417       48.01752626806154
C           50.95481101467212       33.24742631756608       47.54600903483979
C           51.02223552531164       33.34570531111932       46.04414004104977
C           52.25047205608318       33.28637285116689       45.39724390877067
C           52.33706998521110       33.42344562223332       44.02326584652319
C           51.19236838212467       33.63047919144707       43.27300180551624
C           49.96342755428973       33.68947325518113       43.90666851925760
C           49.87907009552688       33.54257280072198       45.27874732886547
C           50.44453679128340       34.56865785273624       48.13944146837842
C           51.25590371761199       35.79876873714479       47.71179253743341
C           52.70552420285229       35.70905779715368       48.11096881162653
C           53.07862079739546       35.53735200238844       49.43855947631163
C           54.41275469537405       35.52161529964628       49.80514224049401
C           55.39817949442396       35.67365125940479       48.84493812930796
C           55.03944100160778       35.83331702005177       47.51718450630032
C           53.70399562772059       35.85088977190728       47.15514812943066
C           50.60804743225496       37.05143879508641       48.32284193688686
C           51.38314499609876       38.34543940110596       48.05628278826327
C           51.71373567979297       38.54462318511821       46.59582339268884
C           50.74020302563777       38.43333528875532       45.60927587566709
C           51.04248562882015       38.70172705680344       44.28592056700705
C           52.31943895493669       39.09630312273708       43.92549758689244
C           53.29932392987640       39.20303980558218       44.89620625255594
C           52.99468393173987       38.92372021292230       46.21675980962641
C           50.57795380541405       39.58225310467724       48.49361321111853
C           50.19416326096477       39.67600615692822       49.98371231610608
C           48.75264984901797       40.09657802444428       50.12391744516076
C           48.29027253696591       41.23427678015668       49.47024935315279
C           46.98832507662006       41.66450274347029       49.64479367045006
C           46.11830610908945       40.94957873203963       50.44963505339693
C           46.56552393494925       39.81296294952435       51.09973802580605
C           47.87753613672051       39.39747564035061       50.94458526846585
C           51.04876631857856       40.69616220251594       50.75887844625457
C           52.38772245439590       40.13539704720018       51.26187051415693
C           52.13038710721984       39.15311151882498       52.37685833562900
C           51.60690252969698       39.56897670514581       53.59600698772568
C           51.35713727325521       38.65604796028553       54.60365865458871
C           51.62369076449357       37.31135300490536       54.40781752438437
C           52.14469964558969       36.88404269395058       53.19943750949866
C           52.39683379232677       37.80268520451967       52.19482835870250
C           53.32454936463196       41.27477872421237       51.71531355073339
C           54.45905184369575       41.57839847680169       50.71967631016184
C           55.31065037108741       42.69007677231909       51.28158706367565
C           54.91567944279587       44.02160445688671       51.21570118095570
C           55.71712088217608       45.02298709245750       51.73508910848761
C           56.90940897886210       44.70729593704403       52.36359205490711
C           57.30059869880304       43.38344117990808       52.45949662708280
C           56.51143817985515       42.38777517228932       51.91195383577289
C           53.91221242875339       41.89877546520465       49.32341297330576
C           54.95626297258217       42.43662761267354       48.33208011544266
C           56.26278148335206       41.68997616362144       48.38853187323253
C           56.31143163417202       40.30379582581171       48.30078043137092
C           57.51801751760564       39.63077879830649       48.34566227523474
C           58.70222605986675       40.33674604600556       48.47250543259356
C           58.66791341788737       41.71746388723730       48.55630666405946
C           57.45729131309771       42.38612260287491       48.51764202394781
C           54.36194465202306       42.38391404995423       46.91234111528847
C           54.98580429303559       43.40538461187315       45.95106178541425
C           54.75213253198780       43.00303431420650       44.51650443767875
C           55.82303414542390       42.84993727858941       43.64464519128793
C           55.61923048691086       42.48787055699997       42.32436259724423
C           54.33631535816616       42.25344298555721       41.86038135138570
C           53.26213743171433       42.39577056530475       42.72165963239879
C           53.46817705963937       42.77772804404736       44.03403934681715
C           54.40140559865861       44.79773830456418       46.22203151477511
C           55.08002078293093       45.91156886566491       45.41707146404671
C           56.57443339993470       45.89766126094199       45.61782520100717
C           57.42615805212609       45.81620155872523       44.52370036321348
C           58.79870880415535       45.78099244439211       44.69365986204534
C           59.34592256151227       45.84420338239652       45.96268852934067
C           58.50733156838392       45.93118820918173       47.06052161147650
C           57.13475339518763       45.95401082897245       46.88905343230189
C           54.49031570165569       47.27807009893425       45.81037517064171
C           53.13389092642664       47.54870918256250       45.13275026846681
C           52.23206447322134       48.36238202263227       46.02601862971710
C           52.62167620930732       49.60816621780236       46.50375982967950
C           51.78363243996247       50.34376853771057       47.32393832398736
C           50.53876656090160       49.84964242317354       47.67516001255572
C           50.14022372461893       48.61202279377287       47.20239310854182
C           50.98216404245442       47.87458647540043       46.38892323391197
C           53.33814680816784       48.24789014034035       43.78241849183632
C           52.03632522055087       48.36031445321144       42.98544895891172
C           51.53173107320502       47.00861336418274       42.53729050113525
C           50.24708659823641       46.60023588600841       42.87008950969470
C           49.73880783493416       45.39186358016364       42.42782345314478
C           50.50669635891505       44.57606988806300       41.61630600352464
C           51.78972516072758       44.96945680321382       41.27585174466164
C           52.30120990915341       46.16759401377359       41.74110408730343
C           52.19969341354508       49.25195445777088       41.74315094028045
C           52.33954881554032       50.76003904435849       42.01099979513627
C           52.59088735843577       51.47650996617717       40.70365503545433
C           53.72546531814999       52.26057095522505       40.53858906603406
C           53.95525199185412       52.93781761977223       39.35299965741520
C           53.04862030571277       52.84547441042987       38.31177525489860
C           51.91446569217926       52.06528859942068       38.45806123082639
C           51.69303021105681       51.38713149438098       39.64395495360029
C           51.09010284294259       51.33034500676708       42.69988360535889
C           51.12117274865180       52.85970946069028       42.80715106709829
C           52.21003815742546       53.34928594713546       43.72984735091925
C           53.17489827549645       54.23497473016659       43.26514213044699
C           54.12674532136540       54.76429095405054       44.11991202176442
C           54.12084170610839       54.41476241149498       45.45805975638089
C           53.18180327087048       53.51464276668614       45.92848537139845
C           52.23400850045773       52.98737114280018       45.07157026190314
C           49.77851051256413       53.43006663217965       43.29497782830043
C           48.57799020973812       53.14275578740666       42.38033042305769
C           47.34479390100346       53.78526743364050       42.96291187293480
C           46.29926870335802       52.99407790553175       43.41964399012356
C           45.15098635796453       53.56453527195629       43.93849277823492
C           45.03673052123118       54.93967045006248       44.00867232515140
C           46.07665458334319       55.73889564480528       43.56967739115472
C           47.22243660525310       55.16694210760367       43.05086255616465
C           48.83648692117752       53.62317048246478       40.94653672535267
C           47.60506868404375       53.51034856123437       40.03689787756566
C           46.93629866394248       52.16484425327815       40.17209918687656
C           45.59940173061964       52.08906939820159       40.53846475158304
C           44.97440757670056       50.86625367016600       40.70414750514567
C           45.68266016155546       49.69467339332364       40.50674873197583
C           47.01032098508180       49.75394661123696       40.11627746150231
C           47.62817599107400       50.98006568037508       39.94866487590846
C           47.99287902492528       53.74494903113107       38.56897746728979
C           48.46622991842221       55.17130011843469       38.23616555996042
H           46.05325434579803       28.71200280822552       45.86309290231324
H           48.50559095469279       27.94582700454783       45.96814420221254
H           48.92385162176350       29.50085851162201       45.25679731087870
H           47.79783208762630       30.67779586210882       47.11054861962612
H           49.34907706312446       29.73808515220002       49.01344965394891
H           49.96154708379849       28.65582094108264       47.77333310684839
H           50.42394246384969       30.78596652336687       46.36627050244013
H           49.02080873751465       32.31711547072685       47.71912493362993
H           50.06753553445704       32.06383873722145       49.10953022650724
H           51.96900889177524       33.06415607606828       47.91936073438573
H           50.44428459212675       34.48671397035480       49.22874544838218
H           51.20640507078608       35.88111291965075       46.62090258870859
H           49.59301160068564       37.14526710610703       47.93265024617303
H           50.53794609355860       36.90741765743167       49.40277074225913
H           52.32319202877800       38.30477151940752       48.61774560808418
H           51.15180308855238       40.46941395200886       48.21851755682437
H           49.66611594520160       39.59587598050916       47.89200350365632
H           50.31638893540777       38.70273715058202       50.46584838107631
H           51.22294223784602       41.56759622076061       50.12738671695674
H           50.47784837477234       41.03530984649689       51.62776253042692
H           52.87084562637428       39.58903353686593       50.44756205013153
H           55.08696217057417       40.68361438972212       50.64300259319536
H           53.47166485143910       40.99239892713871       48.90624970094160
H           53.11525640270690       42.64218764496736       49.40471160056207
H           55.16549958007813       43.47801493710966       48.59363012591340
H           54.49810791604113       41.38024314380080       46.50678925923081
H           53.28837878654703       42.57188809639359       46.97200321148798
H           56.06602495535611       43.43168310248351       46.13025035577918
H           53.33573109301972       44.78606237916792       45.98339334210293
H           54.49477199947323       45.02089316616092       47.28654346116821
H           54.88105203112298       45.73553598816149       44.35384678490382
H           54.36815227530997       47.30666581116861       46.89590580059084
H           55.19391443709213       48.07007776035521       45.54172958534786
H           52.64071997031130       46.58968651299348       44.94080762684427
H           53.74127057261362       49.24746310179146       43.95401721378278
H           54.07135585542726       47.68660535882154       43.20129957486575
H           51.27618556876304       48.80137286313924       43.63727765784995
H           53.07900637090763       48.91803017691563       41.18800563987197
H           51.32827287642714       49.09131861864105       41.10313991406381
H           53.20450682072473       50.93483600365080       42.65949025407367
H           50.21203627931064       51.02940128241165       42.12715965008496
H           50.99879099564159       50.90521749866217       43.70026480996486
H           51.32451674069542       53.27167126369455       41.81498155840443
H           49.55416616440620       53.03365616882366       44.28773024237608
H           49.88978195624164       54.51231584684522       43.39541980274615
H           48.39936321707153       52.06363157484674       42.35852246736539
H           49.16364565019984       54.66376790624583       40.97625499280621
H           49.64520147499859       53.03359523087884       40.51273584279271
H           45.00634609188773       30.73808978999147       46.12518786504242
H           44.38297630040377       32.97310005829823       45.27553898958055
H           45.49704796286058       33.88377500475788       43.28778871184272
H           47.28958082442162       32.57985139812178       42.17992407504902
H           47.93271036522507       30.38802869030913       43.04694323135092
H           46.25967566671740       30.81316250911525       48.78988822268681
H           44.66462258894637       29.77875003587343       50.35960984957628
H           44.61576660710180       27.32130127137071       50.62235513074529
H           46.18347491711685       25.92763487488913       49.32859725983161
H           47.78105073769436       26.95973342155404       47.79220468061452
H           52.64683612257612       30.46952446590547       45.88632180814064
H           54.94451941746360       29.90523431650618       46.54913160077733
H           55.47958712472602       29.47696978216521       48.92128809616998
H           53.68764526235930       29.61664959981390       50.62078397877242
H           51.41163667856694       30.18543429361657       49.96407780388740
H           53.14833769027930       33.13708128038274       45.98055492649407
H           53.30131291712765       33.37478140439784       43.53786307316854
H           51.25863285279051       33.74738643676712       42.20106847197445
H           49.06392414499643       33.85372659099203       43.33281457730739
H           48.90982125990071       33.58956491137295       45.75189464113448
H           49.41021808685495       34.72354609495044       47.82464969167737
H           52.32145351773131       35.41504244507497       50.19907776496476
H           54.68196065170368       35.39303489176324       50.84404451780453
H           56.44001416688507       35.66561071027928       49.13118410023809
H           55.80153066288428       35.95048969470503       46.76000531247438
H           53.42970113771411       35.98367487524288       46.11807988459608
H           49.73640752668402       38.13422147317009       45.87060694865825
H           50.27620482379753       38.60585800814349       43.52948254216128
H           52.55257912940115       39.31528069611419       42.89449959547694
H           54.29970512194034       39.50758159351216       44.62330361246661
H           53.76856015978794       38.99244247054533       46.96806459909691
H           48.95063166041208       41.78697339621900       48.81761057643437
H           46.65836382617621       42.56928508243597       49.15619080878711
H           45.09461688624314       41.27219979953220       50.56706962847757
H           45.88743735807834       39.25733944477408       51.73157976448644
H           48.23213273803808       38.51921689623085       51.46698485734958
H           51.40450193159393       40.61750271005536       53.76304219888515
H           50.96324623052696       38.99164823452372       55.55170600925108
H           51.44060599219797       36.60584500644345       55.20372811768473
H           52.36248025243613       35.83635388572087       53.03959037547152
H           52.81653703964668       37.46836144334128       51.25691833504992
H           52.74785101491715       42.18806918687572       51.87460207356408
H           53.78100432028307       41.00883345072722       52.67182565533248
H           53.97505030757893       44.28755514837341       50.75418774101040
H           55.41303642382648       46.05594589899417       51.64656708873570
H           57.52966966727911       45.48977132739930       52.77581645628378
H           58.22579346749226       43.12791894363038       52.95564401986056
H           56.83524509320164       41.35763483560044       51.96802687789557
H           55.39756440324887       39.73618231173723       48.20285873094032
H           57.53162889739238       38.55208305672779       48.28166646473539
H           59.64607398364291       39.81246124222945       48.50641158831807
H           59.58639950313276       42.27770230246231       48.65393119799941
H           57.44134886596517       43.46430211225301       48.59157299733757
H           56.82806124835890       43.02045730939636       44.00494894938342
H           56.46395964401031       42.38847631572180       41.65766774080556
H           54.17764704357168       41.96043459498375       40.83194593591622
H           52.25467659130135       42.21560859878887       42.37699736038370
H           52.61378532749636       42.89671929364460       44.68267787744740
H           57.01162205428538       45.76130174027656       43.52604572118387
H           59.43929665654338       45.69468759930033       43.82929739740739
H           60.41723835407165       45.82587826657551       46.09675857288530
H           58.92533206059546       45.97278765758722       48.05618233755772
H           56.49343982132351       46.00774865812313       47.75705123477136
H           53.58662364509901       50.01379462590998       46.23614414135229
H           52.10372854636161       51.30818333838488       47.68892330357274
H           49.88112833524887       50.42236837508577       48.31278175852334
H           49.16408616371690       48.22997702781150       47.46346272395022
H           50.66986977762549       46.90581345096393       46.02402405506361
H           49.63621827183087       47.24886748969216       43.48280674522624
H           48.74109409121889       45.09173104123566       42.71486566308017
H           50.10589097499592       43.64476644932343       41.24348734651568
H           52.39633445165218       44.34206433148634       40.63984297764507
H           53.30758114251601       46.45184944170780       41.46872413884333
H           54.43512783597033       52.34000075258409       41.34966796747623
H           54.84635814842238       53.54011865747142       39.24297771600959
H           53.22202119911201       53.37566220649889       37.38760197690819
H           51.20633266078100       51.98008263980783       37.64514284735476
H           50.81061250273686       50.77138285191252       39.73932427442690
H           53.16911309754990       54.52154852778451       42.22242937600044
H           54.86265265527603       55.46157120697821       43.74357361507234
H           54.84186230466644       54.83362759088786       46.14159549057272
H           53.19013364696256       53.23912346094153       46.97209853992432
H           51.50066393077027       52.29374318515372       45.45560365036506
H           46.38039461850590       51.91814934201335       43.36371013286201
H           44.34835608631212       52.92928503980563       44.28140538049507
H           44.14414853995936       55.40493485402695       44.39855360018919
H           45.98035149961774       56.81157394803612       43.62413012752629
H           48.02360532041381       55.80603110892024       42.70707283654268
H           48.66488059954765       51.01661153055794       39.64930404378658
H           47.56623315976308       48.84267859139817       39.94241584316434
H           45.20291048259816       48.73997805324311       40.66042848622016
H           43.93391472895733       50.83582179929271       40.99309382798808
H           45.04008431211117       52.99600147179056       40.71246235211369
H           47.65655297376556       28.13016708156891       43.33566122494469
H           46.84854105737088       26.98135986837570       44.40182555958506
H           45.89401712070880       28.09160687497455       43.41731581085249
H           46.87505147472022       54.26569777572350       40.34166445789302
H           48.79405326919613       53.04980169816539       38.30659457903153
H           47.13392701875820       53.51124225911860       37.93475821972721
C           47.33231233238659       56.18500621772930       38.42476038339812
C           49.00057254134964       55.15588470479427       36.82417081522235
C           48.14763367679365       55.08412840630270       35.72844419338569
C           48.65031424309608       55.02490191989826       34.44236193094826
C           50.01662957433064       55.03352482162855       34.22444501682090
C           50.87468275847043       55.10024106129162       35.30725853694448
C           50.37082033188368       55.15677492751001       36.59478086169603
H           47.07851413366532       55.06610369350820       35.87327159972268
H           47.96579328566175       54.97164109499567       33.61037835866586
H           50.40822746633683       54.98677485662505       33.21902341097187
H           51.94189553697076       55.10573992217016       35.14277494617605
H           51.05022652514966       55.19249934846757       37.43585967474525
C           47.67760579905701       57.58885681313734       37.91275614549426
H           46.44332036793186       55.82309390431961       37.90551458387583
H           47.08228113054114       56.25580630119538       39.48581459765405
C           46.45492783275152       58.45941843749352       37.93632246707904
C           46.34573026924448       59.55062506484652       38.78830302951410
C           45.18899839249644       60.31257447392152       38.81898482401603
C           44.12056227750304       59.98663699112520       38.00212752448272
C           44.22175584891928       58.90504853564190       37.14393682174548
C           45.38144649127352       58.15524022800540       37.10614895899435
H           47.18110076804810       59.81521821347122       39.42358483708804
H           45.11708763990276       61.16590728647934       39.47694788452520
H           43.22303085257565       60.58724377474240       38.02237089759915
H           43.39471233645036       58.64878579541486       36.49914059638485
H           45.46177604682127       57.32166124553353       36.42213495484886
H           49.29120191346436       55.43685561117326       38.90511020250488
H           48.46611467368631       58.02550291193495       38.52886067448691
H           48.05470926993915       57.51737752207046       36.88892549450591
C           45.74523488549187       72.04621822992131       35.44067106030819
C           44.82075394373162       71.37519217095885       34.65031571733245
C           45.26176130340328       70.31317057344306       33.86860261655241
C           46.59124527233617       69.93140892260368       33.88001999239665
C           47.50268372059597       70.60998978056436       34.67108626907899
C           47.07659725784519       71.66907889058544       35.45337312493165
C           43.37714256226692       71.81138451130344       34.63736966960074
C           43.03529434321861       72.44126363834472       33.28427803773807
C           42.42214892124049       70.64880029529067       34.93883879202821
C           42.78310774940937       69.90947322959899       36.23478175245962
C           42.84808748186646       70.87080730375955       37.39710719589715
C           41.73202425163233       71.59712800524387       37.79630510049065
C           41.81202990508402       72.50095603015872       38.84090695491947
C           43.01071765661095       72.69356108978627       39.50628198151768
C           44.12713521015399       71.97272730763721       39.12202153322092
C           44.04225519452170       71.06683122034291       38.07993625383233
C           41.79048220564478       68.77480656457249       36.53434040209024
C           41.86420754224000       67.58561817480333       35.55864295943060
C           40.62819052535863       66.74078646819616       35.74230688507171
C           39.59857353049259       66.81058812884729       34.81096331280551
C           38.44099337494286       66.06996397270353       34.97038945793611
C           38.29183337304619       65.24672046054923       36.07305855679942
C           39.30636130798209       65.17734820360293       37.01083565283604
C           40.46289477022083       65.91803200588690       36.84924638142763
C           43.15251979925925       66.77608901295082       35.73688022784307
C           43.28346499690338       65.62846714140834       34.72252167544659
C           43.31811292052898       66.19697547512233       33.32656561104021
C           44.43514555605820       66.88795547910850       32.87074135415767
C           44.45863446327003       67.43616677845220       31.60135739209562
C           43.35733096750857       67.31623176017668       30.77100684486945
C           42.23804643918783       66.63420509809229       31.21621618721991
C           42.22344829528146       66.07355435512900       32.48138595979388
C           44.54388074573723       64.79107309496564       35.01787763178482
C           44.24270549009626       63.42028206639814       35.63509921006997
C           43.50321041504036       63.51678720640083       36.94572158445489
C           44.06854339222330       64.13651010261762       38.05517322307299
C           43.41089344145158       64.14604589407317       39.27263307844251
C           42.17815723614647       63.52996197784339       39.40766706291517
C           41.59875558805171       62.92216100786752       38.30794909233378
C           42.25491753876629       62.92337919728636       37.08924610282440
C           45.54274236437998       62.61985959928459       35.84992279013462
C           46.07353972645783       61.97560188317615       34.56266974370953
C           47.53963010780866       61.63408902170057       34.65347338666658
C           48.38930181969855       61.88942879521707       33.58490298680336
C           49.70885413637277       61.47544212094351       33.61128794025050
C           50.20891963207310       60.82555483360554       34.72531282701022
C           49.38145274201606       60.59384742953595       35.81045502077306
C           48.05636839343183       60.98555425585278       35.76955856656995
C           45.29934295716363       60.68940624934112       34.22069899790205
C           45.40010853991405       60.36537148901454       32.72580033875243
C           44.68460052017316       61.42902946189932       31.92760744722615
C           43.31534734756176       61.62967725938402       32.06407968874604
C           42.67207160756116       62.62899046116546       31.35708102146693
C           43.38628853311791       63.44861471754539       30.50050002038659
C           44.74724036303862       63.25347519996340       30.34809666250911
C           45.38667658897881       62.24795907598440       31.05206502286151
C           44.84009330034996       58.97922579311048       32.37612278051170
C           45.73243484523642       57.80899705936974       32.81904181305269
C           47.17498647743577       58.01210541148523       32.42789992896210
C           47.54633599299868       58.11818693781382       31.09153463371671
C           48.87728038840518       58.23895968576428       30.73721132397563