3864
 energy: -5104.227151185158 gnorm: 0.000806238237 xtb: 6.6.1 (8d0f1dd)
C           42.14928093621140       50.04982819060491       48.64282866171380
C           41.15872325517016       50.12951168673330       49.61401513278012
C           40.29299482130817       49.05219751265955       49.75981065214072
C           40.42288429374240       47.91936168199009       48.97503569071695
C           41.41355423002255       47.85490539843124       48.01166285659909
C           42.26897109668763       48.92924167784313       47.84177377882024
C           41.06679448906468       51.32015188784082       50.53767504616834
C           42.29130002696597       51.32449707934857       51.45532396980913
C           40.91609173574263       52.62780705053345       49.75013988408028
C           40.79966566050969       53.87208314832213       50.64690581442101
C           42.13305189260988       54.52606483998746       50.90979353733480
C           42.89013182023481       55.04951212736893       49.86781739265795
C           44.06621810628620       55.73110918890404       50.11849353078543
C           44.51903965133828       55.88715074275439       51.41671462275303
C           43.79092197327406       55.34345574834732       52.45916842421860
C           42.60261838428634       54.68304333795154       52.20683550060510
C           39.84668507440756       54.90577260726783       50.02498033099691
C           39.73685717824005       56.17005056861134       50.88380546551058
C           39.30938499602911       55.88190438450290       52.30088431606856
C           39.94070727296800       56.53201823978733       53.35421205656628
C           39.55221494394266       56.31911377794677       54.66421277596664
C           38.52761946434359       55.43338884425804       54.94727587362720
C           37.89027144445230       54.77676201552878       53.90785920359939
C           38.26711109478522       55.01137753844978       52.59687644708625
C           38.77670969261925       57.20221707975539       50.25520720719903
C           39.51861417286957       58.38479254140361       49.61534224042615
C           40.28901399456218       57.94354978032977       48.39857462536325
C           41.67431154626488       58.03073388221677       48.36560402420453
C           42.38880538914962       57.63822040560246       47.24576217993285
C           41.72180437253131       57.14975346864021       46.13689989783357
C           40.34071468373291       57.04172921424021       46.16213972595968
C           39.63313782730086       57.43279522652166       47.28268267993963
C           38.52643501130945       59.51329821318764       49.29970839793084
C           39.20892525304785       60.84778828015276       48.95554737317322
C           38.36793464974161       62.01260218887820       49.42419916593109
C           38.94740286746821       63.10946659577067       50.04898996411043
C           38.18581874754005       64.20443759678989       50.41930147375707
C           36.82222787434556       64.21675948855896       50.18530415077812
C           36.22846733305143       63.12062107569813       49.58247269792759
C           36.99442652497422       62.03344912780717       49.20393870398418
C           39.49013159703782       61.01454735447918       47.44223198298018
C           40.95713891967776       61.27647141973605       47.04950401808455
C           40.98580952952267       61.53165596065818       45.56310408585490
C           41.46770052069432       60.56493767412864       44.69046913256817
C           41.46869442947882       60.78038975249986       43.32327023647159
C           40.99037170570328       61.97063029861092       42.80345060152377
C           40.50629877986970       62.94285650901669       43.66411637941234
C           40.49980933030987       62.72167617586878       45.02927899289896
C           41.56046192557281       62.44449890089741       47.83798758756619
C           42.90615852270329       62.94748556968406       47.30169106381891
C           43.91342632653428       61.84675244650250       47.08230077182075
C           44.16447832695160       60.88845462154838       48.05679116051697
C           45.14565209979766       59.92999431759685       47.87247510363749
C           45.90186237520424       59.91812637588536       46.71298930145815
C           45.65984208834089       60.86684883231467       45.73478837723562
C           44.67285656405470       61.81929197706378       45.91951792423759
C           43.53075140619439       63.96249385371161       48.27784091257040
C           42.60670249595266       65.13192551683892       48.63775121630163
C           42.05514765547330       65.79285508818917       47.39974665225486
C           40.68438594678209       65.94746252025477       47.23293240138870
C           40.16749826353308       66.53834070764954       46.09258325361473
C           41.01815082493520       66.99107385677685       45.09937566727088
C           42.38696042080461       66.85659156749536       45.26028377556256
C           42.89883371067913       66.26353748572747       46.39953216547796
C           43.31596585775751       66.18522425585998       49.50436082080760
C           43.82308389429345       65.65646004409808       50.85674129471506
C           42.75543014509903       64.88727258973849       51.59283140593385
C           41.63246949835924       65.52500723177363       52.10881521416303
C           40.66851994755271       64.81111374913941       52.79856818776042
C           40.79939028151841       63.44258371851241       52.96807558678316
C           41.91501214669650       62.79763697235725       52.46438788377279
C           42.88742324216533       63.51826133711852       51.79424312020421
C           44.34344204616716       66.82323972415151       51.71726335833848
C           45.82428026705037       67.14493259702832       51.44093921048847
C           46.07449289855388       68.57820486989176       51.83268492029900
C           45.98518011611787       68.98903522504114       53.15855516624034
C           46.12889290425743       70.32190055679499       53.49797282400532
C           46.36436239925861       71.27120596073485       52.51710870314245
C           46.46046635332191       70.87500595969854       51.19411105433886
C           46.31388263252438       69.54073748424608       50.85907264846331
C           46.73037204709489       66.14062722950541       52.16794349753597
C           48.04559254251321       65.81793848450364       51.43547200217530
C           47.72855563885145       65.18295628918268       50.09778336748985
C           47.78510274521506       65.86952853569596       48.89186489593023
C           47.46886909106107       65.24351631459631       47.69703617696559
C           47.08733965849548       63.91445457295232       47.68527176787689
C           47.01039226557108       63.21933202916152       48.88144715315939
C           47.32281427239478       63.85062073734508       50.07029654537769
C           48.99037283568439       67.01534113197508       51.29865348934367
C           49.43968840177142       67.67667172851058       52.61034327917409
C           50.29140438316426       68.87263454545045       52.25415877491533
C           49.78179461418566       70.15580842724184       52.40259298980580
C           50.52313654188711       71.26442397031390       52.03527359256249
C           51.79569457371473       71.10818419719274       51.51469626556958
C           52.31991585073420       69.83557222460918       51.37457591717727
C           51.57481606883541       68.73014214718236       51.73972889745949
C           50.18266141562957       66.72857197641302       53.55363104357936
C           50.49970990385034       67.42981291742437       54.87947553564439
C           49.23237952389337       67.87023053860858       55.56903773183006
C           48.22789539733107       66.96212738929678       55.88538625743468
C           47.06947559719389       67.37334403356404       56.51985692088388
C           46.90077381870511       68.70444211941866       56.86082967099745
C           47.89324008628024       69.61903830916626       56.55221051350463
C           49.04442193041761       69.20469166905745       55.90566713242064
C           51.33058767301566       66.52473192227288       55.79826996076778
C           51.78920243428323       67.27337350104386       57.05485726127760
C           52.64411675144361       68.46695894538065       56.71444769622929
C           53.77211787047661       68.34311142215371       55.91210973951877
C           54.56132475945392       69.43972864447123       55.62066939730099
C           54.23941142067542       70.68473767242621       56.13249248478414
C           53.11993694481176       70.82215084484696       56.93491195714106
C           52.33069791940047       69.72209558776146       57.22030383046863
C           52.54533825893716       66.34074926561286       58.01253455533648
C           52.72605352413757       66.97290303984205       59.39746168204531
C           51.39742385380730       67.35161494427689       60.00575351227052
C           50.35959285835965       66.43223930579575       60.10907719147607
C           49.15366879835789       66.77859865296502       60.69122855682791
C           48.96489015527562       68.05558808946259       61.19049993989829
C           49.98782466408836       68.98325978007468       61.09204925550917
C           51.19002588163794       68.63314444497730       60.50209184407545
C           53.48202395214773       66.02024759618564       60.33845160766339
C           53.77544614089809       66.68894585956851       61.68543213434369
C           54.76186822214640       67.82445770262952       61.56097527958288
C           56.01002617004335       67.66009325085327       60.97364587553164
C           56.90592384365252       68.71229057602064       60.91524080107784
C           56.57214181342007       69.94858227661345       61.43973850581351
C           55.33353942127531       70.12459093846236       62.03189031086297
C           54.44255010662596       69.06869410577168       62.09353026348250
C           54.29584716367059       65.70234175842633       62.74456379771530
C           53.27383091958829       64.65885841330653       63.23246660328820
C           53.86875029211934       63.83693524864499       64.35087379852803
C           54.32306026300772       64.43531313722320       65.52018622949149
C           54.88255385528682       63.67849186108024       66.53340138262270
C           54.99343169987046       62.30583519802623       66.39681144742219
C           54.52381635324016       61.69500051654544       65.24845799292630
C           53.96488231165771       62.45521756889924       64.23716663194875
C           51.95959270755588       65.31430545749382       63.68079591285746
C           50.94385509627897       64.33569527988482       64.28989346287779
C           50.78441461244856       63.07943132223861       63.47333409140315
C           50.75063176903338       61.84371166000026       64.10665165163975
C           50.56472141845417       60.67936252401002       63.38316027686940
C           50.44266949584384       60.72628696609011       62.00535929980427
C           50.48989566571730       61.95064191323598       61.36141313056620
C           50.64536276578116       63.11735007851023       62.09045822547169
C           49.59407568984376       65.06346386585227       64.42355196369361
C           48.49787446845692       64.20004738801491       65.05635752387256
H           40.17201160360154       51.20186124429479       51.16230976331877
H           41.75952894451732       52.74791193744645       49.07025100877253
H           40.01220759098776       52.54360429233475       49.14031477327043
H           40.36802839178178       53.56960435485987       51.60803590715332
H           40.20544134428265       55.19455402001972       49.03495681424113
H           38.86150714664198       54.45352733478423       49.89714654129427
H           40.73481673996189       56.61919272293293       50.92970322719493
H           38.15221358426480       56.71549929653876       49.50572741185291
H           38.11693987750550       57.59807224669132       51.03183117116964
H           40.22831985851195       58.77185453221964       50.35678439035377
H           37.90484800556765       59.66560186273580       50.18653525780442
H           40.15588727182687       60.88110758236233       49.49973000412076
H           39.16301929176192       60.12002971852184       46.90813674128414
H           38.88751491121690       61.84524588040609       47.06642399995290
H           41.53795522914467       60.37172421283895       47.25365302247813
H           40.85217260863661       63.27235933222531       47.82212868166934
H           41.69310562217095       62.14403333832590       48.87790460900390
H           42.73093250104753       63.44984412001830       46.34351724179066
H           43.79915404381359       63.43468749435882       49.19236358351650
H           44.45411324526783       64.34715287474430       47.83980670421771
H           41.76583709678965       64.74883651890387       49.22435398975852
H           44.65609283963851       64.97509631322993       50.65945433236267
H           43.74240945857518       67.71442853952325       51.52017631069535
H           44.22798244742872       66.58715177520756       52.77722626038629
H           45.98934701609623       67.05347773528128       50.36318369517584
H           46.95291323733333       66.50127014648365       53.17230950216171
H           46.18273036772443       65.20258429340818       52.27735054357044
H           48.55503161868560       65.05261003490280       52.03233978413764
H           49.88005203390085       66.68196948913111       50.75803012775582
H           48.50912913546840       67.79944196950029       50.71246691912275
H           48.55089991252220       68.04998054894033       53.12823355446813
H           49.57300941385619       65.84730102786476       53.74824060638569
H           51.11345118165334       66.39821203497532       53.09118349137111
H           51.09576191740818       68.32244733563159       54.65598405887074
H           50.73122920936610       65.66300677046422       56.09723510494082
H           52.19889741198304       66.16108152144511       55.24713169908873
H           50.89185569067530       67.63339260950067       57.57102071233268
H           51.98840062581687       65.40874066737314       58.10826750624735
H           53.52816607693409       66.10279376117899       57.60213417456078
H           53.32645449452852       67.88323860103067       59.28347886601421
H           52.87688325631602       65.12842785776826       60.50406022026841
H           54.41320735062997       65.70877606469273       59.86248215646312
H           52.84402791223737       67.12392633898106       62.05666861628294
H           55.16747492164798       65.18005568638587       62.34290974622319
H           54.63970945549723       66.28920920945356       63.59940301241017
H           53.05151479504501       63.97863838099470       62.40548439918290
H           52.17571898616813       66.09093313187641       64.41777316546933
H           51.49319196267547       65.79786599713903       62.82129021014689
H           42.83620687567096       50.87214316424011       48.50441061077423
H           43.03650593601272       48.90115236583136       47.08484708335645
H           41.51102220659462       46.96504718322927       47.40503511280887
H           39.76198219371971       47.07706732444444       49.12299564612006
H           39.51174623212048       49.09111456427975       50.50693350116395
H           42.54361188222328       54.94491176590804       48.84999017991318
H           44.63414712593919       56.14635333657159       49.29830672554462
H           45.43282002355870       56.42822219958569       51.61365864328857
H           44.14246742437341       55.43061575793789       53.47688344030976
H           42.02565705446953       54.29570543524630       53.03666494361165
H           40.74981481007551       57.21680219882699       53.14094893495871
H           40.04935805167280       56.84624201215704       55.46460222848298
H           38.22398569087935       55.25421898853099       55.96819833112783
H           37.09543819673766       54.07676147895900       54.12693997482712
H           37.74575350119151       54.50529736922303       51.79845008148482
H           42.20360747153576       58.41278615811984       49.22737710896609
H           43.46561398993567       57.73037661192203       47.23425037513748
H           42.26509533646538       56.85834784700099       45.24921031506764
H           39.81616527209704       56.65527118198955       45.30120919004258
H           38.55610086374882       57.33806569047991       47.28327136556523
H           37.86917790755447       59.20451624896113       48.48648265471326
H           40.00649509247917       63.11362870166520       50.26030292438089
H           38.66226666982996       65.05055963716482       50.89392757956553
H           36.22573419946836       65.07147090812055       50.47310419347954
H           35.16207725606671       63.11666548094159       49.40230449872208
H           36.51545905150119       61.19132023917570       48.73034770806270
H           41.84466320297283       59.63213934010894       45.08520083740584
H           41.84911160594546       60.01842084910169       42.66008709368287
H           40.99759339999351       62.14484649544380       41.73638005944439
H           40.13151074212293       63.87802515327390       43.26989696929355
H           40.11711378264357       63.49462245699659       45.68107160019949
H           43.59483715977101       60.89683970447757       48.97411987263832
H           45.33319204970750       59.19480629096171       48.64302578134334
H           46.68331529711790       59.18418097740825       46.57396641650786
H           46.24856640049592       60.86516423836895       44.82819873597956
H           44.49501002311695       62.56321110245427       45.15432882360687
H           40.00830610108548       65.60069367581846       48.00430750399776
H           39.09736175726793       66.64352007611899       45.97776673415981
H           40.61664171676637       67.44984043325134       44.20660482206301
H           43.05695697927118       67.21700860609049       44.49163530068343
H           43.96881514100249       66.16409849520075       46.51038375148477
H           44.16075185838204       66.60291609790147       48.95292902721199
H           42.60642241210971       66.99876120373753       49.68179554040787
H           41.51293820401857       66.59081029492714       51.97475720994765
H           39.80809402999050       65.32506335468635       53.20611419840923
H           40.03234606972785       62.88380974635650       53.48455998243740
H           42.03562277649694       61.73219173008773       52.59454258082022
H           43.76566103118137       63.00331862546017       51.43071176746335
H           45.79293991812555       68.26817550714145       53.94024045407692
H           46.05754428906115       70.62015483564177       54.53416841283064
H           46.47418843257112       72.31329168321585       52.78252953924520
H           46.64712153901552       71.60886745977169       50.42236650663327
H           46.37611882009950       69.24549237845355       49.81988570748469
H           48.07624419059265       66.90811317732134       48.85993029170924
H           47.52217600535976       65.80843172172536       46.77655565446798
H           46.84170100112738       63.41734655185284       46.75789539539701
H           46.70377188958026       62.18367627855328       48.87297636050316
H           47.25846740704710       63.30214940960654       50.99927403819958
H           48.79086225180878       70.28879113954331       52.81243890937979
H           50.10541695470310       72.25462799470448       52.15650285181602
H           52.37535177479910       71.97283932474373       51.22333930509993
H           53.31674028420984       69.70544109812509       50.97787423935685
H           52.01179425119560       67.74979512149122       51.62494459907077
H           48.34243723116467       65.91904361604367       55.63130203993627
H           46.29477721936531       66.65533618691784       56.74985671732946
H           45.99871176391917       69.02697449084431       57.36192490943726
H           47.77077687347916       70.66160745551336       56.81450527372131
H           49.81055607786919       69.92708126241949       55.65692864528121
H           54.03643179128956       67.38209834690456       55.49790309028193
H           55.43164607118506       69.32542183726844       54.98990420000924
H           54.85509960876873       71.54411663880339       55.90694078434711
H           52.86060043659198       71.79162081795727       57.33814070750161
H           51.45512195968412       69.83815595148434       57.84478037194044
H           50.48509362052446       65.43432598599802       59.71855296044864
H           48.35523287075460       66.05297893538813       60.74831118818737
H           48.02507194917210       68.33076664471922       61.64758734693180
H           49.84825535895130       69.98536624268777       61.47402673662091
H           51.98350257170239       69.36443199467519       60.42461915582182
H           56.29927997123882       66.70736218703863       60.55500480747681
H           57.87149998011877       68.56154027182799       60.45668381243309
H           57.27363087553092       70.76916997371590       61.39130955382846
H           55.06337487415217       71.08487450052698       62.44862518247545
H           53.48017588023036       69.21290359267027       62.56595451794767
H           54.24139840695582       65.50531913994078       65.64857950498444
H           55.23481246054029       64.16249176338437       67.43416054433284
H           55.43801488219876       61.71366150229712       67.18238420478653
H           54.59334700387120       60.62037920507018       65.15072954313402
H           53.59083100780199       61.96590866966732       63.35005584286789
H           50.66422947527376       64.06881243665364       61.57986649700862
H           50.39827658283374       61.99231374042243       60.28523121074381
H           50.30790160691395       59.81518984622664       61.44095185916415
H           50.51641680018576       59.73005238527889       63.89458939224711
H           50.87084995692086       61.79813240801964       65.18077095686714
H           42.42841138190985       50.33861929981902       51.89774649623030
H           43.19020748654533       51.57973745718429       50.90105402560130
H           42.17828781723285       52.04543657610843       52.25902848158477
H           51.28497427902023       64.04674967344131       65.29099657789507
H           49.74034121097333       65.97067684500115       65.01310961720243
H           49.27587908859982       65.37533882437290       63.42781745068660
C           47.14009813617839       64.92156759640261       65.09498467669077
C           48.85207529207332       63.77285651840545       66.45922971998658
C           48.72549343178549       62.43905392709483       66.82749199461990
C           49.02417977691569       62.02014080047650       68.11157984864549
C           49.45264454501709       62.93586764904561       69.05701443903698
C           49.56958181254642       64.27033047434283       68.70793308284037
C           49.26861401636442       64.68401746238378       67.42234319526479
H           48.38860854048971       61.72351380986505       66.09067049490808
H           48.92412236410615       60.97726659967714       68.37840370118238
H           49.69026305182048       62.61355447473660       70.06064065913208
H           49.89582689567629       64.99306185100458       69.44261000486613
H           49.36145731585178       65.73117446861724       67.17414087419370
C           46.52825881744082       65.21416733610515       63.71637088611951
H           46.43979885666639       64.29715798370256       65.65740286373820
H           47.24949764489121       65.86439051288043       65.63662043589272
C           46.25789006800794       63.96363021165368       62.92792750949220
C           47.25022519266943       63.39314239806731       62.14004043212280
C           47.01940937012746       62.22311820794229       61.44053610690079
C           45.77161316928955       61.62851640850160       61.48182636220556
C           44.76955012681398       62.19372368857064       62.24933316543357
C           45.01736172455561       63.34099237247403       62.98306744804962
H           48.21875530735456       63.86334109932615       62.07320177486409
H           47.82027548306667       61.77799689946794       60.86855110134040
H           45.57985239935226       60.72732081405368       60.92078378374645
H           43.79417041214705       61.73266159261182       62.28845543856870
H           44.23354403478169       63.76048133470766       63.60021978592844
H           48.37836178220692       63.29579325073947       64.45038711210688
H           45.58930925505430       65.74962501709123       63.88184069644895
H           47.19388211355875       65.87228479968495       63.15506961434758
C           44.96490459177570       64.10514966531932       57.68064742779202
C           45.97359092363062       63.78061328649590       56.78095472941582
C           45.72495771899926       63.94884260204650       55.42319480560429
C           44.50159131149460       64.40603948948061       54.96949492795281
C           43.50956967479517       64.73473706098737       55.87603973514634
C           43.74970639267048       64.59463404240545       57.23238965390675
C           47.29547208036659       63.20687772061202       57.22540083847542
C           47.94335811278217       64.02284064450716       58.34339573870429
C           47.12279036226056       61.73416789138910       57.65449025536355
C           48.36405687033569       60.90417396989869       57.29054272705672
C           48.56500292848600       59.69926432827216       58.17487438005692
C           49.83740346324635       59.34714251445229       58.61094751010647
C           50.04141770436990       58.20986485382982       59.37421064934435
C           48.96791643784402       57.41182043458357       59.72726052223593
C           47.69453751274097       57.75377302898127       59.30441259496656
C           47.49711580260470       58.88223990520228       58.52954381062833
C           48.27761816398796       60.44528389609450       55.82238577161890
C           49.66099859566157       60.14733256776261       55.21000712729823
C           50.00159034530641       61.20479811385002       54.18767292617427
C           49.48828010010019       61.17541471384668       52.89587539173629
C           49.81819980903357       62.15683851250792       51.97823327205597
C           50.64189059768744       63.20686592895025       52.34673086457032
C           51.13278536578947       63.26545117089403       53.63888593358958
C           50.81923661364878       62.26904141050652       54.54526999931252
C           49.76110996107456       58.73756224814193       54.62323470133452
C           51.22109906341847       58.44215761603348       54.21721230853171
C           51.89719463814666       57.68154269776733       55.32617724338779
C           51.56069649547354       56.36108501341604       55.60171427616160
C           52.13305641160221       55.69440692657329       56.66784343329675
C           53.04751716094254       56.33628531984548       57.48630445057704
C           53.39173735041820       57.64976257573833       57.21870498676174
C           52.82314784283655       58.31306425599368       56.14554412009461
C           51.31036595005983       57.73659031372642       52.86026992304609
C           52.76300341012905       57.51030800597058       52.42320913513885
C           53.61386560447573       58.74753661062785       52.56476822025909
C           54.83048843926161       58.68696455718564       53.23225019839618
C           55.65933575829250       59.79293620459952       53.30225208829780
C           55.27908790704240       60.98225376150796       52.70582122141368
C           54.06443594120356       61.05530309433639       52.04531768567324
C           53.24114654365797       59.94831149675776       51.97107293411026
C           52.85139515179984       57.06355512449124       50.95368942997671
C           52.47667216807691       55.59846989830402       50.70200994541237
C           52.22909106546125       55.34904617306981       49.23486984222224
C           51.09854823128754       54.66216847839632       48.81272062802365
C           50.91930932519067       54.34918851728191       47.47734585960735
C           51.85125767729442       54.74503801458653       46.53572672632246
C           52.96615357505487       55.45665469579541       46.94117986091159
C           53.15761758208910       55.74228642745666       48.27901288391676
C           53.59559357153245       54.65806970588513       51.17271539605010
C           53.19908304574904       53.18755293180529       51.02824360541162
C           51.97578097251957       52.86149173868426       51.84840306981292
C           50.88660283645142       52.25240702955821       51.23780918071936
C           49.74002891783238       51.95287220799116       51.95091151358468
C           49.66894404033662       52.25636952960308       53.29938707241786
C           50.74858151041833       52.85804251127797       53.92256919238769
C           51.89301024259181       53.15615348273671       53.20373498741455
C           54.35496452189857       52.24628966985043       51.39897782543404
C           55.56177997870461       52.35344966840441       50.45479759125075
C           55.17898613388082       52.34228890449869       48.99373966804237
C           54.29109684458417       51.40720738767216       48.47570791646856
C           53.97426185818313       51.39362743671759       47.12974077761518