      -----------------------------------------------------------      
     |                   =====================                   |     
     |                           x T B                           |     
     |                   =====================                   |     
     |                         S. Grimme                         |     
     |          Mulliken Center for Theoretical Chemistry        |     
     |                    University of Bonn                     |     
      -----------------------------------------------------------      

   * xtb version 6.6.1 (8d0f1dd) compiled by 'stahn@M-Bot' on 2023-08-01

   xtb is free software: you can redistribute it and/or modify it under
   the terms of the GNU Lesser General Public License as published by
   the Free Software Foundation, either version 3 of the License, or
   (at your option) any later version.
   
   xtb is distributed in the hope that it will be useful,
   but WITHOUT ANY WARRANTY; without even the implied warranty of
   MERCHANTABILITY or FITNESS FOR A PARTICULAR PURPOSE.  See the
   GNU Lesser General Public License for more details.
   
   Cite this work as:
   * C. Bannwarth, E. Caldeweyher, S. Ehlert, A. Hansen, P. Pracht,
     J. Seibert, S. Spicher, S. Grimme, WIREs Comput. Mol. Sci., 2020, 11,
     e01493. DOI: 10.1002/wcms.1493
   
   for GFN2-xTB:
   * C. Bannwarth, S. Ehlert and S. Grimme., J. Chem. Theory Comput., 2019,
     15, 1652-1671. DOI: 10.1021/acs.jctc.8b01176
   for GFN1-xTB:
   * S. Grimme, C. Bannwarth, P. Shushkov, J. Chem. Theory Comput., 2017,
     13, 1989-2009. DOI: 10.1021/acs.jctc.7b00118
   for GFN0-xTB:
   * P. Pracht, E. Caldeweyher, S. Ehlert, S. Grimme, ChemRxiv, 2019, preprint.
     DOI: 10.26434/chemrxiv.8326202.v1
   for GFN-FF:
   * S. Spicher and S. Grimme, Angew. Chem. Int. Ed., 2020, 59, 15665-15673.
     DOI: 10.1002/anie.202004239
   
   for ALPB and GBSA implicit solvation:
   * S. Ehlert, M. Stahn, S. Spicher, S. Grimme, J. Chem. Theory Comput.,
     2021, 17, 4250-4261. DOI: 10.1021/acs.jctc.1c00471
   
   for DFT-D4:
   * E. Caldeweyher, C. Bannwarth and S. Grimme, J. Chem. Phys., 2017,
     147, 034112. DOI: 10.1063/1.4993215
   * E. Caldeweyher, S. Ehlert, A. Hansen, H. Neugebauer, S. Spicher,
     C. Bannwarth and S. Grimme, J. Chem. Phys., 2019, 150, 154122.
     DOI: 10.1063/1.5090222
   * E. Caldeweyher, J.-M. Mewes, S. Ehlert and S. Grimme, Phys. Chem. Chem. Phys.
     2020, 22, 8499-8512. DOI: 10.1039/D0CP00502A
   
   for sTDA-xTB:
   * S. Grimme and C. Bannwarth, J. Chem. Phys., 2016, 145, 054103.
     DOI: 10.1063/1.4959605
   
   in the mass-spec context:
   * V. Asgeirsson, C. Bauer and S. Grimme, Chem. Sci., 2017, 8, 4879.
     DOI: 10.1039/c7sc00601b
   * J. Koopman and S. Grimme, ACS Omega 2019, 4, 12, 15120-15133.
     DOI: 10.1021/acsomega.9b02011
   
   for metadynamics refer to:
   * S. Grimme, J. Chem. Theory Comput., 2019, 155, 2847-2862
     DOI: 10.1021/acs.jctc.9b00143
   
   for SPH calculations refer to:
   * S. Spicher and S. Grimme, J. Chem. Theory Comput., 2021, 17, 1701-1714
     DOI: 10.1021/acs.jctc.0c01306
   
   with help from (in alphabetical order)
   P. Atkinson, C. Bannwarth, F. Bohle, G. Brandenburg, E. Caldeweyher
   M. Checinski, S. Dohm, S. Ehlert, S. Ehrlich, I. Gerasimov, C. Hölzer
   A. Katbashev, J. Koopman, C. Lavigne, S. Lehtola, F. März, M. Müller,
   F. Musil, H. Neugebauer, J. Pisarek, C. Plett, P. Pracht, F. Pultar,
   J. Seibert, P. Shushkov, S. Spicher, M. Stahn, M. Steiner, T. Strunk,
   J. Stückrath, T. Rose, and J. Unsleber
   
 * started run on 2024/07/09 at 12:02:08.621     

           -------------------------------------------------
          |                Calculation Setup                |
           -------------------------------------------------

          program call               : /home/abt-grimme/AK-bin/xtb input.xyz --input input.inp --opt --gbsa water
          hostname                   : boar099.thch.uni-bonn.de
          coordinate file            : input.xyz
          omp threads                :                     8

   ID    Z sym.   atoms
    1    6 C      1-146, 294-300, 306, 309-314, 323-468, 616-622, 628,
                  631-636, 645-790, 938-944, 950, 953-958, 967-1112,
                  1260-1266, 1272, 1275-1280, 1289-1434, 1582-1588, 1594,
                  1597-1602, 1611-1756, 1904-1910, 1916, 1919-1924,
                  1933-2078, 2226-2232, 2238, 2241-2246, 2255-2400,
                  2548-2554, 2560, 2563-2568, 2577-2722, 2870-2876, 2882,
                  2885-2890, 2899-3044, 3192-3198, 3204, 3207-3212,
                  3221-3366, 3514-3520, 3526, 3529-3534, 3543-3688,
                  3836-3842, 3848, 3851-3856
    2    1 H      147-293, 301-305, 307, 308, 315-322, 469-615, 623-627, 629,
                  630, 637-644, 791-937, 945-949, 951, 952, 959-966,
                  1113-1259, 1267-1271, 1273, 1274, 1281-1288, 1435-1581,
                  1589-1593, 1595, 1596, 1603-1610, 1757-1903, 1911-1915,
                  1917, 1918, 1925-1932, 2079-2225, 2233-2237, 2239, 2240,
                  2247-2254, 2401-2547, 2555-2559, 2561, 2562, 2569-2576,
                  2723-2869, 2877-2881, 2883, 2884, 2891-2898, 3045-3191,
                  3199-3203, 3205, 3206, 3213-3220, 3367-3513, 3521-3525,
                  3527, 3528, 3535-3542, 3689-3835, 3843-3847, 3849, 3850,
                  3857-3864

molecular fragmentation (1/2 indicates fragments):
111111111111111111111111111111111111111111111111111111111111111111111111
111111111111111111111111111111111111111111111111111111111111111111111111
111111111111111111111111111111111111111111111111111111111111111111111111
111111111111111111111111111111111111111111111111111111111111111111111111
111111111111111111111111111111111122222222222222222222222222222222222222
222222222222222222222222222222222222222222222222222222222222222222222222
222222222222222222222222222222222222222222222222222222222222222222222222
222222222222222222222222222222222222222222222222222222222222222222222222
222222222222222222222222222222222222222222222222222222222222222222222222
222222222222222222222222222222222222222222222222222222222222222222222222
222222222222222222222222222222222222222222222222222222222222222222222222
222222222222222222222222222222222222222222222222222222222222222222222222
222222222222222222222222222222222222222222222222222222222222222222222222
222222222222222222222222222222222222222222222222222222222222222222222222
222222222222222222222222222222222222222222222222222222222222222222222222
222222222222222222222222222222222222222222222222222222222222222222222222
222222222222222222222222222222222222222222222222222222222222222222222222
222222222222222222222222222222222222222222222222222222222222222222222222
222222222222222222222222222222222222222222222222222222222222222222222222
222222222222222222222222222222222222222222222222222222222222222222222222
222222222222222222222222222222222222222222222222222222222222222222222222
222222222222222222222222222222222222222222222222222222222222222222222222
222222222222222222222222222222222222222222222222222222222222222222222222
222222222222222222222222222222222222222222222222222222222222222222222222
222222222222222222222222222222222222222222222222222222222222222222222222
222222222222222222222222222222222222222222222222222222222222222222222222
222222222222222222222222222222222222222222222222222222222222222222222222
222222222222222222222222222222222222222222222222222222222222222222222222
222222222222222222222222222222222222222222222222222222222222222222222222
222222222222222222222222222222222222222222222222222222222222222222222222
222222222222222222222222222222222222222222222222222222222222222222222222
222222222222222222222222222222222222222222222222222222222222222222222222
222222222222222222222222222222222222222222222222222222222222222222222222
222222222222222222222222222222222222222222222222222222222222222222222222
222222222222222222222222222222222222222222222222222222222222222222222222
222222222222222222222222222222222222222222222222222222222222222222222222
222222222222222222222222222222222222222222222222222222222222222222222222
222222222222222222222222222222222222222222222222222222222222222222222222
222222222222222222222222222222222222222222222222222222222222222222222222
222222222222222222222222222222222222222222222222222222222222222222222222
222222222222222222222222222222222222222222222222222222222222222222222222
222222222222222222222222222222222222222222222222222222222222222222222222
222222222222222222222222222222222222222222222222222222222222222222222222
222222222222222222222222222222222222222222222222222222222222222222222222
222222222222222222222222222222222222222222222222222222222222222222222222
222222222222222222222222222222222222222222222222222222222222222222222222
222222222222222222222222222222222222222222222222222222222222222222222222
222222222222222222222222222222222222222222222222222222222222222222222222
222222222222222222222222222222222222222222222222222222222222222222222222
222222222222222222222222222222222222222222222222222222222222222222222222
222222222222222222222222222222222222222222222222222222222222222222222222
222222222222222222222222222222222222222222222222222222222222222222222222
222222222222222222222222222222222222222222222222222222222222222222222222
222222222222222222222222222222222222222222222222
# atoms in fragment 1/2:   322  3542
 fragment masses (1/2) :     2085.00    22935.05
CMA distance (Bohr)    :  27.526
constraining FC (au)   :  0.0500

           -------------------------------------------------
          |                 G F N 2 - x T B                 |
           -------------------------------------------------

        Reference                      10.1021/acs.jctc.8b01176
      * Hamiltonian:
        H0-scaling (s, p, d)           1.850000    2.230000    2.230000
        zeta-weighting                 0.500000
      * Dispersion:
        s8                             2.700000
        a1                             0.520000
        a2                             5.000000
        s9                             5.000000
      * Repulsion:
        kExp                           1.500000    1.000000
        rExp                           1.000000
      * Coulomb:
        alpha                          2.000000
        third order                    shell-resolved
        anisotropic                    true
        a3                             3.000000
        a5                             4.000000
        cn-shift                       1.200000
        cn-exp                         4.000000
        max-rad                        5.000000

      * Solvation model:               GBSA
        Solvent                        water
        Parameter file                 internal GFN2-xTB/GBSA
        Dielectric constant                8.0200E+01
        Reference state                gsolv [1 M gas/solution]
        Free energy shift                  1.8574E-03 Eh       1.1656E+00 kcal/mol
        Temperature                        2.9815E+02 K
        Density                            1.0000E+00 kg/L
        Solvent mass                       1.8000E+01 g/mol
        Interaction kernel             Still
        Born radius scaling (c1)           1.5524E+00
        Born radii integrator          GBOBC
        Born offset                        2.4628E-02 a0       4.6540E-02 AA
        H-bond correction              true
        Ion screening                  false
        Surface tension                    1.0000E-05 Eh       1.5569E+01 dyn/cm
        Grid points                               230 per atom
q/qsh data taken from xtbrestart
CAMM data taken from xtbrestart

          ...................................................
          :                      SETUP                      :
          :.................................................:
          :  # basis functions                9624          :
          :  # atomic orbitals                9624          :
          :  # shells                         5784          :
          :  # electrons                      9624          :
          :  max. iterations                   250          :
          :  Hamiltonian                  GFN2-xTB          :
          :  restarted?                       true          :
          :  GBSA solvation                   true          :
          :  PC potential                    false          :
          :  electronic temp.          300.0000000     K    :
          :  accuracy                    1.0000000          :
          :  -> integral cutoff          0.2500000E+02      :
          :  -> integral neglect         0.1000000E-07      :
          :  -> SCF convergence          0.1000000E-05 Eh   :
          :  -> wf. convergence          0.1000000E-03 e    :
          :  Broyden damping             0.4000000          :
          ...................................................

 iter      E             dE          RMSdq      gap      omega  full diag
   1  -5190.4943873 -0.519049E+04  0.714E-05    3.78       0.0  T
   2  -5190.4943873 -0.616819E-08  0.578E-05    3.78      27.9  T
   3  -5190.4943873 -0.422915E-08  0.477E-05    3.78      33.7  T

   *** convergence criteria satisfied after 3 iterations ***

         #    Occupation            Energy/Eh            Energy/eV
      -------------------------------------------------------------
         1        2.0000           -0.6341193             -17.2553
       ...           ...                  ...                  ...
      4806        2.0000           -0.3632364              -9.8842
      4807        2.0000           -0.3626956              -9.8694
      4808        2.0000           -0.3620191              -9.8510
      4809        2.0000           -0.3614945              -9.8368
      4810        2.0000           -0.3606799              -9.8146
      4811        2.0000           -0.3596009              -9.7852
      4812        2.0000           -0.3589724              -9.7681 (HOMO)
      4813                         -0.2199761              -5.9859 (LUMO)
      4814                         -0.2197470              -5.9796
      4815                         -0.2195972              -5.9755
      4816                         -0.2195334              -5.9738
      4817                         -0.2189343              -5.9575
       ...                                ...                  ...
      9624                          0.6676536              18.1678
      -------------------------------------------------------------
                  HL-Gap            0.1389963 Eh            3.7823 eV
             Fermi-level           -0.2894743 Eh           -7.8770 eV

 SCC (total)                   0 d,  0 h, 16 min, 27.629 sec
 SCC setup                      ...        0 min,  2.399 sec (  0.243%)
 Dispersion                     ...        0 min,  6.973 sec (  0.706%)
 classical contributions        ...        0 min,  0.180 sec (  0.018%)
 integral evaluation            ...        0 min, 11.890 sec (  1.204%)
 iterations                     ...       10 min, 39.401 sec ( 64.741%)
 molecular gradient             ...        4 min, 59.588 sec ( 30.334%)
 printout                       ...        0 min, 27.197 sec (  2.754%)

         :::::::::::::::::::::::::::::::::::::::::::::::::::::
         ::                     SUMMARY                     ::
         :::::::::::::::::::::::::::::::::::::::::::::::::::::
         :: total energy           -5103.326600526016 Eh    ::
         :: total w/o Gsasa/hb     -5103.138519032313 Eh    ::
         :: gradient norm              0.739552825365 Eh/a0 ::
         :: HOMO-LUMO gap              3.782280858790 eV    ::
         ::.................................................::
         :: SCC energy             -5190.494387298030 Eh    ::
         :: -> isotropic ES            0.284569921470 Eh    ::
         :: -> anisotropic ES          0.828378963087 Eh    ::
         :: -> anisotropic XC          3.453753849912 Eh    ::
         :: -> dispersion             -6.922416006614 Eh    ::
         :: -> Gsolv                  -0.199882992935 Eh    ::
         ::    -> Gelec               -0.011801499232 Eh    ::
         ::    -> Gsasa               -0.183083523333 Eh    ::
         ::    -> Ghb                 -0.006855413497 Eh    ::
         ::    -> Gshift               0.001857443127 Eh    ::
         :: repulsion energy          86.026468800216 Eh    ::
         :: add. restraining           0.000000000000 Eh    ::
         :: total charge              -0.000000000036 e     ::
         :::::::::::::::::::::::::::::::::::::::::::::::::::::

      ----------------------------------------------------------- 
     |              Fast Inertial Relaxation Engine              |
      ----------------------------------------------------------- 

          ...................................................
          :                      SETUP                      :
          :.................................................:
          :   energy convergence        0.5000000E-05 Eh    :
          :   grad. convergence         0.1000000E-02 Eh/a0 :
          :   optimization log               true           :
          :   writing optlog all                1     steps :
          :   Hessian reset                    20     steps :
          :   time step scaling                 5     steps :
          :   maximium step len.        1.0000000     a0    :
          :   initial time step         0.2500000     fs    :
          :   maximum time step         1.2500000     fs    :
          :   power reset thr           0.0000000     au    :
          :   alpha parameter           0.1000000           :
          :   BFGS update                   false           :
          :   preconditioning               false           :
          ...................................................

........................................................................
.............................. CYCLE    1 ..............................
........................................................................

 iter      E             dE          RMSdq      gap      omega  full diag
   1  -5190.7052502 -0.519071E+04  0.908E-03    3.79       0.0  T
   2  -5190.7052864 -0.361791E-04  0.557E-03    3.79       1.0  T
   3  -5190.7052764  0.997679E-05  0.298E-03    3.79       1.0  T
   4  -5190.7052954 -0.189782E-04  0.784E-04    3.79       2.1  T
   5  -5190.7052971 -0.172377E-05  0.278E-04    3.79       5.8  T
   6  -5190.7052972 -0.119614E-06  0.182E-04    3.79       8.8  T
   7  -5190.7052973 -0.485552E-07  0.128E-04    3.79      12.6  T
     SCC iter.                  ...       24 min, 39.766 sec
     gradient                   ...        4 min, 58.302 sec
 * total energy  : -5103.3879011 Eh     change    :  -0.6130059E-01 Eh
   gradient norm :     0.6789175 Eh/a0  converged?    E=F G=F D=F
   time step     :     0.2500000 fs     power     :   0.3114990E-05
   step length   :     0.0866740 a0     speed     :   0.8386177E-02

........................................................................
.............................. CYCLE    2 ..............................
........................................................................

 iter      E             dE          RMSdq      gap      omega  full diag
   1  -5191.0155630 -0.519102E+04  0.132E-02    3.81       0.0  T
   2  -5191.0156398 -0.768718E-04  0.809E-03    3.81       1.0  T
   3  -5191.0156191  0.207749E-04  0.431E-03    3.81       1.0  T
   4  -5191.0156585 -0.394926E-04  0.115E-03    3.81       1.4  T
   5  -5191.0156622 -0.369082E-05  0.417E-04    3.81       3.9  T
   6  -5191.0156625 -0.264885E-06  0.283E-04    3.81       5.7  T
   7  -5191.0156626 -0.124633E-06  0.202E-04    3.81       8.0  T
     SCC iter.                  ...       24 min, 37.422 sec
     gradient                   ...        5 min,  5.187 sec
 * total energy  : -5103.4681652 Eh     change    :  -0.8026409E-01 Eh
   gradient norm :     0.5954349 Eh/a0  converged?    E=F G=F D=F
   time step     :     0.2500000 fs     power     :   0.3969266E-05
   step length   :     0.1263778 a0     speed     :   0.1222773E-01

........................................................................
.............................. CYCLE    3 ..............................
........................................................................

 iter      E             dE          RMSdq      gap      omega  full diag
   1  -5191.4179511 -0.519142E+04  0.168E-02    3.82       0.0  T
   2  -5191.4180743 -0.123158E-03  0.103E-02    3.82       1.0  T
   3  -5191.4180410  0.332737E-04  0.541E-03    3.82       1.0  T
   4  -5191.4181032 -0.621366E-04  0.145E-03    3.82       1.1  T
   5  -5191.4181091 -0.597635E-05  0.533E-04    3.82       3.0  T
   6  -5191.4181096 -0.421056E-06  0.367E-04    3.82       4.4  T
   7  -5191.4181098 -0.217435E-06  0.264E-04    3.82       6.1  T
     SCC iter.                  ...       24 min, 37.439 sec
     gradient                   ...        5 min,  1.791 sec
 * total energy  : -5103.5551757 Eh     change    :  -0.8701051E-01 Eh
   gradient norm :     0.4969029 Eh/a0  converged?    E=F G=F D=F
   time step     :     0.2500000 fs     power     :   0.4158679E-05
   step length   :     0.1610610 a0     speed     :   0.1558352E-01

........................................................................
.............................. CYCLE    4 ..............................
........................................................................

 iter      E             dE          RMSdq      gap      omega  full diag
   1  -5191.9044062 -0.519190E+04  0.196E-02    3.84       0.0  T
   2  -5191.9045713 -0.165082E-03  0.120E-02    3.84       1.0  T
   3  -5191.9045258  0.454734E-04  0.620E-03    3.84       1.0  T
   4  -5191.9046079 -0.821500E-04  0.168E-03    3.84       1.0  T
   5  -5191.9046161 -0.814300E-05  0.621E-04    3.84       2.6  T
   6  -5191.9046166 -0.548766E-06  0.435E-04    3.84       3.7  T
   7  -5191.9046170 -0.313436E-06  0.312E-04    3.84       5.2  T
     SCC iter.                  ...       24 min, 39.792 sec
     gradient                   ...        5 min,  6.039 sec
 * total energy  : -5103.6368369 Eh     change    :  -0.8166122E-01 Eh
   gradient norm :     0.3978225 Eh/a0  converged?    E=F G=F D=F
   time step     :     0.2500000 fs     power     :   0.3727619E-05
   step length   :     0.1894534 a0     speed     :   0.1833064E-01

........................................................................
.............................. CYCLE    5 ..............................
........................................................................

 iter      E             dE          RMSdq      gap      omega  full diag
   1  -5192.4665523 -0.519247E+04  0.214E-02    3.86       0.0  T
   2  -5192.4667432 -0.190960E-03  0.130E-02    3.86       1.0  T
   3  -5192.4666880  0.552426E-04  0.660E-03    3.86       1.0  T
   4  -5192.4667826 -0.946572E-04  0.182E-03    3.86       1.0  T
   5  -5192.4667923 -0.967258E-05  0.675E-04    3.86       2.4  T
   6  -5192.4667929 -0.608907E-06  0.480E-04    3.86       3.3  T
   7  -5192.4667933 -0.394830E-06  0.343E-04    3.85       4.7  T
     SCC iter.                  ...       24 min, 37.623 sec
     gradient                   ...        4 min, 58.493 sec
 * total energy  : -5103.7039611 Eh     change    :  -0.6712420E-01 Eh
   gradient norm :     0.3212408 Eh/a0  converged?    E=F G=F D=F
   time step     :     0.2500000 fs     power     :   0.2870606E-05
   step length   :     0.2104433 a0     speed     :   0.2036152E-01

........................................................................
.............................. CYCLE    6 ..............................
........................................................................

 iter      E             dE          RMSdq      gap      omega  full diag
   1  -5193.1608896 -0.519316E+04  0.244E-02    3.87       0.0  T
   2  -5193.1611197 -0.230115E-03  0.148E-02    3.87       1.0  T
   3  -5193.1610469  0.728398E-04  0.715E-03    3.87       1.0  T
   4  -5193.1611620 -0.115155E-03  0.201E-03    3.87       1.0  T
   5  -5193.1611742 -0.121734E-04  0.752E-04    3.87       2.1  T
   6  -5193.1611749 -0.682192E-06  0.539E-04    3.87       3.0  T
   7  -5193.1611754 -0.514419E-06  0.380E-04    3.87       4.2  T
     SCC iter.                  ...       24 min, 35.956 sec
     gradient                   ...        4 min, 58.488 sec
 * total energy  : -5103.7568636 Eh     change    :  -0.5290245E-01 Eh
   gradient norm :     0.2929512 Eh/a0  converged?    E=F G=F D=F
   time step     :     0.2750000 fs     power     :   0.1799520E-05
   step length   :     0.2466243 a0     speed     :   0.2169294E-01

........................................................................
.............................. CYCLE    7 ..............................
........................................................................

 iter      E             dE          RMSdq      gap      omega  full diag
   1  -5193.9784606 -0.519398E+04  0.259E-02    3.89       0.0  T
   2  -5193.9786824 -0.221857E-03  0.156E-02    3.89       1.0  T
   3  -5193.9786038  0.786102E-04  0.686E-03    3.89       1.0  T
   4  -5193.9787162 -0.112399E-03  0.201E-03    3.89       1.0  T
   5  -5193.9787288 -0.126027E-04  0.774E-04    3.89       2.1  T
   6  -5193.9787295 -0.643881E-06  0.553E-04    3.88       2.9  T
   7  -5193.9787300 -0.582812E-06  0.383E-04    3.88       4.2  T
     SCC iter.                  ...       24 min, 44.628 sec
     gradient                   ...        5 min,  3.051 sec
 * total energy  : -5103.7939716 Eh     change    :  -0.3710806E-01 Eh
   gradient norm :     0.3227032 Eh/a0  converged?    E=F G=F D=F
   time step     :     0.3025000 fs     power     :   0.9542547E-06
   step length   :     0.2748968 a0     speed     :   0.2198160E-01

........................................................................
.............................. CYCLE    8 ..............................
........................................................................

 iter      E             dE          RMSdq      gap      omega  full diag
   1  -5194.8834557 -0.519488E+04  0.257E-02    3.90       0.0  T
   2  -5194.8836198 -0.164156E-03  0.153E-02    3.90       1.0  T
   3  -5194.8835625  0.572998E-04  0.551E-03    3.90       1.0  T
   4  -5194.8836379 -0.754197E-04  0.177E-03    3.90       1.0  T
   5  -5194.8836480 -0.100463E-04  0.730E-04    3.90       2.2  T
   6  -5194.8836485 -0.550726E-06  0.491E-04    3.90       3.3  T
   7  -5194.8836491 -0.528650E-06  0.334E-04    3.90       4.8  T
     SCC iter.                  ...       24 min, 39.008 sec
     gradient                   ...        4 min, 57.462 sec
 * total energy  : -5103.8236296 Eh     change    :  -0.2965793E-01 Eh
   gradient norm :     0.3662187 Eh/a0  converged?    E=F G=F D=F
   time step     :     0.3327500 fs     power     :   0.6815995E-06
   step length   :     0.2946598 a0     speed     :   0.2141993E-01

........................................................................
.............................. CYCLE    9 ..............................
........................................................................

 iter      E             dE          RMSdq      gap      omega  full diag
   1  -5195.8323643 -0.519583E+04  0.252E-02    3.91       0.0  T
   2  -5195.8324621 -0.978629E-04  0.147E-02    3.91       1.0  T
   3  -5195.8324460  0.160968E-04  0.353E-03    3.91       1.0  T
   4  -5195.8324714 -0.253482E-04  0.123E-03    3.91       1.3  T
   5  -5195.8324755 -0.406722E-05  0.633E-04    3.91       2.5  T
   6  -5195.8324759 -0.447164E-06  0.369E-04    3.91       4.4  T
   7  -5195.8324763 -0.349908E-06  0.258E-04    3.91       6.2  T
     SCC iter.                  ...       24 min, 36.794 sec
     gradient                   ...        5 min,  2.421 sec
 * total energy  : -5103.8590513 Eh     change    :  -0.3542176E-01 Eh
   gradient norm :     0.3779161 Eh/a0  converged?    E=F G=F D=F
   time step     :     0.3660250 fs     power     :   0.9168423E-06
   step length   :     0.3143864 a0     speed     :   0.2077629E-01

........................................................................
.............................. CYCLE   10 ..............................
........................................................................

 iter      E             dE          RMSdq      gap      omega  full diag
   1  -5196.7799833 -0.519678E+04  0.258E-02    3.92       0.0  T
   2  -5196.7800595 -0.762645E-04  0.151E-02    3.92       1.0  T
   3  -5196.7800252  0.343523E-04  0.417E-03    3.92       1.0  T
   4  -5196.7800731 -0.479660E-04  0.108E-03    3.91       1.5  T
   5  -5196.7800758 -0.264734E-05  0.529E-04    3.91       3.0  T
   6  -5196.7800761 -0.270081E-06  0.328E-04    3.91       4.9  T
   7  -5196.7800763 -0.203529E-06  0.201E-04    3.91       8.0  T
     SCC iter.                  ...       24 min, 37.245 sec
     gradient                   ...        4 min, 58.884 sec
 * total energy  : -5103.9070788 Eh     change    :  -0.4802749E-01 Eh
   gradient norm :     0.3334658 Eh/a0  converged?    E=F G=F D=F
   time step     :     0.4026275 fs     power     :   0.1202292E-05
   step length   :     0.3435204 a0     speed     :   0.2063784E-01

........................................................................
.............................. CYCLE   11 ..............................
........................................................................

 iter      E             dE          RMSdq      gap      omega  full diag
   1  -5197.6764994 -0.519768E+04  0.287E-02    3.92       0.0  T
   2  -5197.6766345 -0.135136E-03  0.170E-02    3.92       1.0  T
   3  -5197.6765207  0.113831E-03  0.706E-03    3.92       1.0  T
   4  -5197.6766745 -0.153784E-03  0.138E-03    3.92       1.2  T
   5  -5197.6766789 -0.437557E-05  0.588E-04    3.92       2.7  T
   6  -5197.6766796 -0.752202E-06  0.291E-04    3.92       5.5  T
   7  -5197.6766797 -0.645095E-07  0.148E-04    3.91      10.9  T
     SCC iter.                  ...       24 min, 35.854 sec
     gradient                   ...        4 min, 57.722 sec
 * total energy  : -5103.9570468 Eh     change    :  -0.4996793E-01 Eh
   gradient norm :     0.2357080 Eh/a0  converged?    E=F G=F D=F
   time step     :     0.4428903 fs     power     :   0.9292052E-06
   step length   :     0.3841399 a0     speed     :   0.2098014E-01

........................................................................
.............................. CYCLE   12 ..............................
........................................................................

 iter      E             dE          RMSdq      gap      omega  full diag
   1  -5198.4651266 -0.519847E+04  0.323E-02    3.91       0.0  T
   2  -5198.4653746 -0.248071E-03  0.195E-02    3.91       1.0  T
   3  -5198.4652045  0.170122E-03  0.940E-03    3.91       1.0  T
   4  -5198.4654539 -0.249434E-03  0.179E-03    3.91       1.0  T
   5  -5198.4654620 -0.806299E-05  0.685E-04    3.91       2.3  T
   6  -5198.4654630 -0.991824E-06  0.355E-04    3.91       4.5  T
   7  -5198.4654631 -0.959490E-07  0.211E-04    3.91       7.6  T
     SCC iter.                  ...       24 min, 40.420 sec
     gradient                   ...        4 min, 59.516 sec
 * total energy  : -5103.9807372 Eh     change    :  -0.2369040E-01 Eh
   gradient norm :     0.1702477 Eh/a0  converged?    E=F G=F D=F
   time step     :     0.4871793 fs     power     :  -0.1499065E-06
   step length   :     0.4233277 a0     speed     :   0.2101856E-01

........................................................................
.............................. CYCLE   13 ..............................
........................................................................
 * reset velocities

 iter      E             dE          RMSdq      gap      omega  full diag
   1  -5198.4519019 -0.519845E+04  0.918E-04    3.91       0.0  T
   2  -5198.4519023 -0.420527E-06  0.554E-04    3.91       2.9  T
   3  -5198.4519023  0.853379E-08  0.264E-04    3.91       6.1  T
     SCC iter.                  ...       10 min, 37.747 sec
     gradient                   ...        4 min, 56.204 sec
 * total energy  : -5103.9823256 Eh     change    :  -0.1588459E-02 Eh
   gradient norm :     0.1652022 Eh/a0  converged?    E=F G=F D=F
   time step     :     0.2435896 fs     power     :   0.8521815E-07
   step length   :     0.0094713 a0     speed     :   0.9405130E-03

........................................................................
.............................. CYCLE   14 ..............................
........................................................................

 iter      E             dE          RMSdq      gap      omega  full diag
   1  -5198.4250550 -0.519843E+04  0.180E-03    3.91       0.0  T
   2  -5198.4250564 -0.147472E-05  0.108E-03    3.91       1.5  T
   3  -5198.4250564  0.851423E-07  0.458E-04    3.91       3.5  T
   4  -5198.4250566 -0.234133E-06  0.137E-04    3.91      11.7  T
     SCC iter.                  ...       14 min, 10.922 sec
     gradient                   ...        5 min,  1.465 sec
 * total energy  : -5103.9853161 Eh     change    :  -0.2990486E-02 Eh
   gradient norm :     0.1555017 Eh/a0  converged?    E=F G=F D=F
   time step     :     0.2435896 fs     power     :   0.1578610E-06
   step length   :     0.0186609 a0     speed     :   0.1853059E-02

........................................................................
.............................. CYCLE   15 ..............................
........................................................................

 iter      E             dE          RMSdq      gap      omega  full diag
   1  -5198.3854607 -0.519839E+04  0.259E-03    3.91       0.0  T
   2  -5198.3854638 -0.312028E-05  0.156E-03    3.91       1.0  T
   3  -5198.3854635  0.253734E-06  0.708E-04    3.91       2.3  T
   4  -5198.3854642 -0.634910E-06  0.206E-04    3.91       7.8  T
     SCC iter.                  ...       14 min,  5.781 sec
     gradient                   ...        5 min,  0.196 sec
 * total energy  : -5103.9893679 Eh     change    :  -0.4051803E-02 Eh
   gradient norm :     0.1420933 Eh/a0  converged?    E=F G=F D=F
   time step     :     0.2435896 fs     power     :   0.2102328E-06
   step length   :     0.0273031 a0     speed     :   0.2711238E-02

........................................................................
.............................. CYCLE   16 ..............................
........................................................................

 iter      E             dE          RMSdq      gap      omega  full diag
   1  -5198.3339108 -0.519833E+04  0.331E-03    3.91       0.0  T
   2  -5198.3339158 -0.497257E-05  0.199E-03    3.91       1.0  T
   3  -5198.3339153  0.461196E-06  0.895E-04    3.91       1.8  T
   4  -5198.3339164 -0.105572E-05  0.267E-04    3.91       6.0  T
   5  -5198.3339166 -0.179360E-06  0.969E-05    3.91      16.6  T
     SCC iter.                  ...       17 min, 36.758 sec
     gradient                   ...        4 min, 58.484 sec
 * total energy  : -5103.9940482 Eh     change    :  -0.4680345E-02 Eh
   gradient norm :     0.1263776 Eh/a0  converged?    E=F G=F D=F
   time step     :     0.2435896 fs     power     :   0.2383227E-06
   step length   :     0.0351691 a0     speed     :   0.3492353E-02

........................................................................
.............................. CYCLE   17 ..............................
........................................................................

 iter      E             dE          RMSdq      gap      omega  full diag
   1  -5198.2714669 -0.519827E+04  0.391E-03    3.91       0.0  T
   2  -5198.2714738 -0.683653E-05  0.235E-03    3.91       1.0  T
   3  -5198.2714732  0.612667E-06  0.103E-03    3.91       1.6  T
   4  -5198.2714745 -0.137810E-05  0.310E-04    3.91       5.2  T
   5  -5198.2714748 -0.244139E-06  0.113E-04    3.91      14.2  T
   6  -5198.2714748 -0.158643E-07  0.798E-05    3.91      20.2  T
     SCC iter.                  ...       21 min,  8.788 sec
     gradient                   ...        5 min,  0.816 sec
 * total energy  : -5103.9989110 Eh     change    :  -0.4862716E-02 Eh
   gradient norm :     0.1102769 Eh/a0  converged?    E=F G=F D=F
   time step     :     0.2435896 fs     power     :   0.2425873E-06
   step length   :     0.0420756 a0     speed     :   0.4178176E-02

........................................................................
.............................. CYCLE   18 ..............................
........................................................................

 iter      E             dE          RMSdq      gap      omega  full diag
   1  -5198.1995472 -0.519820E+04  0.438E-03    3.91       0.0  T
   2  -5198.1995553 -0.815252E-05  0.263E-03    3.91       1.0  T
   3  -5198.1995543  0.968546E-06  0.113E-03    3.91       1.4  T
   4  -5198.1995562 -0.184078E-05  0.354E-04    3.91       4.5  T
   5  -5198.1995565 -0.335940E-06  0.122E-04    3.91      13.1  T
   6  -5198.1995565 -0.171885E-07  0.841E-05    3.91      19.1  T
     SCC iter.                  ...       21 min,  8.511 sec
     gradient                   ...        4 min, 59.101 sec
 * total energy  : -5104.0035789 Eh     change    :  -0.4667920E-02 Eh
   gradient norm :     0.0961358 Eh/a0  converged?    E=F G=F D=F
   time step     :     0.2435896 fs     power     :   0.2279889E-06
   step length   :     0.0478825 a0     speed     :   0.4754805E-02

........................................................................
.............................. CYCLE   19 ..............................
........................................................................

 iter      E             dE          RMSdq      gap      omega  full diag
   1  -5198.1113063 -0.519811E+04  0.523E-03    3.91       0.0  T
   2  -5198.1113170 -0.106390E-04  0.314E-03    3.91       1.0  T
   3  -5198.1113153  0.170447E-05  0.130E-03    3.91       1.2  T
   4  -5198.1113181 -0.281421E-05  0.420E-04    3.91       3.8  T
   5  -5198.1113186 -0.495447E-06  0.139E-04    3.91      11.5  T
   6  -5198.1113186 -0.193077E-07  0.929E-05    3.91      17.3  T
     SCC iter.                  ...       21 min,  6.700 sec
     gradient                   ...        5 min,  7.141 sec
 * total energy  : -5104.0082300 Eh     change    :  -0.4651078E-02 Eh
   gradient norm :     0.0853634 Eh/a0  converged?    E=F G=F D=F
   time step     :     0.2679486 fs     power     :   0.1994588E-06
   step length   :     0.0582815 a0     speed     :   0.5261312E-02

........................................................................
.............................. CYCLE   20 ..............................
........................................................................

 iter      E             dE          RMSdq      gap      omega  full diag
   1  -5198.0073410 -0.519801E+04  0.606E-03    3.91       0.0  T
   2  -5198.0073533 -0.122701E-04  0.364E-03    3.91       1.0  T
   3  -5198.0073503  0.296819E-05  0.143E-03    3.91       1.1  T
   4  -5198.0073546 -0.430344E-05  0.470E-04    3.91       3.4  T
   5  -5198.0073553 -0.653580E-06  0.152E-04    3.91      10.6  T
   6  -5198.0073553 -0.182163E-07  0.968E-05    3.91      16.6  T
     SCC iter.                  ...       21 min,  4.672 sec
     gradient                   ...        5 min, 11.187 sec
 * total energy  : -5104.0126426 Eh     change    :  -0.4412629E-02 Eh
   gradient norm :     0.0804909 Eh/a0  converged?    E=F G=F D=F
   time step     :     0.2947435 fs     power     :   0.1663578E-06
   step length   :     0.0689730 a0     speed     :   0.5660441E-02
 * RMSD in coord.:     0.0407631 a0     energy gain  -0.6860421E+00 Eh

........................................................................
.............................. CYCLE   21 ..............................
........................................................................

 iter      E             dE          RMSdq      gap      omega  full diag
   1  -5197.9190786 -0.519792E+04  0.519E-03    3.91       0.0  T
   2  -5197.9190858 -0.720908E-05  0.312E-03    3.91       1.0  T
   3  -5197.9190830  0.283413E-05  0.117E-03    3.91       1.4  T
   4  -5197.9190868 -0.378037E-05  0.370E-04    3.92       4.3  T
   5  -5197.9190872 -0.416861E-06  0.123E-04    3.92      13.1  T
   6  -5197.9190872 -0.982618E-08  0.751E-05    3.92      21.4  T
     SCC iter.                  ...       21 min,  8.106 sec
     gradient                   ...        4 min, 59.080 sec
 * total energy  : -5104.0158843 Eh     change    :  -0.3241736E-02 Eh
   gradient norm :     0.0801826 Eh/a0  converged?    E=F G=F D=F
   time step     :     0.2500000 fs     power     :   0.1491310E-06
   step length   :     0.0602043 a0     speed     :   0.5825093E-02

........................................................................
.............................. CYCLE   22 ..............................
........................................................................

 iter      E             dE          RMSdq      gap      omega  full diag
   1  -5197.8347087 -0.519783E+04  0.520E-03    3.91       0.0  T
   2  -5197.8347140 -0.533938E-05  0.312E-03    3.92       1.0  T
   3  -5197.8347105  0.358734E-05  0.114E-03    3.92       1.4  T
   4  -5197.8347150 -0.456619E-05  0.312E-04    3.92       5.2  T
   5  -5197.8347153 -0.293503E-06  0.108E-04    3.92      14.9  T
   6  -5197.8347153 -0.388081E-08  0.610E-05    3.92      26.4  T
     SCC iter.                  ...       21 min,  6.972 sec
     gradient                   ...        4 min, 59.540 sec
 * total energy  : -5104.0189270 Eh     change    :  -0.3042649E-02 Eh
   gradient norm :     0.0802462 Eh/a0  converged?    E=F G=F D=F
   time step     :     0.2500000 fs     power     :   0.1430887E-06
   step length   :     0.0610482 a0     speed     :   0.5906738E-02

........................................................................
.............................. CYCLE   23 ..............................
........................................................................

 iter      E             dE          RMSdq      gap      omega  full diag
   1  -5197.7574988 -0.519776E+04  0.522E-03    3.92       0.0  T
   2  -5197.7575025 -0.373994E-05  0.314E-03    3.92       1.0  T
   3  -5197.7574983  0.420424E-05  0.112E-03    3.92       1.4  T
   4  -5197.7575036 -0.523043E-05  0.249E-04    3.92       6.5  T
   5  -5197.7575037 -0.172655E-06  0.956E-05    3.92      16.8  T
   6  -5197.7575037 -0.125146E-08  0.513E-05    3.92      31.3  T
     SCC iter.                  ...       21 min,  6.587 sec
     gradient                   ...        4 min, 58.805 sec
 * total energy  : -5104.0219357 Eh     change    :  -0.3008680E-02 Eh
   gradient norm :     0.0789916 Eh/a0  converged?    E=F G=F D=F
   time step     :     0.2500000 fs     power     :   0.1445507E-06
   step length   :     0.0615554 a0     speed     :   0.5955820E-02

........................................................................
.............................. CYCLE   24 ..............................
........................................................................

 iter      E             dE          RMSdq      gap      omega  full diag
   1  -5197.6898533 -0.519769E+04  0.526E-03    3.91       0.0  T
   2  -5197.6898559 -0.261829E-05  0.316E-03    3.92       1.0  T
   3  -5197.6898515  0.447017E-05  0.111E-03    3.91       1.5  T
   4  -5197.6898570 -0.549227E-05  0.201E-04    3.91       8.0  T
   5  -5197.6898571 -0.101581E-06  0.894E-05    3.91      18.0  T
   6  -5197.6898571 -0.238833E-08  0.478E-05    3.91      33.7  T
     SCC iter.                  ...       21 min,  8.965 sec
     gradient                   ...        5 min,  0.188 sec
 * total energy  : -5104.0249863 Eh     change    :  -0.3050631E-02 Eh
   gradient norm :     0.0761202 Eh/a0  converged?    E=F G=F D=F
   time step     :     0.2500000 fs     power     :   0.1485240E-06
   step length   :     0.0620863 a0     speed     :   0.6007181E-02

........................................................................
.............................. CYCLE   25 ..............................
........................................................................

 iter      E             dE          RMSdq      gap      omega  full diag
   1  -5197.6333875 -0.519763E+04  0.531E-03    3.91       0.0  T
   2  -5197.6333894 -0.193844E-05  0.317E-03    3.91       1.0  T
   3  -5197.6333852  0.425854E-05  0.107E-03    3.91       1.5  T
   4  -5197.6333904 -0.519938E-05  0.178E-04    3.91       9.0  T
   5  -5197.6333905 -0.724094E-07  0.923E-05    3.91      17.4  T
   6  -5197.6333905 -0.784803E-08  0.531E-05    3.91      30.3  T
     SCC iter.                  ...       21 min,  7.479 sec
     gradient                   ...        5 min,  6.530 sec
 * total energy  : -5104.0280767 Eh     change    :  -0.3090399E-02 Eh
   gradient norm :     0.0721909 Eh/a0  converged?    E=F G=F D=F
   time step     :     0.2500000 fs     power     :   0.1513066E-06
   step length   :     0.0627862 a0     speed     :   0.6074907E-02

........................................................................
.............................. CYCLE   26 ..............................
........................................................................

 iter      E             dE          RMSdq      gap      omega  full diag
   1  -5197.5848728 -0.519758E+04  0.588E-03    3.91       0.0  T
   2  -5197.5848747 -0.188368E-05  0.351E-03    3.91       1.0  T
   3  -5197.5848704  0.431884E-05  0.107E-03    3.91       1.5  T
   4  -5197.5848757 -0.527377E-05  0.189E-04    3.91       8.5  T
   5  -5197.5848757 -0.769551E-07  0.112E-04    3.91      14.3  T
   6  -5197.5848758 -0.197460E-07  0.728E-05    3.91      22.1  T
     SCC iter.                  ...       21 min,  7.737 sec
     gradient                   ...        4 min, 59.235 sec
 * total energy  : -5104.0314783 Eh     change    :  -0.3401607E-02 Eh
   gradient norm :     0.0676191 Eh/a0  converged?    E=F G=F D=F
   time step     :     0.2750000 fs     power     :   0.1502535E-06
   step length   :     0.0703453 a0     speed     :   0.6187532E-02

........................................................................
.............................. CYCLE   27 ..............................
........................................................................

 iter      E             dE          RMSdq      gap      omega  full diag
   1  -5197.5472981 -0.519755E+04  0.647E-03    3.91       0.0  T
   2  -5197.5473000 -0.191531E-05  0.384E-03    3.91       1.0  T
   3  -5197.5472964  0.356515E-05  0.993E-04    3.91       1.6  T
   4  -5197.5473008 -0.442829E-05  0.212E-04    3.91       7.6  T
   5  -5197.5473009 -0.941263E-07  0.138E-04    3.91      11.7  T
   6  -5197.5473010 -0.345790E-07  0.981E-05    3.91      16.4  T
     SCC iter.                  ...       21 min,  6.628 sec
     gradient                   ...        4 min, 59.846 sec
 * total energy  : -5104.0351297 Eh     change    :  -0.3651378E-02 Eh
   gradient norm :     0.0633098 Eh/a0  converged?    E=F G=F D=F
   time step     :     0.3025000 fs     power     :   0.1450665E-06
   step length   :     0.0791885 a0     speed     :   0.6332158E-02

........................................................................
.............................. CYCLE   28 ..............................
........................................................................

 iter      E             dE          RMSdq      gap      omega  full diag
   1  -5197.5234956 -0.519752E+04  0.699E-03    3.91       0.0  T
   2  -5197.5234975 -0.193604E-05  0.413E-03    3.91       1.0  T
   3  -5197.5234953  0.217302E-05  0.837E-04    3.90       1.9  T
   4  -5197.5234982 -0.290157E-05  0.239E-04    3.90       6.7  T
   5  -5197.5234984 -0.116195E-06  0.161E-04    3.90      10.0  T
   6  -5197.5234984 -0.516175E-07  0.118E-04    3.90      13.7  T
     SCC iter.                  ...       21 min,  8.291 sec
     gradient                   ...        5 min,  4.098 sec
 * total energy  : -5104.0389667 Eh     change    :  -0.3837065E-02 Eh
   gradient norm :     0.0596927 Eh/a0  converged?    E=F G=F D=F
   time step     :     0.3327500 fs     power     :   0.1370604E-06
   step length   :     0.0892622 a0     speed     :   0.6488801E-02

........................................................................
.............................. CYCLE   29 ..............................
........................................................................

 iter      E             dE          RMSdq      gap      omega  full diag
   1  -5197.5157113 -0.519752E+04  0.740E-03    3.90       0.0  T
   2  -5197.5157133 -0.198640E-05  0.436E-03    3.90       1.0  T
   3  -5197.5157118  0.147505E-05  0.786E-04    3.90       2.0  T
   4  -5197.5157141 -0.222494E-05  0.253E-04    3.90       6.4  T
   5  -5197.5157142 -0.107691E-06  0.178E-04    3.90       9.0  T
   6  -5197.5157143 -0.724112E-07  0.125E-04    3.90      12.8  T
     SCC iter.                  ...       21 min, 11.227 sec
     gradient                   ...        4 min, 57.939 sec
 * total energy  : -5104.0429447 Eh     change    :  -0.3977924E-02 Eh
   gradient norm :     0.0567725 Eh/a0  converged?    E=F G=F D=F
   time step     :     0.3660250 fs     power     :   0.1277956E-06
   step length   :     0.1004889 a0     speed     :   0.6640832E-02

........................................................................
.............................. CYCLE   30 ..............................
........................................................................

 iter      E             dE          RMSdq      gap      omega  full diag
   1  -5197.5252948 -0.519753E+04  0.763E-03    3.90       0.0  T
   2  -5197.5252970 -0.221509E-05  0.451E-03    3.90       1.0  T
   3  -5197.5252943  0.265101E-05  0.992E-04    3.90       1.6  T
   4  -5197.5252980 -0.366432E-05  0.250E-04    3.90       6.4  T
   5  -5197.5252981 -0.889750E-07  0.183E-04    3.89       8.8  T
   6  -5197.5252982 -0.794071E-07  0.124E-04    3.89      13.0  T
     SCC iter.                  ...       21 min,  4.791 sec
     gradient                   ...        5 min,  4.451 sec
 * total energy  : -5104.0470476 Eh     change    :  -0.4102904E-02 Eh
   gradient norm :     0.0551520 Eh/a0  converged?    E=F G=F D=F
   time step     :     0.4026275 fs     power     :   0.1188301E-06
   step length   :     0.1128318 a0     speed     :   0.6778647E-02

........................................................................
.............................. CYCLE   31 ..............................
........................................................................

 iter      E             dE          RMSdq      gap      omega  full diag
   1  -5197.5526339 -0.519755E+04  0.768E-03    3.89       0.0  T
   2  -5197.5526365 -0.255821E-05  0.456E-03    3.89       1.0  T
   3  -5197.5526322  0.427212E-05  0.118E-03    3.89       1.4  T
   4  -5197.5526377 -0.553685E-05  0.238E-04    3.89       6.8  T
   5  -5197.5526378 -0.810951E-07  0.170E-04    3.89       9.5  T
   6  -5197.5526379 -0.598284E-07  0.113E-04    3.89      14.2  T
     SCC iter.                  ...       21 min,  5.059 sec
     gradient                   ...        5 min,  7.222 sec
 * total energy  : -5104.0513422 Eh     change    :  -0.4294642E-02 Eh
   gradient norm :     0.0556882 Eh/a0  converged?    E=F G=F D=F
   time step     :     0.4428903 fs     power     :   0.1134557E-06
   step length   :     0.1263004 a0     speed     :   0.6898010E-02

........................................................................
.............................. CYCLE   32 ..............................
........................................................................

 iter      E             dE          RMSdq      gap      omega  full diag
   1  -5197.5976399 -0.519760E+04  0.765E-03    3.89       0.0  T
   2  -5197.5976425 -0.258968E-05  0.456E-03    3.89       1.0  T
   3  -5197.5976387  0.375028E-05  0.107E-03    3.89       1.5  T
   4  -5197.5976435 -0.477577E-05  0.218E-04    3.89       7.4  T
   5  -5197.5976436 -0.744976E-07  0.138E-04    3.89      11.7  T
   6  -5197.5976436 -0.297750E-07  0.908E-05    3.89      17.7  T
     SCC iter.                  ...       21 min,  7.659 sec
     gradient                   ...        5 min,  6.242 sec
 * total energy  : -5104.0560576 Eh     change    :  -0.4715378E-02 Eh
   gradient norm :     0.0563109 Eh/a0  converged?    E=F G=F D=F
   time step     :     0.4871793 fs     power     :   0.1153581E-06
   step length   :     0.1412056 a0     speed     :   0.7010973E-02

........................................................................
.............................. CYCLE   33 ..............................
........................................................................

 iter      E             dE          RMSdq      gap      omega  full diag
   1  -5197.6612087 -0.519766E+04  0.786E-03    3.89       0.0  T
   2  -5197.6612113 -0.266080E-05  0.469E-03    3.89       1.0  T
   3  -5197.6612094  0.196037E-05  0.799E-04    3.89       2.0  T
   4  -5197.6612119 -0.255407E-05  0.223E-04    3.89       7.2  T
   5  -5197.6612120 -0.106178E-06  0.107E-04    3.89      15.0  T
   6  -5197.6612120 -0.962700E-08  0.569E-05    3.89      28.3  T
     SCC iter.                  ...       21 min,  7.234 sec
     gradient                   ...        5 min,  5.251 sec
 * total energy  : -5104.0614357 Eh     change    :  -0.5378071E-02 Eh
   gradient norm :     0.0523374 Eh/a0  converged?    E=F G=F D=F
   time step     :     0.5358972 fs     power     :   0.1203326E-06
   step length   :     0.1586322 a0     speed     :   0.7160196E-02

........................................................................
.............................. CYCLE   34 ..............................
........................................................................

 iter      E             dE          RMSdq      gap      omega  full diag
   1  -5197.7469963 -0.519775E+04  0.857E-03    3.89       0.0  T
   2  -5197.7470004 -0.402028E-05  0.514E-03    3.89       1.0  T
   3  -5197.7469932  0.716744E-05  0.136E-03    3.89       1.2  T
   4  -5197.7470018 -0.856812E-05  0.254E-04    3.89       6.3  T
   5  -5197.7470019 -0.169492E-06  0.118E-04    3.89      13.7  T
   6  -5197.7470019 -0.815726E-08  0.554E-05    3.89      29.0  T
     SCC iter.                  ...       21 min,  9.755 sec
     gradient                   ...        5 min,  4.782 sec
 * total energy  : -5104.0672692 Eh     change    :  -0.5833564E-02 Eh
   gradient norm :     0.0438521 Eh/a0  converged?    E=F G=F D=F
   time step     :     0.5894869 fs     power     :   0.1143063E-06
   step length   :     0.1798202 a0     speed     :   0.7378693E-02

........................................................................
.............................. CYCLE   35 ..............................
........................................................................

 iter      E             dE          RMSdq      gap      omega  full diag
   1  -5197.8618366 -0.519786E+04  0.941E-03    3.89       0.0  T
   2  -5197.8618428 -0.614106E-05  0.570E-03    3.89       1.0  T
   3  -5197.8618246  0.181857E-04  0.212E-03    3.89       1.0  T
   4  -5197.8618466 -0.220386E-04  0.291E-04    3.89       5.5  T
   5  -5197.8618468 -0.198167E-06  0.141E-04    3.89      11.4  T
   6  -5197.8618468 -0.107812E-07  0.667E-05    3.89      24.1  T
     SCC iter.                  ...       21 min,  7.501 sec
     gradient                   ...        5 min,  2.166 sec
 * total energy  : -5104.0728746 Eh     change    :  -0.5605367E-02 Eh
   gradient norm :     0.0412655 Eh/a0  converged?    E=F G=F D=F
   time step     :     0.6484356 fs     power     :   0.9381399E-07
   step length   :     0.2043000 a0     speed     :   0.7621083E-02

........................................................................
.............................. CYCLE   36 ..............................
........................................................................

 iter      E             dE          RMSdq      gap      omega  full diag
   1  -5198.0080360 -0.519801E+04  0.972E-03    3.89       0.0  T
   2  -5198.0080426 -0.667290E-05  0.593E-03    3.89       1.0  T
   3  -5198.0080193  0.233108E-04  0.236E-03    3.89       1.0  T
   4  -5198.0080475 -0.282140E-04  0.286E-04    3.89       5.6  T
   5  -5198.0080477 -0.157497E-06  0.141E-04    3.89      11.4  T
   6  -5198.0080477 -0.906766E-08  0.666E-05    3.89      24.2  T
     SCC iter.                  ...       21 min,  6.263 sec
     gradient                   ...        4 min, 58.198 sec
 * total energy  : -5104.0781411 Eh     change    :  -0.5266526E-02 Eh
   gradient norm :     0.0431285 Eh/a0  converged?    E=F G=F D=F
   time step     :     0.7132792 fs     power     :   0.7988486E-07
   step length   :     0.2286404 a0     speed     :   0.7753691E-02

........................................................................
.............................. CYCLE   37 ..............................
........................................................................

 iter      E             dE          RMSdq      gap      omega  full diag
   1  -5198.1721131 -0.519817E+04  0.100E-02    3.89       0.0  T
   2  -5198.1721216 -0.850851E-05  0.602E-03    3.89       1.0  T
   3  -5198.1721056  0.159323E-04  0.220E-03    3.89       1.0  T
   4  -5198.1721251 -0.194599E-04  0.347E-04    3.89       4.6  T
   5  -5198.1721254 -0.306912E-06  0.148E-04    3.89      10.9  T
   6  -5198.1721254 -0.903947E-08  0.814E-05    3.89      19.8  T
     SCC iter.                  ...       21 min,  8.730 sec
     gradient                   ...        4 min, 59.641 sec
 * total energy  : -5104.0834502 Eh     change    :  -0.5309094E-02 Eh
   gradient norm :     0.0401880 Eh/a0  converged?    E=F G=F D=F
   time step     :     0.7846071 fs     power     :   0.7220775E-07
   step length   :     0.2532544 a0     speed     :   0.7807640E-02

........................................................................
.............................. CYCLE   38 ..............................
........................................................................

 iter      E             dE          RMSdq      gap      omega  full diag
   1  -5198.3184426 -0.519832E+04  0.103E-02    3.89       0.0  T
   2  -5198.3184517 -0.906432E-05  0.608E-03    3.89       1.0  T
   3  -5198.3184435  0.823453E-05  0.184E-03    3.89       1.0  T
   4  -5198.3184538 -0.103211E-04  0.349E-04    3.89       4.6  T
   5  -5198.3184541 -0.280708E-06  0.153E-04    3.89      10.5  T
   6  -5198.3184541 -0.131267E-07  0.883E-05    3.89      18.2  T
     SCC iter.                  ...       21 min,  5.249 sec
     gradient                   ...        4 min, 59.003 sec
 * total energy  : -5104.0887176 Eh     change    :  -0.5267358E-02 Eh
   gradient norm :     0.0424613 Eh/a0  converged?    E=F G=F D=F
   time step     :     0.8630678 fs     power     :   0.6348278E-07
   step length   :     0.2801437 a0     speed     :   0.7851471E-02

........................................................................
.............................. CYCLE   39 ..............................
........................................................................

 iter      E             dE          RMSdq      gap      omega  full diag
   1  -5198.3967564 -0.519840E+04  0.104E-02    3.89       0.0  T
   2  -5198.3967610 -0.464337E-05  0.613E-03    3.89       1.0  T
   3  -5198.3967545  0.657057E-05  0.142E-03    3.89       1.1  T
   4  -5198.3967625 -0.804861E-05  0.265E-04    3.89       6.1  T
   5  -5198.3967626 -0.140133E-06  0.132E-04    3.89      12.2  T
   6  -5198.3967627 -0.761065E-08  0.566E-05    3.89      28.4  T
     SCC iter.                  ...       21 min,  8.643 sec
     gradient                   ...        4 min, 56.953 sec
 * total energy  : -5104.0945340 Eh     change    :  -0.5816479E-02 Eh
   gradient norm :     0.0420652 Eh/a0  converged?    E=F G=F D=F
   time step     :     0.9493746 fs     power     :   0.6730287E-07
   step length   :     0.3086519 a0     speed     :   0.7864054E-02

........................................................................
.............................. CYCLE   40 ..............................
........................................................................

 iter      E             dE          RMSdq      gap      omega  full diag
   1  -5198.3730871 -0.519837E+04  0.108E-02    3.89       0.0  T
   2  -5198.3730958 -0.870483E-05  0.655E-03    3.89       1.0  T
   3  -5198.3730794  0.163637E-04  0.208E-03    3.89       1.0  T
   4  -5198.3730995 -0.200208E-04  0.367E-04    3.89       4.4  T
   5  -5198.3730997 -0.288947E-06  0.222E-04    3.89       7.2  T
   6  -5198.3730998 -0.494811E-07  0.144E-04    3.89      11.2  T
     SCC iter.                  ...       21 min,  7.984 sec
     gradient                   ...        4 min, 58.378 sec
 * total energy  : -5104.1011520 Eh     change    :  -0.6617991E-02 Eh
   gradient norm :     0.0390614 Eh/a0  converged?    E=F G=F D=F
   time step     :     1.0443120 fs     power     :   0.6793248E-07
   step length   :     0.3435760 a0     speed     :   0.7958068E-02

........................................................................
.............................. CYCLE   41 ..............................
........................................................................

 iter      E             dE          RMSdq      gap      omega  full diag
   1  -5198.2679109 -0.519827E+04  0.122E-02    3.88       0.0  T
   2  -5198.2679278 -0.168622E-04  0.732E-03    3.89       1.0  T
   3  -5198.2679124  0.153765E-04  0.225E-03    3.89       1.0  T
   4  -5198.2679316 -0.191787E-04  0.541E-04    3.89       3.0  T
   5  -5198.2679325 -0.854534E-06  0.267E-04    3.89       6.0  T
   6  -5198.2679325 -0.658511E-07  0.175E-04    3.89       9.2  T
     SCC iter.                  ...       21 min, 11.258 sec
     gradient                   ...        5 min,  3.058 sec
 * total energy  : -5104.1080135 Eh     change    :  -0.6861453E-02 Eh
   gradient norm :     0.0356075 Eh/a0  converged?    E=F G=F D=F
   time step     :     1.1487432 fs     power     :   0.5985546E-07
   step length   :     0.3848398 a0     speed     :   0.8103490E-02

........................................................................
.............................. CYCLE   42 ..............................
........................................................................

 iter      E             dE          RMSdq      gap      omega  full diag
   1  -5198.1604211 -0.519816E+04  0.134E-02    3.88       0.0  T
   2  -5198.1604305 -0.932493E-05  0.799E-03    3.88       1.0  T
   3  -5198.1604133  0.171544E-04  0.249E-03    3.88       1.0  T
   4  -5198.1604344 -0.211197E-04  0.372E-04    3.88       4.3  T
   5  -5198.1604346 -0.193360E-06  0.197E-04    3.88       8.2  T
   6  -5198.1604346 -0.188738E-07  0.929E-05    3.88      17.3  T
     SCC iter.                  ...       21 min,  6.398 sec
     gradient                   ...        5 min,  0.653 sec
 * total energy  : -5104.1145962 Eh     change    :  -0.6582660E-02 Eh
   gradient norm :     0.0372590 Eh/a0  converged?    E=F G=F D=F
   time step     :     1.2500000 fs     power     :   0.5175233E-07
   step length   :     0.4241779 a0     speed     :   0.8208298E-02
 * RMSD in coord.:     0.0546109 a0     energy gain  -0.1019536E+00 Eh

........................................................................
.............................. CYCLE   43 ..............................
........................................................................

 iter      E             dE          RMSdq      gap      omega  full diag
   1  -5198.1475197 -0.519815E+04  0.229E-03    3.88       0.0  T
   2  -5198.1475200 -0.303324E-06  0.139E-03    3.88       1.2  T
   3  -5198.1475189  0.114451E-05  0.542E-04    3.88       3.0  T
   4  -5198.1475202 -0.137841E-05  0.671E-05    3.88      24.0  T
   5  -5198.1475202 -0.841283E-08  0.385E-05    3.88      41.8  T
   6  -5198.1475202 -0.163254E-08  0.208E-05    3.88      77.5  T
     SCC iter.                  ...       21 min,  7.416 sec
     gradient                   ...        4 min, 58.889 sec
 * total energy  : -5104.1158275 Eh     change    :  -0.1231349E-02 Eh
   gradient norm :     0.0365016 Eh/a0  converged?    E=F G=F D=F
   time step     :     0.2500000 fs     power     :   0.6300248E-07
   step length   :     0.0802861 a0     speed     :   0.7768116E-02

........................................................................
.............................. CYCLE   44 ..............................
........................................................................

 iter      E             dE          RMSdq      gap      omega  full diag
   1  -5198.1432686 -0.519814E+04  0.229E-03    3.88       0.0  T
   2  -5198.1432692 -0.570201E-06  0.142E-03    3.88       1.1  T
   3  -5198.1432677  0.144991E-05  0.637E-04    3.88       2.5  T
   4  -5198.1432696 -0.189053E-05  0.800E-05    3.88      20.1  T
   5  -5198.1432696 -0.174550E-07  0.362E-05    3.88      44.4  T
   6  -5198.1432696 -0.101591E-08  0.196E-05    3.88      82.2  T
     SCC iter.                  ...       21 min,  8.214 sec
     gradient                   ...        4 min, 55.650 sec
 * total energy  : -5104.1172076 Eh     change    :  -0.1380078E-02 Eh
   gradient norm :     0.0327981 Eh/a0  converged?    E=F G=F D=F
   time step     :     0.2500000 fs     power     :   0.7009514E-07
   step length   :     0.0769394 a0     speed     :   0.7444301E-02

........................................................................
.............................. CYCLE   45 ..............................
........................................................................

 iter      E             dE          RMSdq      gap      omega  full diag
   1  -5198.1476880 -0.519815E+04  0.248E-03    3.88       0.0  T
   2  -5198.1476889 -0.901262E-06  0.157E-03    3.88       1.0  T
   3  -5198.1476873  0.165328E-05  0.728E-04    3.88       2.2  T
   4  -5198.1476896 -0.232035E-05  0.988E-05    3.88      16.3  T
   5  -5198.1476896 -0.275168E-07  0.442E-05    3.88      36.4  T
   6  -5198.1476896 -0.164346E-08  0.255E-05    3.88      63.0  T
     SCC iter.                  ...       21 min,  8.527 sec
     gradient                   ...        5 min,  2.064 sec
 * total energy  : -5104.1186233 Eh     change    :  -0.1415759E-02 Eh
   gradient norm :     0.0284347 Eh/a0  converged?    E=F G=F D=F
   time step     :     0.2500000 fs     power     :   0.7044471E-07
   step length   :     0.0747283 a0     speed     :   0.7230368E-02

........................................................................
.............................. CYCLE   46 ..............................
........................................................................

 iter      E             dE          RMSdq      gap      omega  full diag
   1  -5198.1608311 -0.519816E+04  0.268E-03    3.89       0.0  T
   2  -5198.1608320 -0.982895E-06  0.168E-03    3.89       1.0  T
   3  -5198.1608301  0.197591E-05  0.771E-04    3.88       2.1  T
   4  -5198.1608328 -0.269008E-05  0.104E-04    3.89      15.4  T
   5  -5198.1608328 -0.282507E-07  0.502E-05    3.89      32.0  T
   6  -5198.1608328 -0.204454E-08  0.293E-05    3.89      54.9  T
     SCC iter.                  ...       21 min,  2.705 sec
     gradient                   ...        5 min,  0.472 sec
 * total energy  : -5104.1199745 Eh     change    :  -0.1351153E-02 Eh
   gradient norm :     0.0260462 Eh/a0  converged?    E=F G=F D=F
   time step     :     0.2500000 fs     power     :   0.6622518E-07
   step length   :     0.0733120 a0     speed     :   0.7093328E-02

........................................................................
.............................. CYCLE   47 ..............................
........................................................................

 iter      E             dE          RMSdq      gap      omega  full diag
   1  -5198.1820579 -0.519818E+04  0.273E-03    3.89       0.0  T
   2  -5198.1820586 -0.737068E-06  0.168E-03    3.89       1.0  T
   3  -5198.1820566  0.198434E-05  0.715E-04    3.89       2.2  T
   4  -5198.1820591 -0.249853E-05  0.961E-05    3.89      16.7  T
   5  -5198.1820591 -0.207674E-07  0.505E-05    3.89      31.9  T
   6  -5198.1820591 -0.210457E-08  0.291E-05    3.89      55.2  T
     SCC iter.                  ...       21 min,  5.069 sec
     gradient                   ...        4 min, 57.319 sec
 * total energy  : -5104.1212363 Eh     change    :  -0.1261825E-02 Eh
   gradient norm :     0.0261069 Eh/a0  converged?    E=F G=F D=F
   time step     :     0.2500000 fs     power     :   0.6207445E-07
   step length   :     0.0720809 a0     speed     :   0.6974217E-02

........................................................................
.............................. CYCLE   48 ..............................
........................................................................

 iter      E             dE          RMSdq      gap      omega  full diag
   1  -5198.2125712 -0.519821E+04  0.293E-03    3.89       0.0  T
   2  -5198.2125717 -0.499477E-06  0.175E-03    3.89       1.0  T
   3  -5198.2125703  0.144571E-05  0.598E-04    3.89       2.7  T
   4  -5198.2125720 -0.173740E-05  0.905E-05    3.89      17.8  T
   5  -5198.2125721 -0.164819E-07  0.499E-05    3.89      32.2  T
   6  -5198.2125721 -0.191812E-08  0.269E-05    3.89      59.9  T
     SCC iter.                  ...       21 min,  6.797 sec
     gradient                   ...        5 min,  2.633 sec
 * total energy  : -5104.1225655 Eh     change    :  -0.1329213E-02 Eh
   gradient norm :     0.0268355 Eh/a0  converged?    E=F G=F D=F
   time step     :     0.2750000 fs     power     :   0.6006504E-07
   step length   :     0.0778163 a0     speed     :   0.6844674E-02

........................................................................
.............................. CYCLE   49 ..............................
........................................................................

 iter      E             dE          RMSdq      gap      omega  full diag
   1  -5198.2513523 -0.519825E+04  0.307E-03    3.89       0.0  T
   2  -5198.2513526 -0.352139E-06  0.182E-03    3.89       1.0  T
   3  -5198.2513521  0.544120E-06  0.436E-04    3.89       3.7  T
   4  -5198.2513528 -0.688781E-06  0.804E-05    3.89      20.0  T
     SCC iter.                  ...       14 min,  6.061 sec
     gradient                   ...        4 min, 59.011 sec
 * total energy  : -5104.1240098 Eh     change    :  -0.1444287E-02 Eh
   gradient norm :     0.0266450 Eh/a0  converged?    E=F G=F D=F
   time step     :     0.3025000 fs     power     :   0.5988933E-07
   step length   :     0.0839945 a0     speed     :   0.6716458E-02

........................................................................
.............................. CYCLE   50 ..............................
........................................................................

 iter      E             dE          RMSdq      gap      omega  full diag
   1  -5198.2965686 -0.519830E+04  0.323E-03    3.89       0.0  T
   2  -5198.2965690 -0.392664E-06  0.192E-03    3.89       1.0  T
   3  -5198.2965682  0.775139E-06  0.494E-04    3.89       3.3  T
   4  -5198.2965692 -0.965134E-06  0.766E-05    3.89      21.0  T
     SCC iter.                  ...       14 min,  5.183 sec
     gradient                   ...        5 min,  2.922 sec
 * total energy  : -5104.1255915 Eh     change    :  -0.1581674E-02 Eh
   gradient norm :     0.0251686 Eh/a0  converged?    E=F G=F D=F
   time step     :     0.3327500 fs     power     :   0.5953623E-07
   step length   :     0.0910331 a0     speed     :   0.6617540E-02

........................................................................
.............................. CYCLE   51 ..............................
........................................................................

 iter      E             dE          RMSdq      gap      omega  full diag
   1  -5198.3451426 -0.519835E+04  0.342E-03    3.89       0.0  T
   2  -5198.3451432 -0.554475E-06  0.205E-03    3.89       1.0  T
   3  -5198.3451415  0.166310E-05  0.632E-04    3.89       2.5  T
   4  -5198.3451435 -0.199252E-05  0.880E-05    3.89      18.3  T
   5  -5198.3451435 -0.120926E-07  0.495E-05    3.89      32.5  T
   6  -5198.3451435 -0.172804E-08  0.236E-05    3.89      68.2  T
     SCC iter.                  ...       21 min, 12.338 sec
     gradient                   ...        5 min,  7.642 sec
 * total energy  : -5104.1272863 Eh     change    :  -0.1694766E-02 Eh
   gradient norm :     0.0230203 Eh/a0  converged?    E=F G=F D=F
   time step     :     0.3660250 fs     power     :   0.5733861E-07
   step length   :     0.0992931 a0     speed     :   0.6561807E-02

........................................................................
.............................. CYCLE   52 ..............................
........................................................................

 iter      E             dE          RMSdq      gap      omega  full diag
   1  -5198.3920922 -0.519839E+04  0.363E-03    3.89       0.0  T
   2  -5198.3920928 -0.654275E-06  0.217E-03    3.89       1.0  T
   3  -5198.3920914  0.141939E-05  0.599E-04    3.89       2.7  T
   4  -5198.3920931 -0.171595E-05  0.103E-04    3.89      15.6  T
   5  -5198.3920932 -0.212367E-07  0.532E-05    3.89      30.2  T
   6  -5198.3920932 -0.935870E-09  0.234E-05    3.89      68.7  T
     SCC iter.                  ...       21 min,  7.374 sec
     gradient                   ...        5 min,  2.347 sec
 * total energy  : -5104.1290401 Eh     change    :  -0.1753833E-02 Eh
   gradient norm :     0.0214744 Eh/a0  converged?    E=F G=F D=F
   time step     :     0.4026275 fs     power     :   0.5312172E-07
   step length   :     0.1088809 a0     speed     :   0.6541290E-02

........................................................................
.............................. CYCLE   53 ..............................
........................................................................

 iter      E             dE          RMSdq      gap      omega  full diag
   1  -5198.4305741 -0.519843E+04  0.381E-03    3.89       0.0  T
   2  -5198.4305748 -0.738031E-06  0.226E-03    3.89       1.0  T
   3  -5198.4305739  0.969103E-06  0.577E-04    3.89       2.8  T
   4  -5198.4305751 -0.123546E-05  0.106E-04    3.89      15.2  T
   5  -5198.4305751 -0.188766E-07  0.606E-05    3.89      26.6  T
     SCC iter.                  ...       17 min, 39.563 sec
     gradient                   ...        4 min, 59.031 sec
 * total energy  : -5104.1308235 Eh     change    :  -0.1783443E-02 Eh
   gradient norm :     0.0220348 Eh/a0  converged?    E=F G=F D=F
   time step     :     0.4428903 fs     power     :   0.4892405E-07
   step length   :     0.1194713 a0     speed     :   0.6525030E-02

........................................................................
.............................. CYCLE   54 ..............................
........................................................................

 iter      E             dE          RMSdq      gap      omega  full diag
   1  -5198.4544208 -0.519845E+04  0.394E-03    3.89       0.0  T
   2  -5198.4544216 -0.881513E-06  0.235E-03    3.89       1.0  T
   3  -5198.4544190  0.260531E-05  0.826E-04    3.89       1.9  T
   4  -5198.4544222 -0.316167E-05  0.115E-04    3.89      13.9  T
   5  -5198.4544222 -0.256787E-07  0.705E-05    3.89      22.8  T
   6  -5198.4544222 -0.495129E-08  0.389E-05    3.89      41.3  T
     SCC iter.                  ...       21 min,  8.929 sec
     gradient                   ...        4 min, 57.005 sec
 * total energy  : -5104.1327053 Eh     change    :  -0.1881783E-02 Eh
   gradient norm :     0.0233293 Eh/a0  converged?    E=F G=F D=F
   time step     :     0.4871793 fs     power     :   0.4780943E-07
   step length   :     0.1304674 a0     speed     :   0.6477812E-02

........................................................................
.............................. CYCLE   55 ..............................
........................................................................

 iter      E             dE          RMSdq      gap      omega  full diag
   1  -5198.4605891 -0.519846E+04  0.418E-03    3.89       0.0  T
   2  -5198.4605902 -0.106912E-05  0.250E-03    3.89       1.0  T
   3  -5198.4605859  0.432500E-05  0.103E-03    3.89       1.6  T
   4  -5198.4605911 -0.521937E-05  0.111E-04    3.89      14.5  T
   5  -5198.4605911 -0.178779E-07  0.689E-05    3.89      23.4  T
   6  -5198.4605911 -0.413547E-08  0.380E-05    3.89      42.3  T
     SCC iter.                  ...       21 min,  5.005 sec
     gradient                   ...        5 min,  3.024 sec
 * total energy  : -5104.1347927 Eh     change    :  -0.2087380E-02 Eh
   gradient norm :     0.0220055 Eh/a0  converged?    E=F G=F D=F
   time step     :     0.5358972 fs     power     :   0.4865826E-07
   step length   :     0.1423830 a0     speed     :   0.6426755E-02

........................................................................
.............................. CYCLE   56 ..............................
........................................................................

 iter      E             dE          RMSdq      gap      omega  full diag
   1  -5198.4487384 -0.519845E+04  0.456E-03    3.89       0.0  T
   2  -5198.4487396 -0.123044E-05  0.272E-03    3.89       1.0  T
   3  -5198.4487360  0.362656E-05  0.101E-03    3.89       1.6  T
   4  -5198.4487403 -0.435647E-05  0.124E-04    3.89      12.9  T
   5  -5198.4487404 -0.298269E-07  0.660E-05    3.89      24.4  T
   6  -5198.4487404 -0.207729E-08  0.308E-05    3.89      52.1  T
     SCC iter.                  ...       21 min,  6.465 sec
     gradient                   ...        4 min, 58.651 sec
 * total energy  : -5104.1370482 Eh     change    :  -0.2255514E-02 Eh
   gradient norm :     0.0191142 Eh/a0  converged?    E=F G=F D=F
   time step     :     0.5894869 fs     power     :   0.4664180E-07
   step length   :     0.1566378 a0     speed     :   0.6427431E-02

........................................................................
.............................. CYCLE   57 ..............................
........................................................................

 iter      E             dE          RMSdq      gap      omega  full diag
   1  -5198.4220454 -0.519842E+04  0.489E-03    3.89       0.0  T
   2  -5198.4220465 -0.108254E-05  0.291E-03    3.89       1.0  T
   3  -5198.4220447  0.182854E-05  0.799E-04    3.89       2.0  T
   4  -5198.4220469 -0.225574E-05  0.121E-04    3.89      13.3  T
   5  -5198.4220469 -0.182499E-07  0.675E-05    3.89      23.8  T
   6  -5198.4220469 -0.223099E-08  0.312E-05    3.89      51.6  T
     SCC iter.                  ...       21 min, 10.277 sec
     gradient                   ...        5 min,  3.400 sec
 * total energy  : -5104.1393378 Eh     change    :  -0.2289595E-02 Eh
   gradient norm :     0.0190936 Eh/a0  converged?    E=F G=F D=F
   time step     :     0.6484356 fs     power     :   0.4221503E-07
   step length   :     0.1734849 a0     speed     :   0.6471572E-02

[...]
  3615   6 C     3616   6 C                                       1.5400031
  3617   6 C     3618   6 C                                       1.3888747
  3618   6 C     3619   6 C                                       1.3840499
  3619   6 C     3620   6 C                                       1.3829546
  3620   6 C     3621   6 C                                       1.3847210
  3617   6 C     3622   6 C                                       1.3908955
  3621   6 C     3622   6 C                                       1.3830223
  3616   6 C     3623   6 C                                       1.5316643
  3623   6 C     3624   6 C                                       1.5387462
  3625   6 C     3626   6 C                                       1.3892795
  3626   6 C     3627   6 C                                       1.3847856
  3627   6 C     3628   6 C                                       1.3834242
  3628   6 C     3629   6 C                                       1.3848373
  3625   6 C     3630   6 C                                       1.3914241
  3629   6 C     3630   6 C                                       1.3829108
  3624   6 C     3631   6 C                                       1.5381421
  3631   6 C     3632   6 C                                       1.5393715
  3633   6 C     3634   6 C                                       1.3886780
  3634   6 C     3635   6 C                                       1.3838294
  3635   6 C     3636   6 C                                       1.3834172
  3636   6 C     3637   6 C                                       1.3831736
  3633   6 C     3638   6 C                                       1.3887719
  3637   6 C     3638   6 C                                       1.3827998
  3632   6 C     3639   6 C                                       1.5361621
  3641   6 C     3642   6 C                                       1.3880061
  3642   6 C     3643   6 C                                       1.3834298
  3643   6 C     3644   6 C                                       1.3837615
  3644   6 C     3645   6 C                                       1.3843424
  3641   6 C     3646   6 C                                       1.3896019
  3645   6 C     3646   6 C                                       1.3825411
  3640   6 C     3647   6 C                                       1.5354181
  3647   6 C     3648   6 C                                       1.5377847
  3649   6 C     3650   6 C                                       1.3905311
  3650   6 C     3651   6 C                                       1.3838362
  3651   6 C     3652   6 C                                       1.3846463
  3652   6 C     3653   6 C                                       1.3839954
  3649   6 C     3654   6 C                                       1.3900176
  3653   6 C     3654   6 C                                       1.3836298
  3655   6 C     3656   6 C                                       1.5358015
  3657   6 C     3658   6 C                                       1.3908523
  3658   6 C     3659   6 C                                       1.3826752
  3659   6 C     3660   6 C                                       1.3837036
  3660   6 C     3661   6 C                                       1.3825853
  3657   6 C     3662   6 C                                       1.3892272
  3661   6 C     3662   6 C                                       1.3836892
  3656   6 C     3663   6 C                                       1.5394252
  3663   6 C     3664   6 C                                       1.5391639
  3665   6 C     3666   6 C                                       1.3890203
  3666   6 C     3667   6 C                                       1.3836867
  3667   6 C     3668   6 C                                       1.3838423
  3668   6 C     3669   6 C                                       1.3846294
  3665   6 C     3670   6 C                                       1.3901887
  3669   6 C     3670   6 C                                       1.3828144
  3664   6 C     3671   6 C                                       1.5349799
  3671   6 C     3672   6 C                                       1.5345966
  3673   6 C     3674   6 C                                       1.3884264
  3674   6 C     3675   6 C                                       1.3835687
  3675   6 C     3676   6 C                                       1.3841794
  3676   6 C     3677   6 C                                       1.3845493
  3673   6 C     3678   6 C                                       1.3907174
  3677   6 C     3678   6 C                                       1.3823361
  3672   6 C     3679   6 C                                       1.5356441
  3679   6 C     3680   6 C                                       1.5346390
  3681   6 C     3682   6 C                                       1.3899669
  3682   6 C     3683   6 C                                       1.3826737
  3683   6 C     3684   6 C                                       1.3846097
  3684   6 C     3685   6 C                                       1.3840568
  3681   6 C     3686   6 C                                       1.3890079
  3685   6 C     3686   6 C                                       1.3838119
  3680   6 C     3687   6 C                                       1.5356205
  3687   6 C     3688   6 C                                       1.5356138
  3549   6 C     3689   1 H                                       1.0963510
  3551   6 C     3690   1 H                                       1.0941679
  3551   6 C     3691   1 H                                       1.0909770
  3552   6 C     3692   1 H                                       1.0935877
  3559   6 C     3693   1 H                                       1.0896061
  3559   6 C     3694   1 H                                       1.0915251
  3560   6 C     3695   1 H                                       1.0971386
  3567   6 C     3696   1 H                                       1.0905628
  3567   6 C     3697   1 H                                       1.0921023
  3568   6 C     3698   1 H                                       1.0957980
  3575   6 C     3699   1 H                                       1.0919016
  3576   6 C     3700   1 H                                       1.0950593
  3583   6 C     3701   1 H                                       1.0918666
  3583   6 C     3702   1 H                                       1.0921732
  3584   6 C     3703   1 H                                       1.0952796
  3591   6 C     3704   1 H                                       1.0914026
  3591   6 C     3705   1 H                                       1.0935848
  3592   6 C     3706   1 H                                       1.0960663
  3599   6 C     3707   1 H                                       1.0888875
  3599   6 C     3708   1 H                                       1.0907699
  3600   6 C     3709   1 H                                       1.0946224
  3608   6 C     3710   1 H                                       1.0963981
  3615   6 C     3711   1 H                                       1.0909960
  3615   6 C     3712   1 H                                       1.0898516
  3616   6 C     3713   1 H                                       1.0948440
  3623   6 C     3714   1 H                                       1.0931762
  3623   6 C     3715   1 H                                       1.0896682
  3624   6 C     3716   1 H                                       1.0966960
  3631   6 C     3717   1 H                                       1.0905356
  3631   6 C     3718   1 H                                       1.0904569
  3632   6 C     3719   1 H                                       1.0939009
  3639   6 C     3720   1 H                                       1.0917548
  3639   6 C     3721   1 H                                       1.0926912
  3640   6 C     3722   1 H                                       1.0938679
  3647   6 C     3723   1 H                                       1.0916227
  3647   6 C     3724   1 H                                       1.0898462
  3648   6 C     3725   1 H                                       1.0959926
  3655   6 C     3726   1 H                                       1.0910117
  3655   6 C     3727   1 H                                       1.0904103
  3656   6 C     3728   1 H                                       1.0941269
  3663   6 C     3729   1 H                                       1.0932911
  3663   6 C     3730   1 H                                       1.0924532
  3664   6 C     3731   1 H                                       1.0944222
  3671   6 C     3732   1 H                                       1.0895651
  3671   6 C     3733   1 H                                       1.0916119
  3672   6 C     3734   1 H                                       1.0964542
  3679   6 C     3735   1 H                                       1.0920446
  3679   6 C     3736   1 H                                       1.0915155
  3543   6 C     3737   1 H                                       1.0794568
  3548   6 C     3738   1 H                                       1.0800381
  3547   6 C     3739   1 H                                       1.0799264
  3546   6 C     3740   1 H                                       1.0808581
  3545   6 C     3741   1 H                                       1.0812513
  3554   6 C     3742   1 H                                       1.0818682
  3555   6 C     3743   1 H                                       1.0810821
  3556   6 C     3744   1 H                                       1.0799489
  3557   6 C     3745   1 H                                       1.0817527
  3558   6 C     3746   1 H                                       1.0797680
  3562   6 C     3747   1 H                                       1.0827765
  3563   6 C     3748   1 H                                       1.0815333
  3564   6 C     3749   1 H                                       1.0805395
  3565   6 C     3750   1 H                                       1.0802167
  3566   6 C     3751   1 H                                       1.0794611
  3570   6 C     3752   1 H                                       1.0807802
  3571   6 C     3753   1 H                                       1.0818088
  3572   6 C     3754   1 H                                       1.0795698
  3573   6 C     3755   1 H                                       1.0811747
  3574   6 C     3756   1 H                                       1.0823356
  3575   6 C     3757   1 H                                       1.0916699
  3578   6 C     3758   1 H                                       1.0813546
  3579   6 C     3759   1 H                                       1.0804269
  3580   6 C     3760   1 H                                       1.0806442
  3581   6 C     3761   1 H                                       1.0810232
  3582   6 C     3762   1 H                                       1.0807163
  3586   6 C     3763   1 H                                       1.0804383
  3587   6 C     3764   1 H                                       1.0803787
  3588   6 C     3765   1 H                                       1.0803113
  3589   6 C     3766   1 H                                       1.0811512
  3590   6 C     3767   1 H                                       1.0807722
  3594   6 C     3768   1 H                                       1.0809131
  3595   6 C     3769   1 H                                       1.0812720
  3596   6 C     3770   1 H                                       1.0807173
  3597   6 C     3771   1 H                                       1.0796003
  3598   6 C     3772   1 H                                       1.0808068
  3602   6 C     3773   1 H                                       1.0809409
  3603   6 C     3774   1 H                                       1.0818761
  3604   6 C     3775   1 H                                       1.0799632
  3605   6 C     3776   1 H                                       1.0800817
  3606   6 C     3777   1 H                                       1.0808619
  3607   6 C     3778   1 H                                       1.0924943
  3607   6 C     3779   1 H                                       1.0933491
  3610   6 C     3780   1 H                                       1.0827772
  3611   6 C     3781   1 H                                       1.0808898
  3612   6 C     3782   1 H                                       1.0805787
  3613   6 C     3783   1 H                                       1.0805573
  3614   6 C     3784   1 H                                       1.0796067
  3618   6 C     3785   1 H                                       1.0812206
  3619   6 C     3786   1 H                                       1.0807059
  3620   6 C     3787   1 H                                       1.0800603
  3621   6 C     3788   1 H                                       1.0806230
  3622   6 C     3789   1 H                                       1.0809479
  3626   6 C     3790   1 H                                       1.0809885
  3627   6 C     3791   1 H                                       1.0814681
  3628   6 C     3792   1 H                                       1.0793518
  3629   6 C     3793   1 H                                       1.0819444
  3630   6 C     3794   1 H                                       1.0806447
  3634   6 C     3795   1 H                                       1.0804092
  3635   6 C     3796   1 H                                       1.0804924
  3636   6 C     3797   1 H                                       1.0804304
  3637   6 C     3798   1 H                                       1.0813679
  3638   6 C     3799   1 H                                       1.0785161
  3642   6 C     3800   1 H                                       1.0808195
  3643   6 C     3801   1 H                                       1.0807318
  3644   6 C     3802   1 H                                       1.0810745
  3645   6 C     3803   1 H                                       1.0805943
  3646   6 C     3804   1 H                                       1.0792184
  3650   6 C     3805   1 H                                       1.0814723
  3651   6 C     3806   1 H                                       1.0812385
  3652   6 C     3807   1 H                                       1.0810359
  3653   6 C     3808   1 H                                       1.0799607
  3654   6 C     3809   1 H                                       1.0831303
  3658   6 C     3810   1 H                                       1.0807730
  3659   6 C     3811   1 H                                       1.0802509
  3660   6 C     3812   1 H                                       1.0804473
  3661   6 C     3813   1 H                                       1.0804399
  3662   6 C     3814   1 H                                       1.0813739
  3666   6 C     3815   1 H                                       1.0810470
  3667   6 C     3816   1 H                                       1.0807010
  3668   6 C     3817   1 H                                       1.0804416
  3669   6 C     3818   1 H                                       1.0807934
  3670   6 C     3819   1 H                                       1.0802181
  3674   6 C     3820   1 H                                       1.0815875
  3675   6 C     3821   1 H                                       1.0812824
  3676   6 C     3822   1 H                                       1.0809510
  3677   6 C     3823   1 H                                       1.0806189
  3678   6 C     3824   1 H                                       1.0804240
  3686   6 C     3825   1 H                                       1.0810971
  3685   6 C     3826   1 H                                       1.0809970
  3684   6 C     3827   1 H                                       1.0805378
  3683   6 C     3828   1 H                                       1.0811263
  3682   6 C     3829   1 H                                       1.0801308
  3550   6 C     3830   1 H                                       1.0881096
  3550   6 C     3831   1 H                                       1.0877447
  3550   6 C     3832   1 H                                       1.0872854
  3680   6 C     3833   1 H                                       1.0949255
  3687   6 C     3834   1 H                                       1.0918011
  3687   6 C     3835   1 H                                       1.0909028
  3688   6 C     3836   6 C                                       1.5379601
  3837   6 C     3838   6 C                                       1.3908901
  3838   6 C     3839   6 C                                       1.3827642
  3839   6 C     3840   6 C                                       1.3841932
  3840   6 C     3841   6 C                                       1.3834159
  3837   6 C     3842   6 C                                       1.3887006
  3841   6 C     3842   6 C                                       1.3837220
  3838   6 C     3843   1 H                                       1.0808035
  3839   6 C     3844   1 H                                       1.0795274
  3840   6 C     3845   1 H                                       1.0804838
  3841   6 C     3846   1 H                                       1.0810995
  3842   6 C     3847   1 H                                       1.0814108
  3836   6 C     3848   6 C                                       1.5252748
  3836   6 C     3849   1 H                                       1.0924082
  3836   6 C     3850   1 H                                       1.0907314
  3851   6 C     3852   6 C                                       1.3876447
  3852   6 C     3853   6 C                                       1.3856585
  3853   6 C     3854   6 C                                       1.3819796
  3854   6 C     3855   6 C                                       1.3853897
  3851   6 C     3856   6 C                                       1.3925398
  3855   6 C     3856   6 C                                       1.3820899
  3852   6 C     3857   1 H                                       1.0786096
  3853   6 C     3858   1 H                                       1.0807150
  3854   6 C     3859   1 H                                       1.0806327
  3855   6 C     3860   1 H                                       1.0808107
  3856   6 C     3861   1 H                                       1.0809513
  3688   6 C     3862   1 H                                       1.0970380
  3848   6 C     3863   1 H                                       1.0925570
  3848   6 C     3864   1 H                                       1.0958471

 * 2 distinct bonds (by element types)

   Z      Z             #   av. dist./Å        max./Å        min./Å
   1 H    6 C        1944     1.0852639     1.0988260     1.0770735
   6 C    6 C        1857     1.4194339     1.5409671     1.3812480


optimized geometry written to: xtbopt.xyz


           -------------------------------------------------
          | TOTAL ENERGY            -5104.227151185158 Eh   |
          | GRADIENT NORM               0.000806238237 Eh/α |
          | HOMO-LUMO GAP               3.838194327187 eV   |
           -------------------------------------------------

------------------------------------------------------------------------
 * finished run on 2024/07/18 at 13:52:51.015     
------------------------------------------------------------------------
 total:
 * wall-time:     9 d,  1 h, 50 min, 42.365 sec
 *  cpu-time:    58 d, 19 h, 36 min, 15.960 sec
 * ratio c/w:     6.480 speedup
 SCF:
 * wall-time:     0 d,  0 h, 16 min, 27.874 sec
 *  cpu-time:     0 d,  1 h, 44 min, 57.164 sec
 * ratio c/w:     6.374 speedup
 ANC optimizer:
 * wall-time:     9 d,  1 h, 33 min,  3.895 sec
 *  cpu-time:    58 d, 17 h, 49 min, 45.656 sec
 * ratio c/w:     6.480 speedup

