3258
 energy: -3427.565011569839 gnorm: 0.000786730210 xtb: 6.6.1 (8d0f1dd)
C          116.37297870923776      105.29293598749024       95.17896106375240
C          114.99644747320716      104.78168349077738       94.77139494273264
C          113.87950124854210      105.69259543779958       95.27443893927857
C          112.49439097390830      105.21874045359733       94.83991118442468
C          111.39010420588529      106.12989270114784       95.37063167865143
C          109.99715615577031      105.68977968626326       94.92549869989190
C          108.90965081148822      106.60698916556123       95.48043894890043
C          107.50632514186769      106.19071145764865       95.04517923177255
C          106.43587393709733      107.11117634690234       95.62755955291433
C          105.02139065148879      106.69855869782245       95.22657086422998
C          103.96732060997267      107.62414952724252       95.83018365379010
C          102.54285587789199      107.20342598003072       95.47603523688392
C          101.50524941838140      108.14259912510495       96.08675985457189
C          100.07229135088508      107.71746072323806       95.77519461718339
C           99.05292341364562      108.68735735587440       96.36763494268732
C           97.61163906263904      108.27730483891730       96.07468157267108
C           96.61636841169572      109.31196615076752       96.59338824432750
C           95.16794015452199      108.95652830763528       96.26591361561786
C           94.21643469485555      110.09352365983879       96.63151952488982
C           92.77108122357912      109.80297095901297       96.22973519928614
C           91.86990363423686      111.03627162135679       96.32208095658831
C           91.54619928173106      111.43847436541344       97.75921227097390
C           90.78311696181689      112.76186498793581       97.85130215294359
C           91.69951185735064      113.97445501049786       97.70247871663422
C           90.93568225930898      115.29359418350376       97.80298185213351
C           91.85379580320533      116.50776199388345       97.95098553842989
C           92.73376021823806      116.75619084188104       96.72840292904138
C           93.66044117855905      117.96217009460761       96.89277102229561
C           94.79971179144529      117.72101722615095       97.88322421855834
C           95.81246804574262      118.86367804189805       97.85206977417423
C           96.94396403052687      118.71620407683231       98.86954754379678
C           97.87635345163608      117.53804502054018       98.58945372099211
C           99.16296259573870      117.63639664578854       99.40593395048788
C          100.10552659421229      116.45931754729412       99.16670468732411
C          101.44278597841776      116.65206447510488       99.87679680924572
C          102.38819014737018      115.46908277100401       99.68596028506263
C          103.74275805244309      115.70870327599356      100.34731115395213
C          104.68767932644248      114.52032805803073      100.19156444731149
C          106.04197827416164      114.77165873911572      100.84891955714723
C          106.98511791714547      113.58088063905984      100.70366615849538
C          108.33514028849086      113.82570900279620      101.37130658902571
C          109.27382753156486      112.63182977899544      101.22261817737144
C          110.62362596993783      112.86585663873690      101.89445143037662
C          111.55395494640122      111.66370235448002      101.75634447440112
C          112.90100653601321      111.89776719834856      102.43308852309340
C          113.83371471811417      110.69482092556228      102.31733603672301
C          115.14229908550753      110.93072408323552      103.06445491373631
C          116.11041778291262      109.75393987786990      102.97639736601887
C          117.36961686790863      110.01929421562723      103.79641229598195
C          118.40043199842978      108.89919041966178      103.71274546051403
C          119.67953724170259      109.27010284324837      104.45754674161904
C          120.75447894346705      108.19162598267103      104.36814791154283
C          122.01521838494392      108.59659247519404      105.12529468929671
C          123.12509123732940      107.55637796510005      105.02459937661153
C          124.40141195166717      108.01950972110342      105.72164397505870
C          125.51724498016566      106.98545515395516      105.60798748218031
C          126.80513904540982      107.40300000051333      106.31651542067830
C          127.56169444006183      108.51191002211607      105.58817407345562
C          128.85451290688391      108.92104703584423      106.29660601641059
C          129.95789834121609      107.86821124499980      106.20744844327743
C          131.27267524134146      108.32139719146953      106.84483541654409
C          131.17260645089709      108.50234545112033      108.35861160599148
C          132.53410292374397      108.77967486295707      108.99463861639966
C          132.44398729297649      109.15337617598317      110.47620851509222
C          131.91383936247186      108.01628757551040      111.34598311036953
C          131.82620197590651      108.40199141474565      112.82178665735785
C          131.36621539698936      107.24732919086055      113.71559514269606
C          129.93864409641299      106.79992340100161      113.41520079952143
C          129.48347810567600      105.61547949400907      114.26359708199875
C          128.07778092540701      105.17742892214495      113.86241308134903
C          127.62813394197340      103.86954715796905      114.50709812122281
C          126.17756122613045      103.56193556965393      114.14540109430482
C          125.72329043549036      102.17355565221500      114.58664987206770
C          124.24278245688504      101.93648567375752      114.27959098740352
C          123.32014619053641      102.60121988060624      115.29892201782955
C          121.87123362287508      102.66869768315135      114.82386295557261
C          120.95818485281681      103.26798448812649      115.88942370229788
C          119.52440028704005      103.45196475251949      115.40407546261393
C          118.61425429737561      104.00584215207017      116.49715974619407
C          117.20790756919781      104.28497588024882      115.97713320712661
C          116.28291612833694      104.86860758496373      117.04235004427429
C          114.94983918755591      105.29637224793052      116.43281364462125
C          113.99879439579000      105.96335499317115      117.42506431661678
C          113.32702551600696      104.96854613183397      118.36769806726255
C          112.34903911438124      105.62813921086789      119.34195032659110
C          112.99355438152665      106.60682921630358      120.32502075269674
C          113.93048201300495      105.92685904357923      121.31914943491371
C          114.69947055770470      106.90689572517830      122.20472179139068
C          115.80077378797516      107.68137709562774      121.47963503551397
C          117.01840887983568      106.82840476744737      121.12914438229470
C          118.00575687614001      107.60219960423589      120.26102647530838
C          119.25753537854577      106.79928101844098      119.91312980797225
C          120.07120687668930      107.50876257792109      118.83519673995906
C          121.34000577091784      106.76566981562337      118.42450986659409
C          121.90764812668219      107.35510402019047      117.13554946020555
C          123.23316216688468      106.73069440793311      116.71261760131999
C          123.75032004265417      107.27057633778365      115.37712859804385
C          122.95470890228077      106.76255914625293      114.17514968600642
C          123.35603132336109      107.42709819575263      112.85773922150986
C          124.76545787600622      107.06741956189018      112.39488313686893
C          125.08868314105985      107.68002590220694      111.03402030473123
C          126.52256938508567      107.40566825998440      110.57943796681671
C          126.75176845645331      105.96764914408226      110.12364776792079
C          128.18969288059449      105.74519441982252      109.66268600086700
C          128.45246769954787      104.28550514684734      109.30424492129185
C          129.82824988717027      104.04272675197986      108.68324610763995
C          131.00945978030796      104.27718560896221      109.62666348753952
C          131.13646639985313      103.22296079882237      110.72515769324623
C          132.29650847050061      103.54261616700177      111.66771696715237
C          132.68673115584724      102.38178661319378      112.58372461011466
C          131.58069488183500      101.95142791192933      113.54491401988260
C          132.05428851596901      100.84417105110394      114.48789986993916
C          130.90828584683968      100.09207376200573      115.16515616469174
C          130.12324897236013      100.92846918275681      116.17175406813290
C          128.94597611616680      100.14156213581064      116.74450339310957
C          128.19731543193393      100.93295019267097      117.81329103439278
C          126.90894360756910      100.25933285842675      118.28531692899112
C          127.13816323734629       98.92223152269240      118.98508473312323
C          125.83959088435407       98.34404018787211      119.54256627756428
C          126.05577042030933       96.97929628965782      120.18496008864562
H          125.42361959358051       99.03233776781369      120.28234951110124
H          125.11373610047281       98.25183549708444      118.73192740488427
H          127.56733371389160       98.20644634892859      118.28174293172889
H          127.85354037216901       99.05810933391778      119.80033623476687
H          126.39651258584199      100.93245859793997      118.97746437966570
H          126.24855574648660      100.10597430042726      117.42776719647833
H          128.85601716000278      101.09377368874856      118.67048326835867
H          127.94635437514869      101.91411087782686      117.40421642890362
H          128.25723232245511       99.89070915359295      115.93385496740547
H          129.31670376377164       99.20589665915716      117.16765563752924
H          130.78602315791309      101.23747347833059      116.98405362183797
H          129.74655485104225      101.83192210929491      115.69007981831599
H          130.22206228882760       99.72697557644425      114.39834981220855
H          131.31843030604276       99.21861803066274      115.67956612728291
H          132.64169445208475      100.12310596292180      113.91246398181411
H          132.71547665274082      101.26759923157164      115.24787382454384
H          131.25077880801712      102.81482337387592      114.12569126116361
H          130.72735985552978      101.58802497187229      112.96992996666171
H          132.97509191714821      101.52592352501813      111.96692997563176
H          133.56501678782766      102.67530905609796      113.16575871332950
H          133.17184971348289      103.81167699396366      111.06938071144704
H          132.03548916153659      104.41309168118927      112.27410422839441
H          130.20919588413281      103.17585096935802      111.29614923898018
H          131.29854303229624      102.24339343180364      110.26761211093597
H          131.92921711811042      104.27447948851567      109.03448727741322
H          130.92682527920351      105.26421956591606      110.08407850591918
H          129.86983423841818      103.01286262879078      108.31841439607460
H          129.94110997560762      104.69708394969359      107.81427247471525
H          128.33790869826890      103.66815220204275      110.19646769055015
H          127.69239992495135      103.96400684273532      108.58794196495684
H          128.39196321053203      106.37757374646475      108.79489247893792
H          128.86627635283295      106.05671464679520      110.46103116764590
H          126.52926248324408      105.28209556286707      110.94306339800733
H          126.06908129137936      105.73423580036024      109.30295315908637
H          126.76636681601443      108.07326152401829      109.74821062042108
H          127.21193289359951      107.63762139036393      111.39636029646483
H          124.39297417311522      107.29482000259941      110.28467011799819
H          124.93889848034513      108.76128808403735      111.09571654401337
H          125.49355723686246      107.42913728970366      113.12367276052343
H          124.85652794229321      105.98100503777236      112.34321501021033
H          122.64687431811647      107.12148058042223      112.08307878006684
H          123.27452472110247      108.51219779809632      112.96389354961516
H          123.08463159415945      105.68110452943195      114.08775274018261
H          121.89271859373832      106.95415596709860      114.34098271695468
H          123.71846934739372      108.36359524301950      115.39604410009430
H          124.79526853697729      106.97474412079464      115.26552104243034
H          123.97649158334578      106.93134090257958      117.48903233938451
H          123.12034582366709      105.64592737955864      116.64087758936687
H          121.16888851952478      107.21704507362142      116.34384318947944
H          122.04747994016752      108.43158156973662      117.26919984498147
H          122.08280987225582      106.82407999401823      119.22418621450070
H          121.11065568568601      105.70889833058555      118.26897767218071
H          119.43968202451330      107.63100471749914      117.95089817588224
H          120.33598791594321      108.50967619101411      119.18402191698385
H          119.86684310611815      106.65876294150659      120.80953403021429
H          118.96657280555623      105.80911913403386      119.55312672982822
H          117.50289837588767      107.88985725957998      119.33290793355641
H          118.29852652425967      108.52309417714389      120.77165202337564
H          117.51209599996309      106.50339458439998      122.04885097149898
H          116.70481313607439      105.93223350530559      120.59039329895951
H          115.39516960206105      108.11910530842577      120.56541995919862
H          116.12670044266885      108.50809296105456      122.11703389648676
H          113.99210919113976      107.61906947620855      122.63582626592307
H          115.15122920954819      106.34965352019840      123.02942131892739
H          113.33512837145625      105.27285012575656      121.95906818133312
H          114.64516461456334      105.30223487146446      120.78519526733440
H          113.53404082829758      107.37045694267148      119.76640409854403
H          112.19972275098635      107.11403816835566      120.88029595025576
H          111.58947481761169      106.16242275834480      118.76436995629022
H          111.83666547776193      104.84494658245970      119.90956290116516
H          112.77608873132294      104.23731533848039      117.76903713756703
H          114.08726817342580      104.41989211382516      118.92528521793542
H          114.55800806094091      106.70425473930236      117.99903708481708
H          113.21939757090902      106.49147226279524      116.86873319404879
H          115.16046282743790      106.00196674720448      115.62356501321483
H          114.45864376854240      104.42561096172338      115.99375122060658
H          116.11841750456476      104.12466244973331      117.82526979353995
H          116.76395689095740      105.73537088420193      117.50383387466130
H          117.27573430986288      104.98784472028295      115.14238676005085
H          116.77288332724500      103.35818812169244      115.59333145855871
H          118.56429091771979      103.29231099154046      117.32393824626833
H          119.04232055553425      104.93367089466943      116.88623157537148
H          119.51967289148550      104.13837352607571      114.55381804989958
H          119.13117223126930      102.49456618298304      115.05572576236337
H          120.96490502298705      102.62087100529477      116.76987929775792
H          121.35409529772255      104.24033295605271      116.19231399344154
H          121.81779183064266      103.27579760182735      113.91553833044537
H          121.52306670886533      101.66496908064703      114.57012718170171
H          123.36869189418721      102.05093669518500      116.24198724878929
H          123.67108550629320      103.61516499082991      115.50065025516102
H          124.02158164029763      102.32600630466787      113.28299627127856
H          124.03937328175510      100.86332875614909      114.26509003310751
H          126.32827007415696      101.42615242110701      114.06720965348421
H          125.89855901055579      102.05086287837742      115.65811431140348
H          125.53601761727828      104.32180028976362      114.59596516139558
H          126.06156843706729      103.63675003485029      113.06032640308817
H          128.27240280344978      103.05568987911957      114.16353703025706
H          127.72945751428220      103.93495863170007      115.59363534048599
H          127.36994865791796      105.96727359898098      114.12478951445364
H          128.04479934595832      105.05921253245279      112.77710781568794
H          130.17763365874251      104.78404245277034      114.11814922482188
H          129.50313953634512      105.88238964744448      115.32305565583982
H          129.25882864999150      107.64092388369995      113.56972032768269
H          129.87017278562072      106.50528710055529      112.36728086395311
H          132.04820205735078      106.40266618278021      113.58565534711445
H          131.43079235349092      107.56008190969665      114.76131118856625
H          132.80930593594525      108.73998022868327      113.16033303354092
H          131.13428340823504      109.24090717808183      112.93318400221797
H          130.92145701906901      107.74305302387788      110.99037255378026
H          132.56598891234498      107.14583962251125      111.23796962748301
H          133.43809722409520      109.44086742133551      110.82900079017205
H          131.79266156899237      110.02420417531332      110.58687309148597
H          133.17260243914396      107.89985463152740      108.88245195826596
H          133.01229315524904      109.60292379902479      108.45687194109087
H          130.50287571802227      109.33343974785596      108.58650108119332
H          130.74437870625806      107.59537971140497      108.78736965833633
H          132.03947680291068      107.57136985817444      106.63265874594553
H          131.59549376211439      109.25924359114288      106.38513924993092
H          129.63364785523513      106.94704094358133      106.69546479489615
H          130.13974650387010      107.63617406149748      105.15431078659289
H          129.22480602803435      109.84730731659081      105.84845475006470
H          128.62948306646251      109.12928360774443      107.34368669129708
H          127.79328596870971      108.18522071506887      104.57093417299900
H          126.91929328584754      109.39137525006888      105.51238405244213
H          126.56454168025849      107.73469981296461      107.32913108586493
H          127.45116103698219      106.52750187231572      106.40116446341936
H          125.16573429683010      106.04582295550132      106.04228195460581
H          125.73261460169607      106.80082034474060      104.55317394099660
H          124.72527055752280      108.96347246259232      105.27767182517950
H          124.19142103468521      108.20979101154940      106.77768136386034
H          122.78718155408231      106.61547877999159      105.46541737183561
H          123.34299096207113      107.36531301465564      103.97040925389823
H          122.38143399504381      109.54648046630690      104.72643972824824
H          121.76903942485235      108.76242798959510      106.17762344834223
H          120.37010278385071      107.25595805969969      104.77917162046718
H          121.00546771058747      108.01346366616019      103.31866676638623
H          120.07559639575418      110.20417003190448      104.04792554530528
H          119.44430419419236      109.45521899010960      105.50839261838135
H          117.98546457068970      107.98163142780786      104.13439220762299
H          118.63556043158194      108.70031384638425      102.66459067705641
H          117.82727307847665      110.94903708751278      103.44996781794012
H          117.09104255038810      110.16212589453598      104.84259058251627
H          115.61980384563495      108.84745783232304      103.33851631703497
H          116.38271172905790      109.58157060787997      101.93240920054353
H          115.63038761664374      111.82434689362339      102.66494570161471
H          114.91554879477997      111.12917060600530      104.11464993494531
H          113.33793524336768      109.80966535928617      102.72430143120833
H          114.04316708696469      110.49368938239276      101.26489522753540
H          113.38421986714833      112.76876144636044      101.98145615492781
H          112.73810412192528      112.12603785142377      103.48956881162421
H          111.07588354286592      110.78438821108176      102.19582776185156
H          111.71296701205290      111.44841052644031      100.69759441898492
H          111.09837272762213      113.74261603129132      101.44540064771020
H          110.46807332759973      113.08153254051278      102.95474570807617
H          108.80341183655531      111.74497238108931      101.65446992220299
H          109.43168923510379      112.43141307919943      100.16026860615540
H          108.79897069836596      114.70795303330681      100.92411861963227
H          108.17929664238940      114.03294141109102      102.43302116942721
H          106.51971789017387      112.69453909598978      101.14157463532617
H          107.14237857019582      113.37602387544901       99.64113087709498
H          106.50216674447499      115.65443119316738      100.39901804444149
H          105.89039696828313      114.98202096290750      101.91018002459326
H          104.23045981983485      113.63418405411201      100.63844555342911
H          104.83502752694928      114.31344862966205       99.12755179951039
H          104.20402647379520      116.59769879944388       99.91070896873475
H          103.58998776969759      115.90708096704988      101.41017700128933
H          101.93350213721806      114.57164724490498      100.11271071047518
H          102.53296628413895      115.28840626989812       98.61688125965750
H          101.92061587713040      117.55874990001598       99.49758987725384
H          101.26310611639023      116.79990733635302      100.94323281290482
H           99.63498244908151      115.53881042976167       99.52127970579201
H          100.27886985771504      116.34559864626603       98.09282886808703
H           99.67895247027541      118.56348190278798       99.14205603409960
H           98.91408265783573      117.69168693156966      100.46754226911976
H           97.37001349266343      116.59980699467825       98.82542293881544
H           98.12775427063498      117.52067781920567       97.52541889790231
H           97.53485281558075      119.63656809818275       98.85567332803855
H           96.52145004309730      118.61004784253609       99.87112071623380
H           96.24188576115986      118.93548930182590       96.84892779256229
H           95.28768610431588      119.80313630631507       98.04744824921015
H           94.40142672056371      117.62415857549857       98.89487164906367
H           95.29813426359381      116.78408974701270       97.62728536156061
H           94.09541359820751      118.20044014364133       95.91807728615446
H           93.07770968835742      118.83037323626564       97.21113731911180
H           93.34460768648881      115.87442417882392       96.52756974312067
H           92.09003660128565      116.91827932948766       95.85956494777895
H           91.23933317796777      117.39526848031754       98.12520218694185
H           92.48422015284504      116.36116662975510       98.82830088723772
H           90.30075351660052      115.41728445428846       96.92189759850746
H           90.27767543824108      115.25051033407564       98.67590902813939
H           92.45519944018893      113.94147225306742       98.49046174977741
H           92.21429837830952      113.92340269245783       96.74222979648867
H           90.00607398386333      112.78963564490661       97.08332986533600
H           90.28258794269044      112.82155106150353       98.82129720781892
H           90.94619064482131      110.64400406541789       98.20931726748427
H           92.47017812731298      111.52780702618060       98.33278674146672
H           92.35787040909541      111.86558602078419       95.80552967899263
H           90.93193717756762      110.83249110565141       95.79853167853040
H           92.76393506140207      109.44514578687061       95.19653553825877
H           92.36442078283419      109.00465687029359       96.85543069802355
H           94.27869381633819      110.27922018397935       97.70502138044361
H           94.54674930643691      111.00160108678257       96.12066722670652
H           95.08320162501703      108.74881699713593       95.19570738124455
H           94.88082603477491      108.04612960840980       96.79824770226020
H           96.72994003297245      109.41905909412718       97.67438741297549
H           96.85130912804500      110.27989674773779       96.14238006258425
H           97.48130165031171      108.16342489340717       94.99504942821626
H           97.40552639896461      107.30591523992994       96.53120125165943
H           99.19764175816782      108.75185830079151       97.44823524531247
H           99.23001650442373      109.68464220792471       95.95571609371150
H           99.93601501158061      107.66695426691535       94.69149114726800
H           99.89531504009764      106.71504227862016       96.17228934394831
H          101.64187828027409      108.17650885045465       97.16983436520690
H          101.66970690328741      109.15435019710844       95.70625413907717
H          102.42635050574039      107.19125968573380       94.38891348414906
H          102.36635977357017      106.18657035217974       95.83410166902539
H          104.07756013778538      107.63406458503117       96.91675859833313
H          104.13963579033916      108.64415122798563       95.47614567513097
H          104.93376625210473      106.70917515143610       94.13669342159614
H          104.83574350289332      105.67471554946694       95.55873879692484
H          106.51416035525341      107.10749656684862       96.71693322222272
H          106.62080385881342      108.13498221306892       95.29125996864042
H          107.44428552016424      106.20522021641487       93.95358564592617
H          107.31626104754021      105.16519680603666       95.36934273885396
H          108.96185616866373      106.60475005644319       96.57138333388063
H          109.09971829383966      107.63093620715622       95.14732141654973
H          109.94852559178199      105.68754101124051       93.83305180261571
H          109.81524370145149      104.66693845233367       95.26281184742776
H          111.43073135647914      106.14332745071428       96.46197155517137
H          111.57047696737422      107.15135112298596       95.02450933707979
H          112.44755755520930      105.18925941669104       93.74768399555988
H          112.32895225875133      104.20158445793822       95.20180471094061
H          113.91885614699287      105.73818908572645       96.36493382998147
H          114.04562928730728      106.70563141504820       94.89778626209826
H          114.94343174488918      104.71221866098038       93.68147026265969
H          114.85036066311578      103.77636219801217       95.17265093537571
H          117.15227942484830      104.62729981196260       94.81569939269420
H          116.55073154722815      106.28420747852060       94.76646549488233
H          116.45077641009829      105.35555169074107       96.26193804325361
H          126.76844940015505       97.05063383544673      121.00406059785550
H          125.12073999325239       96.58582875569117      120.57753763232732
H          126.44646221011452       96.27297678613461      119.45517932083465
C          111.55661726631298       92.83491624403558      106.73831268601101
C          110.07073608938961       93.15785565630119      106.83745422568157
C          109.78042226978056       94.17267776950655      107.94030520015120
C          108.29682238476273       94.52028765147921      108.02986268004248
C          108.00783826923761       95.53599830705950      109.13220859912657
C          106.52907010350049       95.90816586720386      109.19985166832457
C          106.23677531835337       96.91790813257965      110.30711654779631
C          104.75799015606232       97.29327998610609      110.35579905571588
C          104.42813008720177       98.35326377187887      111.40651394308566
C          104.62858516071472       97.87309515004834      112.84254611505393
C          104.04005280313740       98.85146282893764      113.85685821815873
C          104.21786016628545       98.35990168844162      115.29211415261497
C          103.49641613338632       99.22813714319597      116.32428230647942
C          104.16902389699862      100.57692298063488      116.56819500855319
C          103.39050304006699      101.41978320566918      117.57569423221281
C          104.08599660771232      102.74373837386727      117.87790197602924
C          103.32825351770136      103.61095038074195      118.88406575313230
C          101.95063866891707      104.09162431777646      118.41851835246104
C          101.95127594577927      104.88514569461233      117.11132002383113
C          102.70949950648794      106.20597447021495      117.20679518769550
C          102.65402635104752      107.01747089431480      115.91124015864590