      -----------------------------------------------------------      
     |                   =====================                   |     
     |                           x T B                           |     
     |                   =====================                   |     
     |                         S. Grimme                         |     
     |          Mulliken Center for Theoretical Chemistry        |     
     |                    University of Bonn                     |     
      -----------------------------------------------------------      

   * xtb version 6.6.1 (8d0f1dd) compiled by 'stahn@M-Bot' on 2023-08-01

   xtb is free software: you can redistribute it and/or modify it under
   the terms of the GNU Lesser General Public License as published by
   the Free Software Foundation, either version 3 of the License, or
   (at your option) any later version.
   
   xtb is distributed in the hope that it will be useful,
   but WITHOUT ANY WARRANTY; without even the implied warranty of
   MERCHANTABILITY or FITNESS FOR A PARTICULAR PURPOSE.  See the
   GNU Lesser General Public License for more details.
   
   Cite this work as:
   * C. Bannwarth, E. Caldeweyher, S. Ehlert, A. Hansen, P. Pracht,
     J. Seibert, S. Spicher, S. Grimme, WIREs Comput. Mol. Sci., 2020, 11,
     e01493. DOI: 10.1002/wcms.1493
   
   for GFN2-xTB:
   * C. Bannwarth, S. Ehlert and S. Grimme., J. Chem. Theory Comput., 2019,
     15, 1652-1671. DOI: 10.1021/acs.jctc.8b01176
   for GFN1-xTB:
   * S. Grimme, C. Bannwarth, P. Shushkov, J. Chem. Theory Comput., 2017,
     13, 1989-2009. DOI: 10.1021/acs.jctc.7b00118
   for GFN0-xTB:
   * P. Pracht, E. Caldeweyher, S. Ehlert, S. Grimme, ChemRxiv, 2019, preprint.
     DOI: 10.26434/chemrxiv.8326202.v1
   for GFN-FF:
   * S. Spicher and S. Grimme, Angew. Chem. Int. Ed., 2020, 59, 15665-15673.
     DOI: 10.1002/anie.202004239
   
   for ALPB and GBSA implicit solvation:
   * S. Ehlert, M. Stahn, S. Spicher, S. Grimme, J. Chem. Theory Comput.,
     2021, 17, 4250-4261. DOI: 10.1021/acs.jctc.1c00471
   
   for DFT-D4:
   * E. Caldeweyher, C. Bannwarth and S. Grimme, J. Chem. Phys., 2017,
     147, 034112. DOI: 10.1063/1.4993215
   * E. Caldeweyher, S. Ehlert, A. Hansen, H. Neugebauer, S. Spicher,
     C. Bannwarth and S. Grimme, J. Chem. Phys., 2019, 150, 154122.
     DOI: 10.1063/1.5090222
   * E. Caldeweyher, J.-M. Mewes, S. Ehlert and S. Grimme, Phys. Chem. Chem. Phys.
     2020, 22, 8499-8512. DOI: 10.1039/D0CP00502A
   
   for sTDA-xTB:
   * S. Grimme and C. Bannwarth, J. Chem. Phys., 2016, 145, 054103.
     DOI: 10.1063/1.4959605
   
   in the mass-spec context:
   * V. Asgeirsson, C. Bauer and S. Grimme, Chem. Sci., 2017, 8, 4879.
     DOI: 10.1039/c7sc00601b
   * J. Koopman and S. Grimme, ACS Omega 2019, 4, 12, 15120-15133.
     DOI: 10.1021/acsomega.9b02011
   
   for metadynamics refer to:
   * S. Grimme, J. Chem. Theory Comput., 2019, 155, 2847-2862
     DOI: 10.1021/acs.jctc.9b00143
   
   for SPH calculations refer to:
   * S. Spicher and S. Grimme, J. Chem. Theory Comput., 2021, 17, 1701-1714
     DOI: 10.1021/acs.jctc.0c01306
   
   with help from (in alphabetical order)
   P. Atkinson, C. Bannwarth, F. Bohle, G. Brandenburg, E. Caldeweyher
   M. Checinski, S. Dohm, S. Ehlert, S. Ehrlich, I. Gerasimov, C. Hölzer
   A. Katbashev, J. Koopman, C. Lavigne, S. Lehtola, F. März, M. Müller,
   F. Musil, H. Neugebauer, J. Pisarek, C. Plett, P. Pracht, F. Pultar,
   J. Seibert, P. Shushkov, S. Spicher, M. Stahn, M. Steiner, T. Strunk,
   J. Stückrath, T. Rose, and J. Unsleber
   
 * started run on 2024/10/03 at 21:21:54.683     

           -------------------------------------------------
          |                Calculation Setup                |
           -------------------------------------------------

          program call               : /home/abt-grimme/AK-bin/xtb input.xyz --input input.inp --opt
          hostname                   : boar031.thch.uni-bonn.de
          coordinate file            : input.xyz
          omp threads                :                     8

   ID    Z sym.   atoms
    1    6 C      1-120, 363-482, 725-844, 1087-1206, 1449-1568, 1811-1930,
                  2173-2292, 2535-2654, 2897-3016
    2    1 H      121-362, 483-724, 845-1086, 1207-1448, 1569-1810,
                  1931-2172, 2293-2534, 2655-2896, 3017-3258

molecular fragmentation (1/2 indicates fragments):
111111111111111111111111111111111111111111111111111111111111111111111111
111111111111111111111111111111111111111111111111111111111111111111111111
111111111111111111111111111111111111111111111111111111111111111111111111
111111111111111111111111111111111111111111111111111111111111111111111111
111111111111111111111111111111111111111111111111111111111111111111111111
112222222222222222222222222222222222222222222222222222222222222222222222
222222222222222222222222222222222222222222222222222222222222222222222222
222222222222222222222222222222222222222222222222222222222222222222222222
222222222222222222222222222222222222222222222222222222222222222222222222
222222222222222222222222222222222222222222222222222222222222222222222222
222222222222222222222222222222222222222222222222222222222222222222222222
222222222222222222222222222222222222222222222222222222222222222222222222
222222222222222222222222222222222222222222222222222222222222222222222222
222222222222222222222222222222222222222222222222222222222222222222222222
222222222222222222222222222222222222222222222222222222222222222222222222
222222222222222222222222222222222222222222222222222222222222222222222222
222222222222222222222222222222222222222222222222222222222222222222222222
222222222222222222222222222222222222222222222222222222222222222222222222
222222222222222222222222222222222222222222222222222222222222222222222222
222222222222222222222222222222222222222222222222222222222222222222222222
222222222222222222222222222222222222222222222222222222222222222222222222
222222222222222222222222222222222222222222222222222222222222222222222222
222222222222222222222222222222222222222222222222222222222222222222222222
222222222222222222222222222222222222222222222222222222222222222222222222
222222222222222222222222222222222222222222222222222222222222222222222222
222222222222222222222222222222222222222222222222222222222222222222222222
222222222222222222222222222222222222222222222222222222222222222222222222
222222222222222222222222222222222222222222222222222222222222222222222222
222222222222222222222222222222222222222222222222222222222222222222222222
222222222222222222222222222222222222222222222222222222222222222222222222
222222222222222222222222222222222222222222222222222222222222222222222222
222222222222222222222222222222222222222222222222222222222222222222222222
222222222222222222222222222222222222222222222222222222222222222222222222
222222222222222222222222222222222222222222222222222222222222222222222222
222222222222222222222222222222222222222222222222222222222222222222222222
222222222222222222222222222222222222222222222222222222222222222222222222
222222222222222222222222222222222222222222222222222222222222222222222222
222222222222222222222222222222222222222222222222222222222222222222222222
222222222222222222222222222222222222222222222222222222222222222222222222
222222222222222222222222222222222222222222222222222222222222222222222222
222222222222222222222222222222222222222222222222222222222222222222222222
222222222222222222222222222222222222222222222222222222222222222222222222
222222222222222222222222222222222222222222222222222222222222222222222222
222222222222222222222222222222222222222222222222222222222222222222222222
222222222222222222222222222222222222222222222222222222222222222222222222
222222222222222222
# atoms in fragment 1/2:   362  2896
 fragment masses (1/2) :     1685.21    13481.68
CMA distance (Bohr)    :  15.650
constraining FC (au)   :  0.0500

           -------------------------------------------------
          |                 G F N 2 - x T B                 |
           -------------------------------------------------

        Reference                      10.1021/acs.jctc.8b01176
      * Hamiltonian:
        H0-scaling (s, p, d)           1.850000    2.230000    2.230000
        zeta-weighting                 0.500000
      * Dispersion:
        s8                             2.700000
        a1                             0.520000
        a2                             5.000000
        s9                             5.000000
      * Repulsion:
        kExp                           1.500000    1.000000
        rExp                           1.000000
      * Coulomb:
        alpha                          2.000000
        third order                    shell-resolved
        anisotropic                    true
        a3                             3.000000
        a5                             4.000000
        cn-shift                       1.200000
        cn-exp                         4.000000
        max-rad                        5.000000


          ...................................................
          :                      SETUP                      :
          :.................................................:
          :  # basis functions                6498          :
          :  # atomic orbitals                6498          :
          :  # shells                         4338          :
          :  # electrons                      6498          :
          :  max. iterations                   250          :
          :  Hamiltonian                  GFN2-xTB          :
          :  restarted?                      false          :
          :  GBSA solvation                  false          :
          :  PC potential                    false          :
          :  electronic temp.          300.0000000     K    :
          :  accuracy                    1.0000000          :
          :  -> integral cutoff          0.2500000E+02      :
          :  -> integral neglect         0.1000000E-07      :
          :  -> SCF convergence          0.1000000E-05 Eh   :
          :  -> wf. convergence          0.1000000E-03 e    :
          :  Broyden damping             0.4000000          :
          ...................................................

 iter      E             dE          RMSdq      gap      omega  full diag
   1  -3473.4935911 -0.347349E+04  0.245E+00   11.34       0.0  T
   2  -3478.5696987 -0.507611E+01  0.136E+00   11.44       1.0  T
   3  -3478.7739506 -0.204252E+00  0.599E-01   11.45       1.0  T
   4  -3478.7945302 -0.205797E-01  0.758E-02   11.46       1.0  T
   5  -3478.7954824 -0.952198E-03  0.392E-02   11.46       1.0  T
   6  -3478.7956891 -0.206630E-03  0.651E-03   11.46       1.0  T
   7  -3478.7957056 -0.165139E-04  0.125E-03   11.46       1.4  T
   8  -3478.7957066 -0.106642E-05  0.387E-04   11.46       4.5  T
   9  -3478.7957067 -0.648893E-07  0.142E-04   11.46      12.3  T
  10  -3478.7957067 -0.383216E-08  0.411E-05   11.46      42.6  T

   *** convergence criteria satisfied after 10 iterations ***

         #    Occupation            Energy/Eh            Energy/eV
      -------------------------------------------------------------
         1        2.0000           -0.6252210             -17.0131
       ...           ...                  ...                  ...
      3243        2.0000           -0.4023877             -10.9495
      3244        2.0000           -0.4022745             -10.9464
      3245        2.0000           -0.4020044             -10.9391
      3246        2.0000           -0.4019192             -10.9368
      3247        2.0000           -0.4017892             -10.9332
      3248        2.0000           -0.4013195             -10.9205
      3249        2.0000           -0.4009138             -10.9094 (HOMO)
      3250                          0.0201874               0.5493 (LUMO)
      3251                          0.0217022               0.5905
      3252                          0.0228436               0.6216
      3253                          0.0229941               0.6257
      3254                          0.0251330               0.6839
       ...                                ...                  ...
      6498                          0.3852280              10.4826
      -------------------------------------------------------------
                  HL-Gap            0.4211013 Eh           11.4587 eV
             Fermi-level           -0.1903632 Eh           -5.1800 eV

 SCC (total)                   0 d,  0 h, 14 min, 21.852 sec
 SCC setup                      ...        0 min,  0.444 sec (  0.051%)
 Dispersion                     ...        0 min,  3.583 sec (  0.416%)
 classical contributions        ...        0 min,  0.127 sec (  0.015%)
 integral evaluation            ...        0 min,  5.946 sec (  0.690%)
 iterations                     ...       10 min, 37.930 sec ( 74.018%)
 molecular gradient             ...        3 min, 25.227 sec ( 23.812%)
 printout                       ...        0 min,  8.596 sec (  0.997%)

         :::::::::::::::::::::::::::::::::::::::::::::::::::::
         ::                     SUMMARY                     ::
         :::::::::::::::::::::::::::::::::::::::::::::::::::::
         :: total energy           -3427.529630701423 Eh    ::
         :: gradient norm              0.018960432941 Eh/a0 ::
         :: HOMO-LUMO gap             11.458748538033 eV    ::
         ::.................................................::
         :: SCC energy             -3478.795706714001 Eh    ::
         :: -> isotropic ES            0.418508547527 Eh    ::
         :: -> anisotropic ES          1.119993223190 Eh    ::
         :: -> anisotropic XC          1.944825101736 Eh    ::
         :: -> dispersion             -4.060377937984 Eh    ::
         :: repulsion energy          50.610950224114 Eh    ::
         :: add. restraining           0.000000000000 Eh    ::
         :: total charge              -0.000000000013 e     ::
         :::::::::::::::::::::::::::::::::::::::::::::::::::::

      ----------------------------------------------------------- 
     |              Fast Inertial Relaxation Engine              |
      ----------------------------------------------------------- 

          ...................................................
          :                      SETUP                      :
          :.................................................:
          :   energy convergence        0.5000000E-05 Eh    :
          :   grad. convergence         0.1000000E-02 Eh/a0 :
          :   optimization log               true           :
          :   writing optlog all                1     steps :
          :   Hessian reset                    20     steps :
          :   time step scaling                 5     steps :
          :   maximium step len.        1.0000000     a0    :
          :   initial time step         0.2500000     fs    :
          :   maximum time step         1.2500000     fs    :
          :   power reset thr           0.0000000     au    :
          :   alpha parameter           0.1000000           :
          :   BFGS update                   false           :
          :   preconditioning               false           :
          ...................................................

........................................................................
.............................. CYCLE    1 ..............................
........................................................................

 iter      E             dE          RMSdq      gap      omega  full diag
   1  -3478.7993292 -0.347880E+04  0.273E-04   11.46       0.0  T
   2  -3478.7993292 -0.296272E-07  0.156E-04   11.46      11.3  T
   3  -3478.7993292 -0.621185E-09  0.498E-05   11.46      35.1  T
     SCC iter.                  ...        2 min, 59.541 sec
     gradient                   ...        3 min, 23.414 sec
 * total energy  : -3427.5296711 Eh     change    :  -0.4044735E-04 Eh
   gradient norm :     0.0174541 Eh/a0  converged?    E=F G=F D=F
   time step     :     0.2500000 fs     power     :   0.2058103E-08
   step length   :     0.0022221 a0     speed     :   0.2150023E-03

........................................................................
.............................. CYCLE    2 ..............................
........................................................................

 iter      E             dE          RMSdq      gap      omega  full diag
   1  -3478.8046014 -0.347880E+04  0.395E-04   11.46       0.0  T
   2  -3478.8046015 -0.618375E-07  0.225E-04   11.46       7.8  T
   3  -3478.8046015 -0.141335E-08  0.721E-05   11.46      24.3  T
     SCC iter.                  ...        2 min, 58.275 sec
     gradient                   ...        3 min, 29.496 sec
 * total energy  : -3427.5297242 Eh     change    :  -0.5310022E-04 Eh
   gradient norm :     0.0152870 Eh/a0  converged?    E=F G=F D=F
   time step     :     0.2500000 fs     power     :   0.2628919E-08
   step length   :     0.0032447 a0     speed     :   0.3139434E-03

........................................................................
.............................. CYCLE    3 ..............................
........................................................................

 iter      E             dE          RMSdq      gap      omega  full diag
   1  -3478.8112911 -0.347881E+04  0.503E-04   11.46       0.0  T
   2  -3478.8112912 -0.994660E-07  0.287E-04   11.46       6.1  T
   3  -3478.8112912 -0.222417E-08  0.913E-05   11.46      19.2  T
     SCC iter.                  ...        3 min,  7.058 sec
     gradient                   ...        3 min, 23.775 sec
 * total energy  : -3427.5297818 Eh     change    :  -0.5751845E-04 Eh
   gradient norm :     0.0125828 Eh/a0  converged?    E=F G=F D=F
   time step     :     0.2500000 fs     power     :   0.2748564E-08
   step length   :     0.0041393 a0     speed     :   0.4004952E-03

........................................................................
.............................. CYCLE    4 ..............................
........................................................................

 iter      E             dE          RMSdq      gap      omega  full diag
   1  -3478.8190979 -0.347882E+04  0.590E-04   11.46       0.0  T
   2  -3478.8190981 -0.135022E-06  0.337E-04   11.46       5.2  T
   3  -3478.8190981 -0.306545E-08  0.106E-04   11.46      16.5  T
     SCC iter.                  ...        2 min, 58.393 sec
     gradient                   ...        3 min, 23.036 sec
 * total energy  : -3427.5298351 Eh     change    :  -0.5336285E-04 Eh
   gradient norm :     0.0095382 Eh/a0  converged?    E=F G=F D=F
   time step     :     0.2500000 fs     power     :   0.2413064E-08
   step length   :     0.0048715 a0     speed     :   0.4713463E-03

........................................................................
.............................. CYCLE    5 ..............................
........................................................................

 iter      E             dE          RMSdq      gap      omega  full diag
   1  -3478.8276498 -0.347883E+04  0.653E-04   11.46       0.0  T
   2  -3478.8276500 -0.161036E-06  0.373E-04   11.46       4.7  T
   3  -3478.8276500 -0.370119E-08  0.115E-04   11.46      15.2  T
     SCC iter.                  ...        2 min, 58.487 sec
     gradient                   ...        3 min, 22.546 sec
 * total energy  : -3427.5298767 Eh     change    :  -0.4152247E-04 Eh
   gradient norm :     0.0065147 Eh/a0  converged?    E=F G=F D=F
   time step     :     0.2500000 fs     power     :   0.1702095E-08
   step length   :     0.0054122 a0     speed     :   0.5236585E-03

........................................................................
.............................. CYCLE    6 ..............................
........................................................................

 iter      E             dE          RMSdq      gap      omega  full diag
   1  -3478.8373875 -0.347884E+04  0.758E-04   11.45       0.0  T
   2  -3478.8373877 -0.206543E-06  0.433E-04   11.45       4.0  T
   3  -3478.8373877 -0.487216E-08  0.129E-04   11.45      13.5  T
     SCC iter.                  ...        2 min, 58.346 sec
     gradient                   ...        3 min, 24.271 sec
 * total energy  : -3427.5299030 Eh     change    :  -0.2637284E-04 Eh
   gradient norm :     0.0043240 Eh/a0  converged?    E=F G=F D=F
   time step     :     0.2750000 fs     power     :   0.6771799E-09
   step length   :     0.0063349 a0     speed     :   0.5572152E-03

........................................................................
.............................. CYCLE    7 ..............................
........................................................................

 iter      E             dE          RMSdq      gap      omega  full diag
   1  -3478.8472906 -0.347885E+04  0.811E-04   11.45       0.0  T
   2  -3478.8472908 -0.208458E-06  0.466E-04   11.45       3.8  T
   3  -3478.8472908 -0.518821E-08  0.127E-04   11.45      13.8  T
     SCC iter.                  ...        2 min, 59.676 sec
     gradient                   ...        3 min, 22.266 sec
 * total energy  : -3427.5299085 Eh     change    :  -0.5492224E-05 Eh
   gradient norm :     0.0052338 Eh/a0  converged?    E=F G=F D=F
   time step     :     0.3025000 fs     power     :  -0.3306167E-09
   step length   :     0.0068826 a0     speed     :   0.5503547E-03

........................................................................
.............................. CYCLE    8 ..............................
........................................................................
 * reset velocities

 iter      E             dE          RMSdq      gap      omega  full diag
   1  -3478.8471700 -0.347885E+04  0.139E-05   11.45       0.0  T
   2  -3478.8471700 -0.700311E-10  0.747E-06   11.45     234.5  T
   3  -3478.8471700 -0.386535E-10  0.332E-06   11.45     527.6  T
     SCC iter.                  ...        2 min, 59.621 sec
     gradient                   ...        3 min, 21.876 sec
 * total energy  : -3427.5299091 Eh     change    :  -0.5857296E-06 Eh
   gradient norm :     0.0051736 Eh/a0  converged?    E=T G=F D=T
   time step     :     0.1512500 fs     power     :   0.5095139E-10
   step length   :     0.0001123 a0     speed     :   0.1795290E-04

........................................................................
.............................. CYCLE    9 ..............................
........................................................................

 iter      E             dE          RMSdq      gap      omega  full diag
   1  -3478.8469306 -0.347885E+04  0.280E-05   11.45       0.0  T
   2  -3478.8469306 -0.241016E-09  0.163E-05   11.45     107.3  T
   3  -3478.8469306 -0.227374E-11  0.389E-06   11.45     450.3  T
     SCC iter.                  ...        3 min,  3.933 sec
     gradient                   ...        3 min, 22.838 sec
 * total energy  : -3427.5299102 Eh     change    :  -0.1139922E-05 Eh
   gradient norm :     0.0050605 Eh/a0  converged?    E=T G=F D=T
   time step     :     0.1512500 fs     power     :   0.9907991E-10
   step length   :     0.0002232 a0     speed     :   0.3569922E-04

........................................................................
.............................. CYCLE   10 ..............................
........................................................................

 iter      E             dE          RMSdq      gap      omega  full diag
   1  -3478.8465779 -0.347885E+04  0.412E-05   11.45       0.0  T
   2  -3478.8465779 -0.386990E-09  0.240E-05   11.45      72.9  T
   3  -3478.8465779  0.391083E-10  0.574E-06   11.45     305.4  T
     SCC iter.                  ...        3 min,  0.772 sec
     gradient                   ...        3 min, 22.815 sec
 * total energy  : -3427.5299119 Eh     change    :  -0.1665703E-05 Eh
   gradient norm :     0.0048957 Eh/a0  converged?    E=T G=F D=T
   time step     :     0.1512500 fs     power     :   0.1424045E-09
   step length   :     0.0003317 a0     speed     :   0.5305468E-04

........................................................................
.............................. CYCLE   11 ..............................
........................................................................

 iter      E             dE          RMSdq      gap      omega  full diag
   1  -3478.8461196 -0.347885E+04  0.540E-05   11.45       0.0  T
   2  -3478.8461196 -0.686214E-09  0.315E-05   11.45      55.6  T
   3  -3478.8461196 -0.977707E-10  0.748E-06   11.45     234.1  T
     SCC iter.                  ...        2 min, 59.748 sec
     gradient                   ...        3 min, 22.311 sec
 * total energy  : -3427.5299140 Eh     change    :  -0.2091854E-05 Eh
   gradient norm :     0.0046840 Eh/a0  converged?    E=T G=F D=T
   time step     :     0.1512500 fs     power     :   0.1791898E-09
   step length   :     0.0004367 a0     speed     :   0.6983907E-04

........................................................................
.............................. CYCLE   12 ..............................
........................................................................

 iter      E             dE          RMSdq      gap      omega  full diag
   1  -3478.8455668 -0.347885E+04  0.662E-05   11.45       0.0  T
   2  -3478.8455668 -0.100499E-08  0.386E-05   11.45      45.4  T
   3  -3478.8455668 -0.454747E-11  0.906E-06   11.45     193.4  T
     SCC iter.                  ...        3 min,  2.148 sec
     gradient                   ...        3 min, 22.669 sec
 * total energy  : -3427.5299165 Eh     change    :  -0.2451181E-05 Eh
   gradient norm :     0.0044330 Eh/a0  converged?    E=T G=F D=T
   time step     :     0.1512500 fs     power     :   0.2081649E-09
   step length   :     0.0005370 a0     speed     :   0.8588124E-04

........................................................................
.............................. CYCLE   13 ..............................
........................................................................

 iter      E             dE          RMSdq      gap      omega  full diag
   1  -3478.8449331 -0.347884E+04  0.775E-05   11.45       0.0  T
   2  -3478.8449331 -0.130876E-08  0.452E-05   11.45      38.7  T
   3  -3478.8449331  0.181899E-11  0.104E-05   11.45     167.9  T
     SCC iter.                  ...        2 min, 59.010 sec
     gradient                   ...        3 min, 24.740 sec
 * total energy  : -3427.5299191 Eh     change    :  -0.2695365E-05 Eh
   gradient norm :     0.0041523 Eh/a0  converged?    E=T G=F D=T
   time step     :     0.1512500 fs     power     :   0.2285720E-09
   step length   :     0.0006317 a0     speed     :   0.1010276E-03

........................................................................
.............................. CYCLE   14 ..............................
........................................................................

 iter      E             dE          RMSdq      gap      omega  full diag
   1  -3478.8441578 -0.347884E+04  0.976E-05   11.45       0.0  T
   2  -3478.8441578 -0.203909E-08  0.570E-05   11.45      30.7  T
   3  -3478.8441578 -0.142336E-09  0.129E-05   11.45     135.8  T
     SCC iter.                  ...        3 min,  0.812 sec
     gradient                   ...        3 min, 26.406 sec
 * total energy  : -3427.5299223 Eh     change    :  -0.3171556E-05 Eh
   gradient norm :     0.0038210 Eh/a0  converged?    E=T G=F D=T
   time step     :     0.1663750 fs     power     :   0.2409015E-09
   step length   :     0.0008017 a0     speed     :   0.1165593E-03

........................................................................
.............................. CYCLE   15 ..............................
........................................................................

 iter      E             dE          RMSdq      gap      omega  full diag
   1  -3478.8432409 -0.347884E+04  0.121E-04   11.45       0.0  T
   2  -3478.8432410 -0.304362E-08  0.705E-05   11.45      24.8  T
   3  -3478.8432410 -0.459295E-10  0.154E-05   11.45     113.5  T
     SCC iter.                  ...        3 min,  3.495 sec
     gradient                   ...        3 min, 24.439 sec
 * total energy  : -3427.5299259 Eh     change    :  -0.3563910E-05 Eh
   gradient norm :     0.0034535 Eh/a0  converged?    E=T G=F D=T
   time step     :     0.1830125 fs     power     :   0.2428929E-09
   step length   :     0.0009996 a0     speed     :   0.1321139E-03

........................................................................
.............................. CYCLE   16 ..............................
........................................................................

 iter      E             dE          RMSdq      gap      omega  full diag
   1  -3478.8422022 -0.347884E+04  0.146E-04   11.45       0.0  T
   2  -3478.8422023 -0.413002E-08  0.854E-05   11.45      20.5  T
   3  -3478.8422023 -0.818545E-10  0.178E-05   11.45      98.2  T
     SCC iter.                  ...        3 min,  4.729 sec
     gradient                   ...        3 min, 23.066 sec
 * total energy  : -3427.5299297 Eh     change    :  -0.3851759E-05 Eh
   gradient norm :     0.0030825 Eh/a0  converged?    E=T G=F D=F
   time step     :     0.2013138 fs     power     :   0.2333858E-09
   step length   :     0.0012250 a0     speed     :   0.1471956E-03

........................................................................
.............................. CYCLE   17 ..............................
........................................................................

 iter      E             dE          RMSdq      gap      omega  full diag
   1  -3478.8410950 -0.347884E+04  0.172E-04   11.45       0.0  T
   2  -3478.8410950 -0.518003E-08  0.101E-04   11.45      17.3  T
   3  -3478.8410950 -0.495675E-10  0.196E-05   11.45      89.2  T
     SCC iter.                  ...        2 min, 59.195 sec
     gradient                   ...        3 min, 24.515 sec
 * total energy  : -3427.5299337 Eh     change    :  -0.3967716E-05 Eh
   gradient norm :     0.0027677 Eh/a0  converged?    E=T G=F D=F
   time step     :     0.2214451 fs     power     :   0.2135848E-09
   step length   :     0.0014753 a0     speed     :   0.1611528E-03

........................................................................
.............................. CYCLE   18 ..............................
........................................................................

 iter      E             dE          RMSdq      gap      omega  full diag
   1  -3478.8400229 -0.347884E+04  0.198E-04   11.45       0.0  T
   2  -3478.8400229 -0.581213E-08  0.117E-04   11.45      15.0  T
   3  -3478.8400229 -0.295586E-10  0.203E-05   11.45      86.5  T
     SCC iter.                  ...        3 min,  2.332 sec
     gradient                   ...        3 min, 23.313 sec
 * total energy  : -3427.5299377 Eh     change    :  -0.3947910E-05 Eh
   gradient norm :     0.0025825 Eh/a0  converged?    E=T G=F D=F
   time step     :     0.2435896 fs     power     :   0.1883339E-09
   step length   :     0.0017440 a0     speed     :   0.1731841E-03

........................................................................
.............................. CYCLE   19 ..............................
........................................................................

 iter      E             dE          RMSdq      gap      omega  full diag
   1  -3478.8391491 -0.347884E+04  0.222E-04   11.45       0.0  T
   2  -3478.8391491 -0.545788E-08  0.131E-04   11.45      13.4  T
   3  -3478.8391491 -0.171894E-09  0.192E-05   11.45      91.2  T
     SCC iter.                  ...        3 min,  1.368 sec
     gradient                   ...        3 min, 22.659 sec
 * total energy  : -3427.5299415 Eh     change    :  -0.3830890E-05 Eh
   gradient norm :     0.0025579 Eh/a0  converged?    E=T G=F D=F
   time step     :     0.2679486 fs     power     :   0.1659518E-09
   step length   :     0.0020224 a0     speed     :   0.1825706E-03

........................................................................
.............................. CYCLE   20 ..............................
........................................................................

 iter      E             dE          RMSdq      gap      omega  full diag
   1  -3478.8386789 -0.347884E+04  0.242E-04   11.46       0.0  T
   2  -3478.8386790 -0.438285E-08  0.143E-04   11.46      12.3  T
   3  -3478.8386790 -0.964064E-10  0.170E-05   11.46     103.2  T
     SCC iter.                  ...        3 min,  1.318 sec
     gradient                   ...        3 min, 23.271 sec
 * total energy  : -3427.5299454 Eh     change    :  -0.3886309E-05 Eh
   gradient norm :     0.0026247 Eh/a0  converged?    E=T G=F D=F
   time step     :     0.2947435 fs     power     :   0.1545781E-09
   step length   :     0.0023079 a0     speed     :   0.1894021E-03
 * RMSD in coord.:     0.0005843 a0     energy gain  -0.3146662E-03 Eh

........................................................................
.............................. CYCLE   21 ..............................
........................................................................

 iter      E             dE          RMSdq      gap      omega  full diag
   1  -3478.8387530 -0.347884E+04  0.199E-04   11.46       0.0  T
   2  -3478.8387530 -0.183536E-08  0.117E-04   11.46      14.9  T
   3  -3478.8387530 -0.786713E-10  0.117E-05   11.46     150.0  T
     SCC iter.                  ...        3 min,  6.373 sec
     gradient                   ...        3 min, 23.089 sec
 * total energy  : -3427.5299487 Eh     change    :  -0.3287100E-05 Eh
   gradient norm :     0.0026409 Eh/a0  converged?    E=T G=F D=F
   time step     :     0.2500000 fs     power     :   0.1595323E-09
   step length   :     0.0019810 a0     speed     :   0.1916688E-03

........................................................................
.............................. CYCLE   22 ..............................
........................................................................

 iter      E             dE          RMSdq      gap      omega  full diag
   1  -3478.8392954 -0.347884E+04  0.195E-04   11.46       0.0  T
   2  -3478.8392954 -0.149566E-08  0.115E-04   11.46      15.3  T
   3  -3478.8392954  0.813998E-10  0.116E-05   11.46     151.4  T
     SCC iter.                  ...        3 min,  0.720 sec
     gradient                   ...        3 min, 23.083 sec
 * total energy  : -3427.5299521 Eh     change    :  -0.3411187E-05 Eh
   gradient norm :     0.0025471 Eh/a0  converged?    E=T G=F D=F
   time step     :     0.2500000 fs     power     :   0.1688695E-09
   step length   :     0.0020065 a0     speed     :   0.1941378E-03

........................................................................
.............................. CYCLE   23 ..............................
........................................................................

 iter      E             dE          RMSdq      gap      omega  full diag
   1  -3478.8402655 -0.347884E+04  0.195E-04   11.46       0.0  T
   2  -3478.8402655 -0.199680E-08  0.114E-04   11.46      15.4  T
   3  -3478.8402655 -0.513865E-10  0.126E-05   11.46     138.6  T
     SCC iter.                  ...        2 min, 57.030 sec
     gradient                   ...        3 min, 24.158 sec
 * total energy  : -3427.5299556 Eh     change    :  -0.3502425E-05 Eh
   gradient norm :     0.0023276 Eh/a0  converged?    E=T G=F D=F
   time step     :     0.2500000 fs     power     :   0.1741242E-09
   step length   :     0.0020421 a0     speed     :   0.1975842E-03

........................................................................
.............................. CYCLE   24 ..............................
........................................................................

 iter      E             dE          RMSdq      gap      omega  full diag
   1  -3478.8415938 -0.347884E+04  0.197E-04   11.46       0.0  T
   2  -3478.8415938 -0.288082E-08  0.114E-04   11.46      15.3  T
   3  -3478.8415938 -0.709406E-10  0.145E-05   11.46     121.2  T
     SCC iter.                  ...        2 min, 57.519 sec
     gradient                   ...        3 min, 24.561 sec
 * total energy  : -3427.5299590 Eh     change    :  -0.3467593E-05 Eh
   gradient norm :     0.0020044 Eh/a0  converged?    E=T G=F D=F
   time step     :     0.2500000 fs     power     :   0.1688841E-09
   step length   :     0.0020876 a0     speed     :   0.2019835E-03

........................................................................
.............................. CYCLE   25 ..............................
........................................................................

 iter      E             dE          RMSdq      gap      omega  full diag
   1  -3478.8431831 -0.347884E+04  0.200E-04   11.46       0.0  T
   2  -3478.8431831 -0.385944E-08  0.115E-04   11.45      15.2  T
   3  -3478.8431831 -0.945874E-10  0.165E-05   11.45     106.3  T
     SCC iter.                  ...        2 min, 56.070 sec
     gradient                   ...        3 min, 24.226 sec
 * total energy  : -3427.5299622 Eh     change    :  -0.3174844E-05 Eh
   gradient norm :     0.0016403 Eh/a0  converged?    E=T G=F D=F
   time step     :     0.2500000 fs     power     :   0.1507779E-09
   step length   :     0.0021374 a0     speed     :   0.2068041E-03

........................................................................
.............................. CYCLE   26 ..............................
........................................................................

 iter      E             dE          RMSdq      gap      omega  full diag
   1  -3478.8450789 -0.347885E+04  0.221E-04   11.45       0.0  T
   2  -3478.8450789 -0.566706E-08  0.127E-04   11.45      13.8  T
   3  -3478.8450789 -0.250111E-09  0.198E-05   11.45      88.3  T
     SCC iter.                  ...        2 min, 57.387 sec
     gradient                   ...        3 min, 24.477 sec
 * total energy  : -3427.5299652 Eh     change    :  -0.2949666E-05 Eh
   gradient norm :     0.0013355 Eh/a0  converged?    E=T G=F D=F
   time step     :     0.2750000 fs     power     :   0.1192117E-09
   step length   :     0.0024096 a0     speed     :   0.2119447E-03

........................................................................
.............................. CYCLE   27 ..............................
........................................................................

 iter      E             dE          RMSdq      gap      omega  full diag
   1  -3478.8470583 -0.347885E+04  0.234E-04   11.45       0.0  T
   2  -3478.8470583 -0.645559E-08  0.134E-04   11.45      13.1  T
   3  -3478.8470583 -0.213277E-09  0.208E-05   11.45      84.1  T
     SCC iter.                  ...        3 min,  2.757 sec
     gradient                   ...        3 min, 23.938 sec
 * total energy  : -3427.5299676 Eh     change    :  -0.2436101E-05 Eh
   gradient norm :     0.0013148 Eh/a0  converged?    E=T G=F D=F
   time step     :     0.3025000 fs     power     :   0.8359265E-10
   step length   :     0.0026884 a0     speed     :   0.2149744E-03

........................................................................
.............................. CYCLE   28 ..............................
........................................................................

 iter      E             dE          RMSdq      gap      omega  full diag
   1  -3478.8487430 -0.347885E+04  0.231E-04   11.45       0.0  T
   2  -3478.8487430 -0.491764E-08  0.133E-04   11.45      13.2  T
   3  -3478.8487430 -0.145064E-09  0.176E-05   11.45      99.3  T
     SCC iter.                  ...        2 min, 58.136 sec
     gradient                   ...        3 min, 23.712 sec
 * total energy  : -3427.5299696 Eh     change    :  -0.1989122E-05 Eh
   gradient norm :     0.0015487 Eh/a0  converged?    E=T G=F D=F
   time step     :     0.3327500 fs     power     :   0.6146640E-10
   step length   :     0.0029194 a0     speed     :   0.2122240E-03

........................................................................
.............................. CYCLE   29 ..............................
........................................................................

 iter      E             dE          RMSdq      gap      omega  full diag
   1  -3478.8498078 -0.347885E+04  0.218E-04   11.45       0.0  T
   2  -3478.8498078 -0.238606E-08  0.126E-04   11.45      13.9  T
   3  -3478.8498078 -0.205546E-09  0.124E-05   11.45     141.5  T
     SCC iter.                  ...        2 min, 59.265 sec
     gradient                   ...        3 min, 23.081 sec
 * total energy  : -3427.5299716 Eh     change    :  -0.1992460E-05 Eh
   gradient norm :     0.0017505 Eh/a0  converged?    E=T G=F D=F
   time step     :     0.3660250 fs     power     :   0.6050918E-10
   step length   :     0.0031089 a0     speed     :   0.2054550E-03

........................................................................
.............................. CYCLE   30 ..............................
........................................................................

 iter      E             dE          RMSdq      gap      omega  full diag
   1  -3478.8500511 -0.347885E+04  0.206E-04   11.45       0.0  T
   2  -3478.8500511 -0.128193E-08  0.120E-04   11.45      14.6  T
   3  -3478.8500511 -0.115051E-09  0.989E-06   11.45     177.2  T
     SCC iter.                  ...        2 min, 58.983 sec
     gradient                   ...        3 min, 25.384 sec
 * total energy  : -3427.5299740 Eh     change    :  -0.2446904E-05 Eh
   gradient norm :     0.0017427 Eh/a0  converged?    E=T G=F D=F
   time step     :     0.4026275 fs     power     :   0.7204952E-10
   step length   :     0.0033222 a0     speed     :   0.1995912E-03

........................................................................
.............................. CYCLE   31 ..............................
........................................................................

 iter      E             dE          RMSdq      gap      omega  full diag
   1  -3478.8494026 -0.347885E+04  0.205E-04   11.45       0.0  T
   2  -3478.8494026 -0.287446E-08  0.121E-04   11.45      14.5  T
   3  -3478.8494026 -0.205546E-09  0.126E-05   11.45     138.9  T
     SCC iter.                  ...        2 min, 56.961 sec
     gradient                   ...        3 min, 23.614 sec
 * total energy  : -3427.5299770 Eh     change    :  -0.2992560E-05 Eh
   gradient norm :     0.0015125 Eh/a0  converged?    E=T G=F D=F
   time step     :     0.4428903 fs     power     :   0.7951574E-10
   step length   :     0.0036125 a0     speed     :   0.1973009E-03

........................................................................
.............................. CYCLE   32 ..............................
........................................................................

 iter      E             dE          RMSdq      gap      omega  full diag
   1  -3478.8480151 -0.347885E+04  0.213E-04   11.45       0.0  T
   2  -3478.8480151 -0.626142E-08  0.126E-04   11.45      14.0  T
   3  -3478.8480151 -0.286036E-09  0.192E-05   11.45      91.1  T
     SCC iter.                  ...        2 min, 57.879 sec
     gradient                   ...        3 min, 22.865 sec
 * total energy  : -3427.5299802 Eh     change    :  -0.3198531E-05 Eh
   gradient norm :     0.0012788 Eh/a0  converged?    E=T G=F D=F
   time step     :     0.4871793 fs     power     :   0.7176115E-10
   step length   :     0.0039935 a0     speed     :   0.1982790E-03

........................................................................
.............................. CYCLE   33 ..............................
........................................................................

 iter      E             dE          RMSdq      gap      omega  full diag
   1  -3478.8464610 -0.347885E+04  0.209E-04   11.46       0.0  T
   2  -3478.8464610 -0.725913E-08  0.124E-04   11.46      14.2  T
   3  -3478.8464610 -0.202363E-09  0.210E-05   11.46      83.3  T
     SCC iter.                  ...        2 min, 57.508 sec
     gradient                   ...        3 min, 22.949 sec
 * total energy  : -3427.5299832 Eh     change    :  -0.3005649E-05 Eh
   gradient norm :     0.0013842 Eh/a0  converged?    E=T G=F D=F
   time step     :     0.5358972 fs     power     :   0.5891424E-10
   step length   :     0.0044197 a0     speed     :   0.1994915E-03

........................................................................
.............................. CYCLE   34 ..............................
........................................................................

 iter      E             dE          RMSdq      gap      omega  full diag
   1  -3478.8456229 -0.347885E+04  0.192E-04   11.46       0.0  T
   2  -3478.8456229 -0.302498E-08  0.114E-04   11.46      15.4  T
   3  -3478.8456229 -0.114142E-09  0.112E-05   11.46     156.5  T
     SCC iter.                  ...        2 min, 58.855 sec
     gradient                   ...        3 min, 23.557 sec
 * total energy  : -3427.5299864 Eh     change    :  -0.3219526E-05 Eh
   gradient norm :     0.0015829 Eh/a0  converged?    E=T G=F D=F
   time step     :     0.5894869 fs     power     :   0.6320898E-10
   step length   :     0.0048345 a0     speed     :   0.1983763E-03

........................................................................
.............................. CYCLE   35 ..............................
........................................................................

 iter      E             dE          RMSdq      gap      omega  full diag
   1  -3478.8461318 -0.347885E+04  0.211E-04   11.46       0.0  T
   2  -3478.8461318 -0.115415E-08  0.123E-04   11.46      14.2  T
   3  -3478.8461318 -0.100044E-09  0.768E-06   11.46     228.2  T
     SCC iter.                  ...        2 min, 56.996 sec
     gradient                   ...        3 min, 24.871 sec
 * total energy  : -3427.5299906 Eh     change    :  -0.4197818E-05 Eh
   gradient norm :     0.0014591 Eh/a0  converged?    E=T G=F D=F
   time step     :     0.6484356 fs     power     :   0.7938735E-10
   step length   :     0.0053401 a0     speed     :   0.1992038E-03

........................................................................
.............................. CYCLE   36 ..............................
........................................................................

 iter      E             dE          RMSdq      gap      omega  full diag
   1  -3478.8480846 -0.347885E+04  0.273E-04   11.46       0.0  T
   2  -3478.8480846 -0.766431E-08  0.158E-04   11.46      11.1  T
   3  -3478.8480846 -0.182808E-09  0.222E-05   11.46      79.1  T
     SCC iter.                  ...        2 min, 56.977 sec
     gradient                   ...        3 min, 23.846 sec
 * total energy  : -3427.5299956 Eh     change    :  -0.4989232E-05 Eh
   gradient norm :     0.0011119 Eh/a0  converged?    E=T G=F D=F
   time step     :     0.7132792 fs     power     :   0.7887901E-10
   step length   :     0.0060483 a0     speed     :   0.2051102E-03

........................................................................
.............................. CYCLE   37 ..............................
........................................................................

 iter      E             dE          RMSdq      gap      omega  full diag
   1  -3478.8505211 -0.347885E+04  0.305E-04   11.45       0.0  T
   2  -3478.8505211 -0.126224E-07  0.178E-04   11.45       9.9  T
   3  -3478.8505211 -0.419277E-09  0.298E-05   11.45      58.9  T
     SCC iter.                  ...        3 min,  2.275 sec
     gradient                   ...        3 min, 23.423 sec
 * total energy  : -3427.5300003 Eh     change    :  -0.4676295E-05 Eh
   gradient norm :     0.0012288 Eh/a0  converged?    E=T G=F D=F
   time step     :     0.7846071 fs     power     :   0.6264002E-10
   step length   :     0.0069047 a0     speed     :   0.2128682E-03

........................................................................
.............................. CYCLE   38 ..............................
........................................................................

 iter      E             dE          RMSdq      gap      omega  full diag
   1  -3478.8515587 -0.347885E+04  0.275E-04   11.46       0.0  T
   2  -3478.8515587 -0.596356E-08  0.162E-04   11.46      10.8  T
   3  -3478.8515587 -0.237378E-09  0.222E-05   11.46      79.0  T
     SCC iter.                  ...        2 min, 56.685 sec
     gradient                   ...        3 min, 23.778 sec
 * total energy  : -3427.5300053 Eh     change    :  -0.5000239E-05 Eh
   gradient norm :     0.0013228 Eh/a0  converged?    E=F G=F D=F
   time step     :     0.8630678 fs     power     :   0.6751923E-10
   step length   :     0.0077145 a0     speed     :   0.2162124E-03

........................................................................
.............................. CYCLE   39 ..............................
........................................................................

 iter      E             dE          RMSdq      gap      omega  full diag
   1  -3478.8504882 -0.347885E+04  0.298E-04   11.46       0.0  T
   2  -3478.8504882 -0.969931E-08  0.174E-04   11.46      10.1  T
   3  -3478.8504882 -0.251021E-09  0.291E-05   11.46      60.3  T
     SCC iter.                  ...        2 min, 57.755 sec
     gradient                   ...        3 min, 23.774 sec
 * total energy  : -3427.5300113 Eh     change    :  -0.5962861E-05 Eh
   gradient norm :     0.0010449 Eh/a0  converged?    E=F G=F D=F
   time step     :     0.9493746 fs     power     :   0.7006529E-10
   step length   :     0.0087067 a0     speed     :   0.2218357E-03

........................................................................
.............................. CYCLE   40 ..............................
........................................................................

 iter      E             dE          RMSdq      gap      omega  full diag
   1  -3478.8490052 -0.347885E+04  0.317E-04   11.46       0.0  T
   2  -3478.8490052 -0.100254E-07  0.184E-04   11.46       9.5  T
   3  -3478.8490052 -0.319233E-09  0.260E-05   11.46      67.3  T
     SCC iter.                  ...        3 min,  1.323 sec
     gradient                   ...        3 min, 23.766 sec
 * total energy  : -3427.5300172 Eh     change    :  -0.5892775E-05 Eh
   gradient norm :     0.0012736 Eh/a0  converged?    E=F G=F D=F
   time step     :     1.0443120 fs     power     :   0.6101225E-10
   step length   :     0.0099201 a0     speed     :   0.2297739E-03

........................................................................
.............................. CYCLE   41 ..............................
........................................................................

 iter      E             dE          RMSdq      gap      omega  full diag
   1  -3478.8500147 -0.347885E+04  0.325E-04   11.46       0.0  T
   2  -3478.8500147 -0.482441E-08  0.190E-04   11.46       9.2  T
   3  -3478.8500147 -0.411546E-09  0.141E-05   11.46     124.2  T
     SCC iter.                  ...        3 min,  0.023 sec
     gradient                   ...        3 min, 24.377 sec
 * total energy  : -3427.5300245 Eh     change    :  -0.7310433E-05 Eh
   gradient norm :     0.0011379 Eh/a0  converged?    E=F G=F D=F
   time step     :     1.1487432 fs     power     :   0.7603996E-10
   step length   :     0.0111738 a0     speed     :   0.2352853E-03

........................................................................
.............................. CYCLE   42 ..............................
........................................................................

 iter      E             dE          RMSdq      gap      omega  full diag
   1  -3478.8524684 -0.347885E+04  0.394E-04   11.46       0.0  T
   2  -3478.8524684 -0.182990E-07  0.230E-04   11.46       7.6  T
   3  -3478.8524684 -0.639830E-09  0.324E-05   11.46      54.1  T
     SCC iter.                  ...        2 min, 58.775 sec
     gradient                   ...        3 min, 24.021 sec
 * total energy  : -3427.5300326 Eh     change    :  -0.8114808E-05 Eh
   gradient norm :     0.0011841 Eh/a0  converged?    E=F G=F D=F
   time step     :     1.2500000 fs     power     :   0.7009169E-10
   step length   :     0.0127342 a0     speed     :   0.2464198E-03
 * RMSD in coord.:     0.0016606 a0     energy gain  -0.8721813E-04 Eh

........................................................................
.............................. CYCLE   43 ..............................
........................................................................

 iter      E             dE          RMSdq      gap      omega  full diag
   1  -3478.8525304 -0.347885E+04  0.623E-05   11.46       0.0  T
   2  -3478.8525304 -0.163709E-09  0.367E-05   11.46      47.8  T
   3  -3478.8525304 -0.291038E-10  0.219E-06   11.46     800.2  T
     SCC iter.                  ...        2 min, 59.637 sec
     gradient                   ...        3 min, 22.461 sec
 * total energy  : -3427.5300341 Eh     change    :  -0.1543577E-05 Eh
   gradient norm :     0.0012033 Eh/a0  converged?    E=T G=F D=F
   time step     :     0.2500000 fs     power     :   0.8065442E-10
   step length   :     0.0024514 a0     speed     :   0.2371887E-03

........................................................................
.............................. CYCLE   44 ..............................
........................................................................

 iter      E             dE          RMSdq      gap      omega  full diag
   1  -3478.8522033 -0.347885E+04  0.618E-05   11.46       0.0  T
   2  -3478.8522033 -0.251475E-09  0.361E-05   11.46      48.5  T
   3  -3478.8522033 -0.736691E-10  0.445E-06   11.46     394.1  T
     SCC iter.                  ...        3 min,  3.539 sec
     gradient                   ...        3 min, 21.864 sec
 * total energy  : -3427.5300358 Eh     change    :  -0.1714087E-05 Eh
   gradient norm :     0.0011207 Eh/a0  converged?    E=T G=F D=F
   time step     :     0.2500000 fs     power     :   0.8935232E-10
   step length   :     0.0023843 a0     speed     :   0.2306929E-03

........................................................................
.............................. CYCLE   45 ..............................
........................................................................

 iter      E             dE          RMSdq      gap      omega  full diag
   1  -3478.8515730 -0.347885E+04  0.717E-05   11.46       0.0  T
   2  -3478.8515730 -0.716682E-09  0.417E-05   11.46      42.1  T
   3  -3478.8515730 -0.200089E-10  0.762E-06   11.46     229.9  T
     SCC iter.                  ...        3 min,  4.153 sec
     gradient                   ...        3 min, 22.517 sec
 * total energy  : -3427.5300376 Eh     change    :  -0.1794849E-05 Eh
   gradient norm :     0.0009848 Eh/a0  converged?    E=T G=T D=F
   time step     :     0.2500000 fs     power     :   0.9211370E-10
   step length   :     0.0023493 a0     speed     :   0.2273119E-03

   *** GEOMETRY OPTIMIZATION CONVERGED AFTER 45 CYCLES ***

------------------------------------------------------------------------
 total energy gain   :        -0.0004069 Eh       -0.2554 kcal/mol
 total RMSD          :         0.0020206 a0        0.0011 Å
 total power (kW/mol):        -0.0237425 (step)   -0.0001 (real)
------------------------------------------------------------------------

 FIRE (total)                  0 d,  5 h,  1 min, 52.696 sec
 setup                          ...        0 min,  0.121 sec (  0.001%)
 velocities                     ...        0 min,  0.003 sec (  0.000%)
 propagation                    ...        0 min,  0.005 sec (  0.000%)
 singlepoint calculation        ...      301 min, 51.832 sec ( 99.995%)
 log and printout               ...        0 min,  0.680 sec (  0.004%)
 preconditioner                 ...        0 min,  0.000 sec (  0.000%)
 model hessian                  ...        0 min,  0.000 sec (  0.000%)
 hessian update                 ...        0 min,  0.000 sec (  0.000%)

================
 final structure:
================
3258
 xtb: 6.6.1 (8d0f1dd)
C          103.08361966315574       94.34268123659605      116.39334116643795
C          103.70650847151983       95.71274609002987      116.62955107782888
C          102.73805169882121       96.67663019681591      117.31089154142973
C          103.35451984558127       98.05902252952758      117.51076556318812
C          102.39108733408544       99.03582872543183      118.18096081717290
C          103.01097896046464      100.42005953073468      118.35850426705512
C          102.04545178029522      101.40935091624888      119.00703368843556
C          102.66515108990434      102.79497534228884      119.17605544207072
C          101.68323715777940      103.79418227618848      119.78358795939701
C          102.28954229412857      105.18749123313883      119.93854564954555
C          101.27680634043534      106.19362037193888      120.48119834450830
C          101.86121904671295      107.59791894201332      120.61861076828744
C          100.81225097865330      108.60963668421849      121.07567570054033
C          101.38087962140246      110.02142772215004      121.20622574683600
C          100.29052706509125      111.03896932717599      121.53620155907504
C          100.81268145668921      112.46162039469114      121.74278384581281
C          101.52863485323844      113.02041236420678      120.51490924635891
C          101.76624220763202      114.52703291905247      120.60568213249175
C          102.71612219268452      115.00619035953147      119.51048806607128
C          102.91129005333283      116.51966043095324      119.51217713950868
C          103.86707583229531      116.97043803679450      118.40880888814330
C          104.09196381528672      118.47985759800549      118.42453132991949
C          104.97072643079372      118.95513214953991      117.26991479656218
C          105.15002376792694      120.47381208650552      117.23731410976094
C          106.05950652145472      121.01820140799607      118.33601979245003
C          106.18141486782642      122.53734673143776      118.24285521171838
C          107.18844416061758      123.13487452161107      119.22455275376329
C          106.76401277702492      123.03055000105689      120.68809086815541
C          107.64288423361950      123.89979902653296      121.58615217780350
C          107.26888515657677      123.81736328946906      123.06774370898209
C          107.76372524756900      122.53987384468228      123.74299724203640
C          107.40963245827999      122.50736615726906      125.22811374511301
C          108.10912035424562      121.38364759009374      125.99448709914837
C          107.67014145109731      119.98242804453692      125.57365701120111
C          108.22625483109266      118.91220417430446      126.51013440658254
C          107.78800546084781      117.50309801457647      126.11519300236947
C          108.18553829040475      116.47896032608068      127.17574508315060
C          107.69018981625379      115.06211754008859      126.87989479441462
C          108.53441345044988      114.31141192187418      125.85192299067012
C          108.01656433203263      112.88858254742016      125.65140319647374
C          108.93280956047927      112.03071888723987      124.78232929446175
C          108.36254447132134      110.62669786891252      124.59554588108364
C          109.28533840287039      109.70764885858033      123.79914881908040
C          108.66825745414553      108.32332053363228      123.61268227797338
C          109.57538286581720      107.37431407284838      122.83393506373770
C          108.94715953595731      105.99148530278296      122.67253288529302
C          109.84813419033570      105.03889142521220      121.89132100638007
C          109.25953433968651      103.63374050645920      121.78083889242652
C          110.17330945217559      102.70592096057499      120.98410451317756
C          109.69688140776668      101.25560437902182      120.97564227857129
C          110.60303366335451      100.37551714540842      120.11508309379906
C          110.32295868381304       98.88763578111700      120.31257092754124
C          111.06018340030153       97.99015328974744      119.31712762141245
C          112.57480256142563       98.19524008820910      119.30042439146497
C          113.28196387642693       97.09738182406005      118.50711057230200
C          114.75009657179653       97.42121915914389      118.24106458841226
C          115.44615790129473       96.29070308290709      117.48652852049308
C          116.90505604009759       96.59038411554410      117.13878013857610
C          117.07011334770037       97.64812251820383      116.04854559038365
C          118.52823162946659       97.78965830514846      115.61673824466459
C          118.71313317749660       98.82157347475274      114.50678622617893
C          120.16528181446232       98.90451378938153      114.04203802705689
C          120.35506203317998       99.91932211620734      112.91756989176477
C          121.80515436977656       99.99534447574995      112.44448007025035
C          121.98185166251641      100.99898658186763      111.30770205956757
C          123.44643009239370      101.17685864179013      110.91372273118576
C          123.62848201801184      102.01905487239135      109.64816492290966
C          123.22342631561796      101.31069262621797      108.35310116066903
C          124.15790060050605      100.16345953210350      107.97528401958084
C          123.69094726304679       99.44428696184102      106.71185159407206
C          124.64284351072585       98.33739690483203      106.25196433538029
C          124.92415540786908       97.24881530512641      107.29116500111232
C          123.66733358118046       96.52722172329644      107.77068249751439
C          123.99018613461000       95.42519148654721      108.77920342240439
C          122.74885623910615       94.65636291466996      109.23679068362364
C          121.83644121085037       95.47118061452365      110.15204258904764
C          120.49887897384437       94.77670984012099      110.39992334852820
C          119.51494737452012       95.68465904310118      111.13444513735362
C          118.11374031771226       95.08111368015622      111.19392234397048
C          117.09430892728226       95.97483462949872      111.90151564846825
C          116.88648162358218       97.31770414838911      111.20363329556460
C          115.72837944075256       98.11299631327567      111.80028552948610
C          115.66910658333147       99.53742623254884      111.25290345843911
C          114.53763498650464      100.34339060355282      111.88351393592065
C          114.51858627591959      101.79630836824711      111.41310579578595
C          113.55093286081204      102.63917698490674      112.23965286359045
C          113.61878266780035      104.12945895992716      111.91337207273583
C          112.82760818663567      104.95166751490218      112.92893350780565
C          112.99819294610612      106.45628809066753      112.73810463240184
C          112.37756187595528      107.24876997711098      113.88648213008072
C          112.59115831201450      108.75572375555622      113.76192569978797
C          112.11758084055577      109.49695460331976      115.01008313787024
C          112.35397484915455      111.00122359818596      114.91879900431172
C          112.01014330568776      111.72205552517218      116.22140648574329
C          112.50539144318506      113.16479841573445      116.21186192629554
C          112.26326305233502      113.89614054606801      117.53105858961437
C          113.08009662521017      115.18387828473587      117.60065552514881
C          112.90888223126117      115.93693102222186      118.91613728198476
C          113.89022155153475      117.10207225046521      119.03324359239225
C          113.67375928629991      117.89563687314036      120.31972877349109
C          114.79505888829689      118.88647175986661      120.63350386748159
C          114.94926775343194      119.99190172477437      119.59238276615413
C          115.97474017891463      121.04039691517086      120.02007467451601
C          116.18570018601872      122.10654816082722      118.94732119107236
C          117.16663426779637      123.19072116439075      119.38767574942372
C          117.33204292232438      124.31287573049161      118.36068277705472
C          118.02034942587072      123.85465911933775      117.07677728868985
C          118.28716877823288      125.00753613010191      116.11099836299070
C          118.92464425994692      124.50685402923305      114.81689822039228
C          119.19110576682102      125.60387420727659      113.78488426286698
C          117.90782871558696      126.19651255949137      113.20625698945769
C          118.16339651295074      127.12453631821592      112.02001485847445
C          116.86243711538459      127.74484225884810      111.51534840802310
C          117.05246476270122      128.65741391844534      110.30539703030907
C          115.72924166166804      129.31396478054643      109.91759008861952
C          115.82523925361927      130.29424441437476      108.74842249204188
C          116.12833926992786      129.62101005369644      107.41052813163554
C          115.82385089763025      130.53795286803270      106.22733927575281
C          116.01350092236299      129.83358618153005      104.88576649955856
C          115.68027028010243      130.74365897644151      103.71033268329569
H          117.04708606507181      129.49118755960890      104.79804051269855
H          115.36797492410034      128.95259075364146      104.85053325998400
H          114.79001624491218      130.88660252044588      106.30214966867463
H          116.47032523688574      131.41741364293691      106.27133344555966
H          117.17514919880097      129.31405861188361      107.37176469797139
H          115.51781503357469      128.71965547664678      107.32273925802546
H          114.86594971590452      130.81215874923231      108.66266590361927
H          116.58621891002421      131.04788755252335      108.96219242753257
H          115.00426898793162      128.53477472327575      109.66983510111208
H          115.34574878077792      129.85148032511080      110.78927001218905
H          117.78649425267108      129.43086266355726      110.54285655802248
H          117.44090908760113      128.07496509892655      109.46777251348333
H          116.16348915858309      126.94754388797870      111.25000697554441
H          116.40872139616746      128.32242939338272      112.32523430890274
H          118.85232119586966      127.91787654869803      112.31906011568756
H          118.63888625370167      126.56321346015882      111.21145528653118
H          117.25608221273396      125.38196941881932      112.88097089150453
H          117.38248297431366      126.75595418815546      113.98223220028477
H          119.78982008265409      126.39737569645150      114.23793739270306
H          119.78003253077000      125.17729704220466      112.96766552534352
H          119.86849234425799      124.01235830194646      115.06178638850608
H          118.27080631047207      123.75565533347641      114.37017636439103
H          117.34285545302849      125.50604880512329      115.88657873794203
H          118.94561724945211      125.74027309639257      116.58393264479545
H          118.96642593205016      123.37071487987438      117.33122569478464
H          117.39536501328165      123.11578849246214      116.57284027769354
H          116.35089197103528      124.72905654523343      118.11833038419843
H          117.92476893449670      125.11327575602242      118.81095273168511
H          116.81125815144425      123.62335207603105      120.32644944214110
H          118.14192355065499      122.73881672206451      119.58249746331731
H          116.55609334797467      121.62326289458510      118.04163873304076
H          115.22619641428304      122.57313518916108      118.71246200280018
H          115.64428773128348      121.51512833908308      120.94704097736607
H          116.92637029668242      120.54649033510613      120.22888481233629
H          115.26428171054017      119.55728400295270      118.64165624803238
H          113.98182998805842      120.47465603875715      119.43523499990781
H          114.59146820878829      119.34747492847399      121.60336293695066
H          115.73826974573392      118.34297679915792      120.72530898976794
H          112.72658473292628      118.43440693882697      120.24878648972738
H          113.59469018692859      117.19270154398610      121.15380985280751
H          114.90967763147516      116.71136189978105      119.01835534781802
H          113.77116877433721      117.75827303843464      118.16889830788658
H          111.88545142632591      116.31341297936967      118.99079345967219
H          113.06800058945799      115.24802491863298      119.74916325948975
H          114.13577795729707      114.93258237407113      117.47531436882991
H          112.80053303298061      115.83607926751415      116.76947560301774
H          111.20048361944855      114.12006245371262      117.64473761200581
H          112.55360672290291      113.24764903767310      118.36109744170275
H          113.58040966108085      113.15253457425317      116.01889146054339
H          112.02987718813691      113.71173451658511      115.39386087050553
H          110.93067432911397      111.69776447938749      116.38490843513512
H          112.47928011345044      111.19493999533366      117.05612228308675
H          113.40634319635869      111.17787888399346      114.68161886688115
H          111.76313900049018      111.41943185598545      114.10091550106578
H          111.05534961824721      109.30479573800184      115.16731071512559
H          112.65477369597440      109.10590756804976      115.87880298962857
H          113.65420827518123      108.96087400078231      113.60869060986003
H          112.05428242962472      109.13346522139082      112.88952627156519
H          111.30792849151139      107.04046392899184      113.93324827909576
H          112.82071023752874      106.90849238848257      114.82648571062863
H          114.06549129993277      106.67963086946014      112.68604778198278
H          112.54749677796823      106.76268996388427      111.79093964791286
H          111.76952696409035      104.69231863315329      112.86476023635963
H          113.17473614498226      104.68702910647285      113.93143214946222
H          114.66337016104863      104.45041860924222      111.93359383561192
H          113.23892482054077      104.31066604239713      110.90553171328145
H          112.52968620874636      102.28026241762157      112.09059572009171
H          113.79757181589578      102.50603216024666      113.29660042442991
H          115.52363619430180      102.20998463905806      111.51396420649755
H          114.24584996023286      101.84197528648386      110.35741070668890
H          113.57830012917164       99.87254338422679      111.65408852653235
H          114.66250864855373      100.32370999868449      112.96938104678249
H          116.61737331290857      100.03951552701567      111.46397765843440
H          115.54215891475535       99.50965543125332      110.16904842738238
H          114.78822133479731       97.59928258255400      111.58780333319845
H          115.83754373286408       98.15561897224062      112.88672613178275
H          117.79771662766561       97.91409333931934      111.28183457825526
H          116.68936648741924       97.14491463069159      110.14354728422333
H          116.13927542232588       95.44568980518596      111.94192311017608
H          117.41923329053770       96.14918363571046      112.92976555932994
H          117.76738954733314       94.88295704216546      110.17634484648001
H          118.16066481360160       94.12019856283976      111.71234225667519
H          119.87360316649902       95.87563502395761      112.14846655981921
H          119.47477314795131       96.64099745317507      110.61088071032229
H          120.06441547953808       94.49521533310372      109.43783631702253
H          120.65680392332240       93.85825197304719      110.96968173713157
H          122.34136389318250       95.65241830690206      111.10379799655419
H          121.63994246249412       96.44362442708669      109.69682857781983
H          122.18574509841086       94.34402386289463      108.35343535775320
H          123.05950564873004       93.75045856511436      109.76265171511761
H          124.69002643164663       94.72276359235755      108.31967788116587
H          124.48719099361945       95.86169443693909      109.64911682819765
H          122.99506355527267       97.25081999565877      108.23059488777862
H          123.15180314077367       96.09057925676389      106.91163700763028
H          125.60382260298293       96.51827419421454      106.84434730364575
H          125.44064123270392       97.68444523055884      108.14856971149237
H          124.21924233470600       97.86928743111643      105.35940547087117
H          125.59552800720284       98.78968070592154      105.96445469313691
H          122.69798265841959       99.02406320068945      106.88222798428541
H          123.59879373566245      100.17305122736921      105.90217331943916
H          125.16635313887363      100.55434567891254      107.81942835785175
H          124.20038444599129       99.44919301682690      108.79689307916458
H          122.20507695998535      100.92902837397790      108.44256404059642
H          123.22710599559306      102.04428832520624      107.54380028337241
H          123.03759353333874      102.93311346818204      109.75067105440596
H          124.67710591900331      102.31486975920257      109.56685861636896
H          123.97527645174969      101.66200065107549      111.73818422989011
H          123.90297496062514      100.19612245081396      110.77240990238455
H          121.40975179271599      100.65105775087846      110.44678882708470
H          121.57086815014596      101.96574397775969      111.60874198434989
H          122.44807709075674      100.27777828394966      113.28170445394515
H          122.12654774298744       99.00698897150625      112.10640575624004
H          119.71663512944396       99.64686536086180      112.07292386849005
H          120.03701934353248      100.90553794382681      113.26454526847822
H          120.80200839339622       99.17707068222619      114.88708211140477
H          120.48690156929369       97.92006061416116      113.69334889873824
H          118.08190291368636       98.55487032219622      113.65772021632728
H          118.38621857261052       99.80151842228203      114.86291719351831
H          119.13382829626158       98.07476305995681      116.48010670339808
H          118.89346826242323       96.82007498322129      115.26749778822254
H          116.46544141457537       97.36590816878146      115.18218813968217
H          116.70808520343027       98.61310234340137      116.40734419482756
H          117.43440428478186       96.91171725268003      118.03895632384946
H          117.37548670305264       95.66521634610538      116.79507770446462
H          115.41096621807044       95.38810800539950      118.10196396477124
H          114.89585807653113       96.07968294644338      116.56695842503896
H          114.80711772035963       98.34257343924213      117.65941065364541
H          115.26417652457475       97.59594816393323      119.18899916338579
H          113.20911382543299       96.15226162186154      119.05089732953527
H          112.77482871718463       96.96417793143817      117.54940955766197
H          112.80552310955463       99.16265830676687      118.85101809336967
H          112.95477623288616       98.20404989261210      120.32446778757294
H          110.84449844102907       96.94801844770755      119.56699683608505
H          110.66918065705129       98.17113725651326      118.31248756080704
H          110.60677950216375       98.60576495246112      121.32942748796684
H          109.24917079950455       98.70972684110228      120.20969021496171
H          110.46448976222051      100.63547322680924      119.06295017071913
H          111.64300445074447      100.58366732794825      120.37079274642419
H          109.69166653585400      100.87551009896565      122.00012775621644
H          108.67184108781342      101.20515745992159      120.60065176736674
H          110.24713388856935      103.06695931003537      119.95514058181969
H          111.17617838923636      102.74303454404651      121.41422228851245
H          109.11635678196474      103.22494649866229      122.78403328676978
H          108.27830471126387      103.68311687074466      121.30294077832035
H          110.01658690289233      105.44135521472441      120.88888360961755
H          110.81968969063826      104.97904845258086      122.38697554399684
H          108.75023608099185      105.56980465859353      123.66126528992500
H          107.98685689762804      106.08660222233235      122.16012546719446
H          109.78317893294123      107.79706468215298      121.84777112297229
H          110.52936262776633      107.27654752598747      123.35711813039191
H          108.45687767329824      107.89089884245826      124.59389897764858
H          107.71541193958655      108.42312134363429      123.08739415593413
H          109.48674805690219      110.15105475377074      122.82169348611053
H          110.24065138880611      109.61142972402349      124.32081637424538
H          108.17935070268277      110.18258692230987      125.57733286570968
H          107.39980760488325      110.69818149126598      124.08409403693602
H          109.06253153806574      112.50440176321868      123.80751384911120
H          109.91783699200340      111.96373029492337      125.25131006372567
H          107.90886420052561      112.40943792958687      126.62812015174021
H          107.02395610240555      112.92862414867555      125.19659572341514
H          108.52433863930368      114.84132315979625      124.89837348625180
H          109.56956304696821      114.27282686968178      126.20052662753260
H          107.69884436203837      114.48858068028223      127.81046347971268
H          106.65430395661984      115.10714320495813      126.53504914958192
H          109.27274418511898      116.46813719149701      127.28275956837423
H          107.76712586430507      116.80112255992925      128.13278796504349
H          106.70199261936467      117.48746863780201      125.99500442016739
H          108.23311033237769      117.23913201374313      125.15467568172922
H          109.31751653111370      118.96456492162578      126.52051569761080
H          107.87989001382957      119.11983768064438      127.52588712582042
H          106.57925853929940      119.93031633880737      125.58839443262843
H          108.00192778318542      119.77984857167874      124.55330353430632
H          109.19014873887018      121.47890752037981      125.86461945667229
H          107.89615091059012      121.50838265491485      127.05931057932412
H          107.70056419996490      123.46063013735159      125.67742915823951
H          106.32777819371753      122.40752739002426      125.34428757587511
H          107.33269458422497      121.67158351252738      123.24403715109470
H          108.84868199358635      122.48288703716484      123.63796130425476
H          107.70515961179400      124.67392850038922      123.58805020903040
H          106.18365970641965      123.88983856746262      123.17162559617466
[...]
  3011   6 C     3012   6 C                                       1.5270115
  3012   6 C     3013   6 C                                       1.5266730
  3013   6 C     3014   6 C                                       1.5266450
  3014   6 C     3015   6 C                                       1.5263086
  3015   6 C     3016   6 C                                       1.5240321
  3015   6 C     3017   1 H                                       1.0924471
  3015   6 C     3018   1 H                                       1.0925404
  3014   6 C     3019   1 H                                       1.0932597
  3014   6 C     3020   1 H                                       1.0925744
  3013   6 C     3021   1 H                                       1.0930014
  3013   6 C     3022   1 H                                       1.0926775
  3012   6 C     3023   1 H                                       1.0931042
  3012   6 C     3024   1 H                                       1.0932159
  3011   6 C     3025   1 H                                       1.0917732
  3011   6 C     3026   1 H                                       1.0925906
  3010   6 C     3027   1 H                                       1.0928482
  3010   6 C     3028   1 H                                       1.0923845
  3009   6 C     3029   1 H                                       1.0923396
  3009   6 C     3030   1 H                                       1.0931555
  3008   6 C     3031   1 H                                       1.0926813
  3008   6 C     3032   1 H                                       1.0900715
  3007   6 C     3033   1 H                                       1.0926824
  3007   6 C     3034   1 H                                       1.0934332
  3006   6 C     3035   1 H                                       1.0933680
  3006   6 C     3036   1 H                                       1.0917930
  3005   6 C     3037   1 H                                       1.0899408
  3005   6 C     3038   1 H                                       1.0928157
  3004   6 C     3039   1 H                                       1.0929582
  3004   6 C     3040   1 H                                       1.0913580
  3003   6 C     3041   1 H                                       1.0933279
  3003   6 C     3042   1 H                                       1.0919986
  3002   6 C     3043   1 H                                       1.0915693
  3002   6 C     3044   1 H                                       1.0935633
  3001   6 C     3045   1 H                                       1.0920329
  3001   6 C     3046   1 H                                       1.0914727
  3000   6 C     3047   1 H                                       1.0935435
  3000   6 C     3048   1 H                                       1.0926614
  2999   6 C     3049   1 H                                       1.0923661
  2999   6 C     3050   1 H                                       1.0922415
  2998   6 C     3051   1 H                                       1.0919039
  2998   6 C     3052   1 H                                       1.0927400
  2997   6 C     3053   1 H                                       1.0920663
  2997   6 C     3054   1 H                                       1.0928359
  2996   6 C     3055   1 H                                       1.0928895
  2996   6 C     3056   1 H                                       1.0931176
  2995   6 C     3057   1 H                                       1.0920737
  2995   6 C     3058   1 H                                       1.0928677
  2994   6 C     3059   1 H                                       1.0922311
  2994   6 C     3060   1 H                                       1.0932465
  2993   6 C     3061   1 H                                       1.0920807
  2993   6 C     3062   1 H                                       1.0931343
  2992   6 C     3063   1 H                                       1.0917549
  2992   6 C     3064   1 H                                       1.0930912
  2991   6 C     3065   1 H                                       1.0918848
  2991   6 C     3066   1 H                                       1.0931219
  2990   6 C     3067   1 H                                       1.0915387
  2990   6 C     3068   1 H                                       1.0928953
  2989   6 C     3069   1 H                                       1.0916883
  2989   6 C     3070   1 H                                       1.0930286
  2988   6 C     3071   1 H                                       1.0914548
  2988   6 C     3072   1 H                                       1.0927335
  2987   6 C     3073   1 H                                       1.0917187
  2987   6 C     3074   1 H                                       1.0930875
  2986   6 C     3075   1 H                                       1.0915145
  2986   6 C     3076   1 H                                       1.0926463
  2985   6 C     3077   1 H                                       1.0919722
  2985   6 C     3078   1 H                                       1.0930886
  2984   6 C     3079   1 H                                       1.0915395
  2984   6 C     3080   1 H                                       1.0927192
  2983   6 C     3081   1 H                                       1.0927197
  2983   6 C     3082   1 H                                       1.0930464
  2982   6 C     3083   1 H                                       1.0918037
  2982   6 C     3084   1 H                                       1.0927564
  2981   6 C     3085   1 H                                       1.0930434
  2981   6 C     3086   1 H                                       1.0931056
  2980   6 C     3087   1 H                                       1.0919145
  2980   6 C     3088   1 H                                       1.0928528
  2979   6 C     3089   1 H                                       1.0933819
  2979   6 C     3090   1 H                                       1.0922175
  2978   6 C     3091   1 H                                       1.0921902
  2978   6 C     3092   1 H                                       1.0928939
  2977   6 C     3093   1 H                                       1.0925504
  2977   6 C     3094   1 H                                       1.0907282
  2976   6 C     3095   1 H                                       1.0898291
  2976   6 C     3096   1 H                                       1.0928998
  2975   6 C     3097   1 H                                       1.0935909
  2975   6 C     3098   1 H                                       1.0928162
  2974   6 C     3099   1 H                                       1.0933851
  2974   6 C     3100   1 H                                       1.0920400
  2973   6 C     3101   1 H                                       1.0887540
  2973   6 C     3102   1 H                                       1.0909039
  2972   6 C     3103   1 H                                       1.0930913
  2972   6 C     3104   1 H                                       1.0931206
  2971   6 C     3105   1 H                                       1.0927596
  2971   6 C     3106   1 H                                       1.0932353
  2970   6 C     3107   1 H                                       1.0928759
  2970   6 C     3108   1 H                                       1.0910512
  2969   6 C     3109   1 H                                       1.0928254
  2969   6 C     3110   1 H                                       1.0931903
  2968   6 C     3111   1 H                                       1.0931781
  2968   6 C     3112   1 H                                       1.0916160
  2967   6 C     3113   1 H                                       1.0921139
  2967   6 C     3114   1 H                                       1.0930056
  2966   6 C     3115   1 H                                       1.0918821
  2966   6 C     3116   1 H                                       1.0910778
  2965   6 C     3117   1 H                                       1.0923383
  2965   6 C     3118   1 H                                       1.0934925
  2964   6 C     3119   1 H                                       1.0919447
  2964   6 C     3120   1 H                                       1.0911533
  2963   6 C     3121   1 H                                       1.0928815
  2963   6 C     3122   1 H                                       1.0939375
  2962   6 C     3123   1 H                                       1.0918999
  2962   6 C     3124   1 H                                       1.0905549
  2961   6 C     3125   1 H                                       1.0925953
  2961   6 C     3126   1 H                                       1.0921394
  2960   6 C     3127   1 H                                       1.0919409
  2960   6 C     3128   1 H                                       1.0904135
  2959   6 C     3129   1 H                                       1.0921480
  2959   6 C     3130   1 H                                       1.0928063
  2958   6 C     3131   1 H                                       1.0918570
  2958   6 C     3132   1 H                                       1.0914671
  2957   6 C     3133   1 H                                       1.0921587
  2957   6 C     3134   1 H                                       1.0933224
  2956   6 C     3135   1 H                                       1.0922283
  2956   6 C     3136   1 H                                       1.0920180
  2955   6 C     3137   1 H                                       1.0919776
  2955   6 C     3138   1 H                                       1.0929849
  2954   6 C     3139   1 H                                       1.0928898
  2954   6 C     3140   1 H                                       1.0920607
  2953   6 C     3141   1 H                                       1.0926170
  2953   6 C     3142   1 H                                       1.0924282
  2952   6 C     3143   1 H                                       1.0931926
  2952   6 C     3144   1 H                                       1.0914170
  2951   6 C     3145   1 H                                       1.0918771
  2951   6 C     3146   1 H                                       1.0925815
  2950   6 C     3147   1 H                                       1.0933128
  2950   6 C     3148   1 H                                       1.0912185
  2949   6 C     3149   1 H                                       1.0911226
  2949   6 C     3150   1 H                                       1.0929370
  2948   6 C     3151   1 H                                       1.0933722
  2948   6 C     3152   1 H                                       1.0895200
  2947   6 C     3153   1 H                                       1.0936582
  2947   6 C     3154   1 H                                       1.0934183
  2946   6 C     3155   1 H                                       1.0908895
  2946   6 C     3156   1 H                                       1.0927778
  2945   6 C     3157   1 H                                       1.0930157
  2945   6 C     3158   1 H                                       1.0923125
  2944   6 C     3159   1 H                                       1.0892305
  2944   6 C     3160   1 H                                       1.0931925
  2943   6 C     3161   1 H                                       1.0933764
  2943   6 C     3162   1 H                                       1.0929059
  2942   6 C     3163   1 H                                       1.0924407
  2942   6 C     3164   1 H                                       1.0933107
  2941   6 C     3165   1 H                                       1.0921993
  2941   6 C     3166   1 H                                       1.0914506
  2940   6 C     3167   1 H                                       1.0926611
  2940   6 C     3168   1 H                                       1.0931070
  2939   6 C     3169   1 H                                       1.0927350
  2939   6 C     3170   1 H                                       1.0923689
  2938   6 C     3171   1 H                                       1.0929124
  2938   6 C     3172   1 H                                       1.0933127
  2937   6 C     3173   1 H                                       1.0929240
  2937   6 C     3174   1 H                                       1.0926960
  2936   6 C     3175   1 H                                       1.0931138
  2936   6 C     3176   1 H                                       1.0930154
  2935   6 C     3177   1 H                                       1.0923508
  2935   6 C     3178   1 H                                       1.0930005
  2934   6 C     3179   1 H                                       1.0930054
  2934   6 C     3180   1 H                                       1.0916472
  2933   6 C     3181   1 H                                       1.0924149
  2933   6 C     3182   1 H                                       1.0923050
  2932   6 C     3183   1 H                                       1.0934081
  2932   6 C     3184   1 H                                       1.0923461
  2931   6 C     3185   1 H                                       1.0917901
  2931   6 C     3186   1 H                                       1.0911808
  2930   6 C     3187   1 H                                       1.0927713
  2930   6 C     3188   1 H                                       1.0927985
  2929   6 C     3189   1 H                                       1.0927287
  2929   6 C     3190   1 H                                       1.0927221
  2928   6 C     3191   1 H                                       1.0903789
  2928   6 C     3192   1 H                                       1.0926988
  2927   6 C     3193   1 H                                       1.0924143
  2927   6 C     3194   1 H                                       1.0926707
  2926   6 C     3195   1 H                                       1.0917620
  2926   6 C     3196   1 H                                       1.0919504
  2925   6 C     3197   1 H                                       1.0933747
  2925   6 C     3198   1 H                                       1.0926390
  2924   6 C     3199   1 H                                       1.0917235
  2924   6 C     3200   1 H                                       1.0932867
  2923   6 C     3201   1 H                                       1.0913149
  2923   6 C     3202   1 H                                       1.0917939
  2922   6 C     3203   1 H                                       1.0936671
  2922   6 C     3204   1 H                                       1.0927288
  2921   6 C     3205   1 H                                       1.0910228
  2921   6 C     3206   1 H                                       1.0933812
  2920   6 C     3207   1 H                                       1.0932820
  2920   6 C     3208   1 H                                       1.0900636
  2919   6 C     3209   1 H                                       1.0936744
  2919   6 C     3210   1 H                                       1.0921806
  2918   6 C     3211   1 H                                       1.0918743
  2918   6 C     3212   1 H                                       1.0929551
  2917   6 C     3213   1 H                                       1.0916191
  2917   6 C     3214   1 H                                       1.0930890
  2916   6 C     3215   1 H                                       1.0916719
  2916   6 C     3216   1 H                                       1.0912653
  2915   6 C     3217   1 H                                       1.0932669
  2915   6 C     3218   1 H                                       1.0924788
  2914   6 C     3219   1 H                                       1.0923149
  2914   6 C     3220   1 H                                       1.0929955
  2913   6 C     3221   1 H                                       1.0934986
  2913   6 C     3222   1 H                                       1.0916119
  2912   6 C     3223   1 H                                       1.0926863
  2912   6 C     3224   1 H                                       1.0929915
  2911   6 C     3225   1 H                                       1.0922540
  2911   6 C     3226   1 H                                       1.0916743
  2910   6 C     3227   1 H                                       1.0925163
  2910   6 C     3228   1 H                                       1.0921842
  2909   6 C     3229   1 H                                       1.0929662
  2909   6 C     3230   1 H                                       1.0909824
  2908   6 C     3231   1 H                                       1.0915562
  2908   6 C     3232   1 H                                       1.0928803
  2907   6 C     3233   1 H                                       1.0929425
  2907   6 C     3234   1 H                                       1.0928702
  2906   6 C     3235   1 H                                       1.0918800
  2906   6 C     3236   1 H                                       1.0914614
  2905   6 C     3237   1 H                                       1.0929314
  2905   6 C     3238   1 H                                       1.0925571
  2904   6 C     3239   1 H                                       1.0928618
  2904   6 C     3240   1 H                                       1.0922982
  2903   6 C     3241   1 H                                       1.0913608
  2903   6 C     3242   1 H                                       1.0929209
  2902   6 C     3243   1 H                                       1.0926645
  2902   6 C     3244   1 H                                       1.0924063
  2901   6 C     3245   1 H                                       1.0927144
  2901   6 C     3246   1 H                                       1.0929965
  2900   6 C     3247   1 H                                       1.0927821
  2900   6 C     3248   1 H                                       1.0924387
  2899   6 C     3249   1 H                                       1.0927413
  2899   6 C     3250   1 H                                       1.0929837
  2898   6 C     3251   1 H                                       1.0928000
  2898   6 C     3252   1 H                                       1.0921314
  2897   6 C     3253   1 H                                       1.0875326
  2897   6 C     3254   1 H                                       1.0880466
  2897   6 C     3255   1 H                                       1.0878788
  3016   6 C     3256   1 H                                       1.0873949
  3016   6 C     3257   1 H                                       1.0882457
  3016   6 C     3258   1 H                                       1.0877581

 * 2 distinct bonds (by element types)

   Z      Z             #   av. dist./Å        max./Å        min./Å
   1 H    6 C        2178     1.0922714     1.0944112     1.0860667
   6 C    6 C        1071     1.5275153     1.5345465     1.5217171


optimized geometry written to: xtbopt.xyz


           -------------------------------------------------
          | TOTAL ENERGY            -3427.530037638365 Eh   |
          | GRADIENT NORM               0.000985411473 Eh/α |
          | HOMO-LUMO GAP              11.456013853110 eV   |
           -------------------------------------------------

------------------------------------------------------------------------
 * finished run on 2024/10/04 at 02:45:37.185     
------------------------------------------------------------------------
 total:
 * wall-time:     0 d,  5 h, 23 min, 42.495 sec
 *  cpu-time:     1 d,  5 h, 44 min, 45.472 sec
 * ratio c/w:     5.513 speedup
 SCF:
 * wall-time:     0 d,  0 h, 14 min, 21.977 sec
 *  cpu-time:     0 d,  1 h, 34 min, 18.284 sec
 * ratio c/w:     6.564 speedup
 ANC optimizer:
 * wall-time:     0 d,  5 h,  8 min, 38.604 sec
 *  cpu-time:     1 d,  4 h,  9 min, 29.280 sec
 * ratio c/w:     5.474 speedup

