3258
 energy: -3427.530037638365 gnorm: 0.000985411473 xtb: 6.6.1 (8d0f1dd)
C          103.08361966315574       94.34268123659605      116.39334116643795
C          103.70650847151983       95.71274609002987      116.62955107782888
C          102.73805169882121       96.67663019681591      117.31089154142973
C          103.35451984558127       98.05902252952758      117.51076556318812
C          102.39108733408544       99.03582872543183      118.18096081717290
C          103.01097896046464      100.42005953073468      118.35850426705512
C          102.04545178029522      101.40935091624888      119.00703368843556
C          102.66515108990434      102.79497534228884      119.17605544207072
C          101.68323715777940      103.79418227618848      119.78358795939701
C          102.28954229412857      105.18749123313883      119.93854564954555
C          101.27680634043534      106.19362037193888      120.48119834450830
C          101.86121904671295      107.59791894201332      120.61861076828744
C          100.81225097865330      108.60963668421849      121.07567570054033
C          101.38087962140246      110.02142772215004      121.20622574683600
C          100.29052706509125      111.03896932717599      121.53620155907504
C          100.81268145668921      112.46162039469114      121.74278384581281
C          101.52863485323844      113.02041236420678      120.51490924635891
C          101.76624220763202      114.52703291905247      120.60568213249175
C          102.71612219268452      115.00619035953147      119.51048806607128
C          102.91129005333283      116.51966043095324      119.51217713950868
C          103.86707583229531      116.97043803679450      118.40880888814330
C          104.09196381528672      118.47985759800549      118.42453132991949
C          104.97072643079372      118.95513214953991      117.26991479656218
C          105.15002376792694      120.47381208650552      117.23731410976094
C          106.05950652145472      121.01820140799607      118.33601979245003
C          106.18141486782642      122.53734673143776      118.24285521171838
C          107.18844416061758      123.13487452161107      119.22455275376329
C          106.76401277702492      123.03055000105689      120.68809086815541
C          107.64288423361950      123.89979902653296      121.58615217780350
C          107.26888515657677      123.81736328946906      123.06774370898209
C          107.76372524756900      122.53987384468228      123.74299724203640
C          107.40963245827999      122.50736615726906      125.22811374511301
C          108.10912035424562      121.38364759009374      125.99448709914837
C          107.67014145109731      119.98242804453692      125.57365701120111
C          108.22625483109266      118.91220417430446      126.51013440658254
C          107.78800546084781      117.50309801457647      126.11519300236947
C          108.18553829040475      116.47896032608068      127.17574508315060
C          107.69018981625379      115.06211754008859      126.87989479441462
C          108.53441345044988      114.31141192187418      125.85192299067012
C          108.01656433203263      112.88858254742016      125.65140319647374
C          108.93280956047927      112.03071888723987      124.78232929446175
C          108.36254447132134      110.62669786891252      124.59554588108364
C          109.28533840287039      109.70764885858033      123.79914881908040
C          108.66825745414553      108.32332053363228      123.61268227797338
C          109.57538286581720      107.37431407284838      122.83393506373770
C          108.94715953595731      105.99148530278296      122.67253288529302
C          109.84813419033570      105.03889142521220      121.89132100638007
C          109.25953433968651      103.63374050645920      121.78083889242652
C          110.17330945217559      102.70592096057499      120.98410451317756
C          109.69688140776668      101.25560437902182      120.97564227857129
C          110.60303366335451      100.37551714540842      120.11508309379906
C          110.32295868381304       98.88763578111700      120.31257092754124
C          111.06018340030153       97.99015328974744      119.31712762141245
C          112.57480256142563       98.19524008820910      119.30042439146497
C          113.28196387642693       97.09738182406005      118.50711057230200
C          114.75009657179653       97.42121915914389      118.24106458841226
C          115.44615790129473       96.29070308290709      117.48652852049308
C          116.90505604009759       96.59038411554410      117.13878013857610
C          117.07011334770037       97.64812251820383      116.04854559038365
C          118.52823162946659       97.78965830514846      115.61673824466459
C          118.71313317749660       98.82157347475274      114.50678622617893
C          120.16528181446232       98.90451378938153      114.04203802705689
C          120.35506203317998       99.91932211620734      112.91756989176477
C          121.80515436977656       99.99534447574995      112.44448007025035
C          121.98185166251641      100.99898658186763      111.30770205956757
C          123.44643009239370      101.17685864179013      110.91372273118576
C          123.62848201801184      102.01905487239135      109.64816492290966
C          123.22342631561796      101.31069262621797      108.35310116066903
C          124.15790060050605      100.16345953210350      107.97528401958084
C          123.69094726304679       99.44428696184102      106.71185159407206
C          124.64284351072585       98.33739690483203      106.25196433538029
C          124.92415540786908       97.24881530512641      107.29116500111232
C          123.66733358118046       96.52722172329644      107.77068249751439
C          123.99018613461000       95.42519148654721      108.77920342240439
C          122.74885623910615       94.65636291466996      109.23679068362364
C          121.83644121085037       95.47118061452365      110.15204258904764
C          120.49887897384437       94.77670984012099      110.39992334852820
C          119.51494737452012       95.68465904310118      111.13444513735362
C          118.11374031771226       95.08111368015622      111.19392234397048
C          117.09430892728226       95.97483462949872      111.90151564846825
C          116.88648162358218       97.31770414838911      111.20363329556460
C          115.72837944075256       98.11299631327567      111.80028552948610
C          115.66910658333147       99.53742623254884      111.25290345843911
C          114.53763498650464      100.34339060355282      111.88351393592065
C          114.51858627591959      101.79630836824711      111.41310579578595
C          113.55093286081204      102.63917698490674      112.23965286359045
C          113.61878266780035      104.12945895992716      111.91337207273583
C          112.82760818663567      104.95166751490218      112.92893350780565
C          112.99819294610612      106.45628809066753      112.73810463240184
C          112.37756187595528      107.24876997711098      113.88648213008072
C          112.59115831201450      108.75572375555622      113.76192569978797
C          112.11758084055577      109.49695460331976      115.01008313787024
C          112.35397484915455      111.00122359818596      114.91879900431172
C          112.01014330568776      111.72205552517218      116.22140648574329
C          112.50539144318506      113.16479841573445      116.21186192629554
C          112.26326305233502      113.89614054606801      117.53105858961437
C          113.08009662521017      115.18387828473587      117.60065552514881
C          112.90888223126117      115.93693102222186      118.91613728198476
C          113.89022155153475      117.10207225046521      119.03324359239225
C          113.67375928629991      117.89563687314036      120.31972877349109
C          114.79505888829689      118.88647175986661      120.63350386748159
C          114.94926775343194      119.99190172477437      119.59238276615413
C          115.97474017891463      121.04039691517086      120.02007467451601
C          116.18570018601872      122.10654816082722      118.94732119107236
C          117.16663426779637      123.19072116439075      119.38767574942372
C          117.33204292232438      124.31287573049161      118.36068277705472
C          118.02034942587072      123.85465911933775      117.07677728868985
C          118.28716877823288      125.00753613010191      116.11099836299070
C          118.92464425994692      124.50685402923305      114.81689822039228
C          119.19110576682102      125.60387420727659      113.78488426286698
C          117.90782871558696      126.19651255949137      113.20625698945769
C          118.16339651295074      127.12453631821592      112.02001485847445
C          116.86243711538459      127.74484225884810      111.51534840802310
C          117.05246476270122      128.65741391844534      110.30539703030907
C          115.72924166166804      129.31396478054643      109.91759008861952
C          115.82523925361927      130.29424441437476      108.74842249204188
C          116.12833926992786      129.62101005369644      107.41052813163554
C          115.82385089763025      130.53795286803270      106.22733927575281
C          116.01350092236299      129.83358618153005      104.88576649955856
C          115.68027028010243      130.74365897644151      103.71033268329569
H          117.04708606507181      129.49118755960890      104.79804051269855
H          115.36797492410034      128.95259075364146      104.85053325998400
H          114.79001624491218      130.88660252044588      106.30214966867463
H          116.47032523688574      131.41741364293691      106.27133344555966
H          117.17514919880097      129.31405861188361      107.37176469797139
H          115.51781503357469      128.71965547664678      107.32273925802546
H          114.86594971590452      130.81215874923231      108.66266590361927
H          116.58621891002421      131.04788755252335      108.96219242753257
H          115.00426898793162      128.53477472327575      109.66983510111208
H          115.34574878077792      129.85148032511080      110.78927001218905
H          117.78649425267108      129.43086266355726      110.54285655802248
H          117.44090908760113      128.07496509892655      109.46777251348333
H          116.16348915858309      126.94754388797870      111.25000697554441
H          116.40872139616746      128.32242939338272      112.32523430890274
H          118.85232119586966      127.91787654869803      112.31906011568756
H          118.63888625370167      126.56321346015882      111.21145528653118
H          117.25608221273396      125.38196941881932      112.88097089150453
H          117.38248297431366      126.75595418815546      113.98223220028477
H          119.78982008265409      126.39737569645150      114.23793739270306
H          119.78003253077000      125.17729704220466      112.96766552534352
H          119.86849234425799      124.01235830194646      115.06178638850608
H          118.27080631047207      123.75565533347641      114.37017636439103
H          117.34285545302849      125.50604880512329      115.88657873794203
H          118.94561724945211      125.74027309639257      116.58393264479545
H          118.96642593205016      123.37071487987438      117.33122569478464
H          117.39536501328165      123.11578849246214      116.57284027769354
H          116.35089197103528      124.72905654523343      118.11833038419843
H          117.92476893449670      125.11327575602242      118.81095273168511
H          116.81125815144425      123.62335207603105      120.32644944214110
H          118.14192355065499      122.73881672206451      119.58249746331731
H          116.55609334797467      121.62326289458510      118.04163873304076
H          115.22619641428304      122.57313518916108      118.71246200280018
H          115.64428773128348      121.51512833908308      120.94704097736607
H          116.92637029668242      120.54649033510613      120.22888481233629
H          115.26428171054017      119.55728400295270      118.64165624803238
H          113.98182998805842      120.47465603875715      119.43523499990781
H          114.59146820878829      119.34747492847399      121.60336293695066
H          115.73826974573392      118.34297679915792      120.72530898976794
H          112.72658473292628      118.43440693882697      120.24878648972738
H          113.59469018692859      117.19270154398610      121.15380985280751
H          114.90967763147516      116.71136189978105      119.01835534781802
H          113.77116877433721      117.75827303843464      118.16889830788658
H          111.88545142632591      116.31341297936967      118.99079345967219
H          113.06800058945799      115.24802491863298      119.74916325948975
H          114.13577795729707      114.93258237407113      117.47531436882991
H          112.80053303298061      115.83607926751415      116.76947560301774
H          111.20048361944855      114.12006245371262      117.64473761200581
H          112.55360672290291      113.24764903767310      118.36109744170275
H          113.58040966108085      113.15253457425317      116.01889146054339
H          112.02987718813691      113.71173451658511      115.39386087050553
H          110.93067432911397      111.69776447938749      116.38490843513512
H          112.47928011345044      111.19493999533366      117.05612228308675
H          113.40634319635869      111.17787888399346      114.68161886688115
H          111.76313900049018      111.41943185598545      114.10091550106578
H          111.05534961824721      109.30479573800184      115.16731071512559
H          112.65477369597440      109.10590756804976      115.87880298962857
H          113.65420827518123      108.96087400078231      113.60869060986003
H          112.05428242962472      109.13346522139082      112.88952627156519
H          111.30792849151139      107.04046392899184      113.93324827909576
H          112.82071023752874      106.90849238848257      114.82648571062863
H          114.06549129993277      106.67963086946014      112.68604778198278
H          112.54749677796823      106.76268996388427      111.79093964791286
H          111.76952696409035      104.69231863315329      112.86476023635963
H          113.17473614498226      104.68702910647285      113.93143214946222
H          114.66337016104863      104.45041860924222      111.93359383561192
H          113.23892482054077      104.31066604239713      110.90553171328145
H          112.52968620874636      102.28026241762157      112.09059572009171
H          113.79757181589578      102.50603216024666      113.29660042442991
H          115.52363619430180      102.20998463905806      111.51396420649755
H          114.24584996023286      101.84197528648386      110.35741070668890
H          113.57830012917164       99.87254338422679      111.65408852653235
H          114.66250864855373      100.32370999868449      112.96938104678249
H          116.61737331290857      100.03951552701567      111.46397765843440
H          115.54215891475535       99.50965543125332      110.16904842738238
H          114.78822133479731       97.59928258255400      111.58780333319845
H          115.83754373286408       98.15561897224062      112.88672613178275
H          117.79771662766561       97.91409333931934      111.28183457825526
H          116.68936648741924       97.14491463069159      110.14354728422333
H          116.13927542232588       95.44568980518596      111.94192311017608
H          117.41923329053770       96.14918363571046      112.92976555932994
H          117.76738954733314       94.88295704216546      110.17634484648001
H          118.16066481360160       94.12019856283976      111.71234225667519
H          119.87360316649902       95.87563502395761      112.14846655981921
H          119.47477314795131       96.64099745317507      110.61088071032229
H          120.06441547953808       94.49521533310372      109.43783631702253
H          120.65680392332240       93.85825197304719      110.96968173713157
H          122.34136389318250       95.65241830690206      111.10379799655419
H          121.63994246249412       96.44362442708669      109.69682857781983
H          122.18574509841086       94.34402386289463      108.35343535775320
H          123.05950564873004       93.75045856511436      109.76265171511761
H          124.69002643164663       94.72276359235755      108.31967788116587
H          124.48719099361945       95.86169443693909      109.64911682819765
H          122.99506355527267       97.25081999565877      108.23059488777862
H          123.15180314077367       96.09057925676389      106.91163700763028
H          125.60382260298293       96.51827419421454      106.84434730364575
H          125.44064123270392       97.68444523055884      108.14856971149237
H          124.21924233470600       97.86928743111643      105.35940547087117
H          125.59552800720284       98.78968070592154      105.96445469313691
H          122.69798265841959       99.02406320068945      106.88222798428541
H          123.59879373566245      100.17305122736921      105.90217331943916
H          125.16635313887363      100.55434567891254      107.81942835785175
H          124.20038444599129       99.44919301682690      108.79689307916458
H          122.20507695998535      100.92902837397790      108.44256404059642
H          123.22710599559306      102.04428832520624      107.54380028337241
H          123.03759353333874      102.93311346818204      109.75067105440596
H          124.67710591900331      102.31486975920257      109.56685861636896
H          123.97527645174969      101.66200065107549      111.73818422989011
H          123.90297496062514      100.19612245081396      110.77240990238455
H          121.40975179271599      100.65105775087846      110.44678882708470
H          121.57086815014596      101.96574397775969      111.60874198434989
H          122.44807709075674      100.27777828394966      113.28170445394515
H          122.12654774298744       99.00698897150625      112.10640575624004
H          119.71663512944396       99.64686536086180      112.07292386849005
H          120.03701934353248      100.90553794382681      113.26454526847822
H          120.80200839339622       99.17707068222619      114.88708211140477
H          120.48690156929369       97.92006061416116      113.69334889873824
H          118.08190291368636       98.55487032219622      113.65772021632728
H          118.38621857261052       99.80151842228203      114.86291719351831
H          119.13382829626158       98.07476305995681      116.48010670339808
H          118.89346826242323       96.82007498322129      115.26749778822254
H          116.46544141457537       97.36590816878146      115.18218813968217
H          116.70808520343027       98.61310234340137      116.40734419482756
H          117.43440428478186       96.91171725268003      118.03895632384946
H          117.37548670305264       95.66521634610538      116.79507770446462
H          115.41096621807044       95.38810800539950      118.10196396477124
H          114.89585807653113       96.07968294644338      116.56695842503896
H          114.80711772035963       98.34257343924213      117.65941065364541
H          115.26417652457475       97.59594816393323      119.18899916338579
H          113.20911382543299       96.15226162186154      119.05089732953527
H          112.77482871718463       96.96417793143817      117.54940955766197
H          112.80552310955463       99.16265830676687      118.85101809336967
H          112.95477623288616       98.20404989261210      120.32446778757294
H          110.84449844102907       96.94801844770755      119.56699683608505
H          110.66918065705129       98.17113725651326      118.31248756080704
H          110.60677950216375       98.60576495246112      121.32942748796684
H          109.24917079950455       98.70972684110228      120.20969021496171
H          110.46448976222051      100.63547322680924      119.06295017071913
H          111.64300445074447      100.58366732794825      120.37079274642419
H          109.69166653585400      100.87551009896565      122.00012775621644
H          108.67184108781342      101.20515745992159      120.60065176736674
H          110.24713388856935      103.06695931003537      119.95514058181969
H          111.17617838923636      102.74303454404651      121.41422228851245
H          109.11635678196474      103.22494649866229      122.78403328676978
H          108.27830471126387      103.68311687074466      121.30294077832035
H          110.01658690289233      105.44135521472441      120.88888360961755
H          110.81968969063826      104.97904845258086      122.38697554399684
H          108.75023608099185      105.56980465859353      123.66126528992500
H          107.98685689762804      106.08660222233235      122.16012546719446
H          109.78317893294123      107.79706468215298      121.84777112297229
H          110.52936262776633      107.27654752598747      123.35711813039191
H          108.45687767329824      107.89089884245826      124.59389897764858
H          107.71541193958655      108.42312134363429      123.08739415593413
H          109.48674805690219      110.15105475377074      122.82169348611053
H          110.24065138880611      109.61142972402349      124.32081637424538
H          108.17935070268277      110.18258692230987      125.57733286570968
H          107.39980760488325      110.69818149126598      124.08409403693602
H          109.06253153806574      112.50440176321868      123.80751384911120
H          109.91783699200340      111.96373029492337      125.25131006372567
H          107.90886420052561      112.40943792958687      126.62812015174021
H          107.02395610240555      112.92862414867555      125.19659572341514
H          108.52433863930368      114.84132315979625      124.89837348625180
H          109.56956304696821      114.27282686968178      126.20052662753260
H          107.69884436203837      114.48858068028223      127.81046347971268
H          106.65430395661984      115.10714320495813      126.53504914958192
H          109.27274418511898      116.46813719149701      127.28275956837423
H          107.76712586430507      116.80112255992925      128.13278796504349
H          106.70199261936467      117.48746863780201      125.99500442016739
H          108.23311033237769      117.23913201374313      125.15467568172922
H          109.31751653111370      118.96456492162578      126.52051569761080
H          107.87989001382957      119.11983768064438      127.52588712582042
H          106.57925853929940      119.93031633880737      125.58839443262843
H          108.00192778318542      119.77984857167874      124.55330353430632
H          109.19014873887018      121.47890752037981      125.86461945667229
H          107.89615091059012      121.50838265491485      127.05931057932412
H          107.70056419996490      123.46063013735159      125.67742915823951
H          106.32777819371753      122.40752739002426      125.34428757587511
H          107.33269458422497      121.67158351252738      123.24403715109470
H          108.84868199358635      122.48288703716484      123.63796130425476
H          107.70515961179400      124.67392850038922      123.58805020903040
H          106.18365970641965      123.88983856746262      123.17162559617466
H          108.68979469394260      123.61075981558497      121.46272387460132
H          107.55195501924845      124.93793416116721      121.25590872069928
H          105.72623111730442      123.35860123933679      120.78321815968047
H          106.81631759106412      121.99162587608710      121.01455934535197
H          108.15582482492339      122.64291506759913      119.09409165834620
H          107.31696238961604      124.19275814962555      118.97872695572042
H          106.48808746854884      122.80264427727032      117.22784946892116
H          105.20103657449165      122.98808219522975      118.41662367418022
H          105.65865976783017      120.74866890181347      119.31284114623377
H          107.05047105900987      120.56781300244265      118.24393913635993
H          105.56822037419886      120.75664304707770      116.26802667808728
H          104.17068880349446      120.95205076741935      117.32436527080739
H          105.94898599813408      118.47508335706868      117.33136204806914
H          104.50984523196597      118.63924079061407      116.33032710786438
H          103.12339479677681      118.98141530388612      118.36123971203861
H          104.54542888283122      118.76192220800542      119.37619663598846
H          104.82543271219869      116.45746378761639      118.52332931783850
H          103.45818158605046      116.67706666108162      117.43836447914032
H          101.94393251270333      117.00896212477517      119.37354396979036
H          103.30409567439563      116.83199755513236      120.48193205120093
H          103.68618444853584      114.51890980448481      119.63892357398882
H          102.31867334294989      114.69736799598600      118.54005905253784
H          100.81229980130341      115.05201732807996      120.51908472222537
H          102.18769212545553      114.77192970092808      121.58372226640304
H          102.49197746553544      112.51903941621050      120.39946337885961
H          100.93359637538761      112.80691188005198      119.62431234559794
H           99.96436882560707      113.10782973397326      121.98192538729883
H          101.49335643309261      112.48089290315498      122.59748773583733
H           99.55809550337931      111.04534661182173      120.72592708772061
H           99.77199240256536      110.72044784895702      122.44388041011081
H          102.14763923322417      110.03779171552432      121.98425963532598
H          101.85866437591427      110.29539768006330      120.26374814389621
H           99.99185932900596      108.62189055781474      120.35359762772772
H          100.39885838976404      108.29419652823836      122.03641107212232
H          102.69017962617338      107.58190755627585      121.32976598762622
H          102.26525875315461      107.91424121794047      119.65339404881085
H          100.41550459457748      106.23045798013671      119.80993354514753
H          100.91839542032065      105.85511920883413      121.45612073542895
H          103.15134337340285      105.13862899649328      120.60763891779007
H          102.65219163573843      105.53154752061188      118.96649769676156
H          100.79816958532679      103.85806575786417      119.14643645675550
H          101.35808506094047      103.43166120927793      120.76158110407331
H          103.55071432515693      102.72205441060757      119.81098610360843
H          102.99467899019481      103.16239373042259      118.20079464462090
H          101.14629303166890      101.49024886670401      118.39190377911426
H          101.74127081297370      101.02851118925474      119.98481338343626
H          103.91166397983488      100.33728892580845      118.97062991139440
H          103.31707308853433      100.80392943009993      117.38181068421630
H          101.48461329553903       99.12113670528747      117.57702987779116
H          102.09923659812202       98.64257227287716      119.15754936867830
H          104.25852228612986       97.96757867460430      118.11702426610519
H          103.65516965288121       98.46113647837301      116.53947938550540
H          101.83387103740198       96.76766131154881      116.70407117010268
H          102.44371684249624       96.26752650809254      118.28017875343456
H          104.60310857457991       95.60458723568119      117.24390163583546
H          104.01681204712509       96.13715848160498      115.67124972236680
H          103.79300213550131       93.67841391517754      115.90407978208313
H          102.78669119981954       93.89057404383644      117.33704913029563
H          102.20124482840519       94.42688707845167      115.76257034139593
H          114.64955112316564      131.08683050399526      103.77393501008792
H          116.32927119567556      131.61655770949511      103.70590656952183
H          115.80828666453661      130.21501991046938      102.76836173658427
C           97.48809015864971      109.56637392316279      102.80855639572613
C           97.14645965904255      109.02343910644942      104.19089131422814
C           96.73759127046149      110.11355112600150      105.18035286644198
C           95.41708727177347      110.78968081050542      104.81840833661613
C           94.95112279001144      111.79703368890502      105.87101280412385
C           95.95068503537760      112.93460050645663      106.07078393239425
C           95.37393170509017      114.09313895955782      106.88191045232183
C           96.44171853874444      115.10104553041927      107.31008074563435
C           97.08275590385757      115.85948057352576      106.14891190555170
C           98.27824487101464      116.69037064275645      106.61027091678962
C           98.95775218384775      117.40864237934454      105.44679914013928
C          100.20376993615950      118.19368855407025      105.85692875673301
C          101.34670336740881      117.31275138785840      106.35513550194158
C          102.61014283879025      118.11882280695760      106.64584459876788
C          103.69594079147478      117.26321183437723      107.29336403437733
C          104.99552583504730      118.03386930179887      107.51216566036672
C          106.03895260896186      117.17006850395946      108.21599009587128
C          107.28500737808463      117.93378175310949      108.66062370726603
C          108.04909540088704      118.58522259934456      107.51037225246915
C          109.42287407802196      119.07470950979760      107.96419658153491
C          110.13243388589326      119.94904220365051      106.93027535266056