3536
 energy: -3716.258491386732 gnorm: 0.000724570917 xtb: 6.6.1 (8d0f1dd)
C           56.34896380506886       76.45079529731061       57.75538052597636
C           57.76766274967682       75.89730160030240       57.64144478099070
C           58.34522128875754       76.23615502898795       56.26678010676142
C           57.80666832008735       74.37836843162449       57.84022250921250
C           57.37665847462198       73.85620886442251       59.21757435827962
C           58.35378539779851       74.29450178561464       60.30520353624352
C           57.26986208211060       72.32657726984117       59.13913808970675
C           56.77300492980365       71.59940864058052       60.39775780351115
C           56.81667129770307       70.09465945795260       60.14009286135981
C           55.35847427321303       72.05270095609072       60.77269397748535
C           54.75793893852197       71.46910602440629       62.06119698540359
C           53.33378606803721       72.00793665690274       62.19461276496659
C           55.64095492437152       71.80876362501903       63.26940913475297
C           55.07327908502690       71.42997307268966       64.64981210053088
C           54.45601380879653       72.64443792101086       65.34390886205020
C           56.17085567238951       70.82738518295110       65.54254242675337
C           56.36491405924105       69.31828980904758       65.32435674360408
C           55.31948974443547       68.55541516415555       66.13555190107806
C           57.79113260492172       68.91209606990826       65.71403201308162
C           58.15398150027863       67.43311009567100       65.50721291653841
C           59.46243902834293       67.14800787667468       66.24337898458091
C           58.26665005870524       67.07939966534877       64.01464755310170
C           57.76069170917097       65.68726155315413       63.59794095390319
C           56.27152010293506       65.52420937358833       63.89592393992884
C           58.57889437309851       64.54995748561885       64.21754002241885
C           58.40368602171075       63.19123803809836       63.51589580637388
C           58.60014681931815       62.05929550749101       64.52209166551128
C           59.39009118011541       63.05316467818152       62.34951829761089
C           59.03418892585130       61.95421703795151       61.33765715021801
C           60.28306295554496       61.55446645106506       60.55292718419803
C           57.92642016826579       62.41659640715699       60.38380356924644
C           57.19390019601214       61.26321742978651       59.68478962576611
C           56.46403054575381       61.79728570241396       58.45246036302172
C           56.21705930323899       60.55380429886986       60.64201568043065
C           56.32146126501627       59.02481469548513       60.65868403139144
C           56.09091408491994       58.43106506023664       59.26953427168426
C           55.29232238662603       58.39283100382112       61.60743329818278
C           55.32404913807523       58.80459806199653       63.08334750760909
C           56.59700626061830       58.32139143726152       63.77251597692628
C           54.08881442109575       58.22630710909667       63.79250198472315
C           52.81297645686944       59.04692465166551       63.55718013162369
C           52.69369560951553       60.14426245786078       64.61439734805350
C           51.54962652573358       58.17717502535880       63.57838838251818
C           51.33577158487807       57.26940738383253       62.35778347575350
C           51.10122288429007       58.09224556482145       61.09414925882658
C           50.13428017379789       56.35210735077133       62.62901831383024
C           49.92397361867285       55.22864391535847       61.60703445468184
C           48.49817553693308       54.69034586488536       61.71267863766742
C           50.93452187752859       54.08861055181583       61.79924681790215
C           51.38184510667578       53.45014139597885       60.47868444832005
C           51.94802212788287       52.05479535805355       60.72929732062921
C           52.42115898765244       54.34848277975585       59.79594231100101
C           52.61567996891498       54.09742414540818       58.29614020582617
C           53.92262560177342       54.74284309233492       57.84130398361968
C           51.43615379252098       54.63790426853963       57.47596448165709
C           51.25341686922638       53.95239941012094       56.10806782081822
C           51.62778635808261       54.89669467487362       54.96427974885655
C           49.81375092185359       53.46092241772464       55.89304481596619
C           49.32696116672082       52.37068163614749       56.85358030772471
C           50.09840394080433       51.06685045761533       56.64679873277093
C           47.82899454313569       52.08352920491872       56.66665611591375
C           46.85570151911764       53.25340203159580       56.87635141048229
C           47.16167247492475       54.04822983501872       58.14430064982024
C           45.41083693358522       52.74013360426117       56.98529216517944
C           44.84585767259390       51.99826624546877       55.76693724666562
C           44.62919291286082       52.96269574505286       54.60614583716995
C           43.53043626123371       51.31885146278881       56.17539791976605
C           42.87510753983535       50.38305941043122       55.14603754199456
C           41.36559654715190       50.34784677051578       55.40416134890950
C           43.41523200212491       48.94395109900571       55.19541828739905
C           44.73382134607220       48.67380293056488       54.46118688029809
C           44.57221237114084       48.86699313573568       52.95424736965474
C           45.22312834959624       47.24226450358987       54.72673796452500
C           45.70799191104029       46.94307096259524       56.15045699218477
C           46.87707684627134       47.84804388769683       56.54157974318429
C           46.16177518764801       45.48058977988347       56.27710942937553
C           45.10887054198145       44.39970264320646       55.99606654441437
C           43.92657281798196       44.51914939832447       56.95462904484187
C           45.77592449308387       43.02173332270959       56.11116857802545
C           44.98358962961151       41.85075174055281       55.51588796648837
C           45.69853514144944       40.54276746900126       55.85832489203624
C           44.80842651176926       41.98918952924759       53.99105895429616
C           43.36291756788110       42.25341133293068       53.55143923023025
C           42.53419029392443       40.97388316748064       53.65911751485678
C           43.31266548682589       42.78495473486809       52.11104419199894
C           43.64700497305548       44.27656585618761       51.98365649857664
C           42.47625147121403       45.14414167916047       52.44276976717449
C           44.09069025677756       44.64056787388427       50.55981540167306
C           43.05760634907400       44.39280252418477       49.46334160973338
C           43.60389762658910       44.79061398332471       48.09628715401583
H           55.68851232892435       75.94316108025231       57.05533560339663
H           55.95441976667947       76.31986341046913       58.75965393114500
H           56.33847871286216       77.51467901869208       57.52720656294495
H           42.86215441958079       44.61561104499663       47.32015751864405
H           43.87004151690099       45.84555111233303       48.08474699615779
H           44.49332493742771       44.21161274653133       47.85608167955100
H           44.36982488731806       45.69693774400644       50.54272668807042
H           44.98885853074691       44.06465649064624       50.32235112131120
H           44.01079923235385       42.20181597442711       51.50483027314623
H           42.31157258807507       42.61731587769693       51.70827437212884
H           42.92242218129259       43.00154444763793       54.21758885899442
H           41.48732395663893       41.17233922964201       53.43776752716935
H           42.89812529987243       40.22865909838621       52.95401469016575
H           42.59535337300776       40.55396095843466       54.66040814146542
H           45.44850741255602       42.79444311142484       53.63129055312813
H           45.14780896753436       41.07459170286617       53.49965682997870
H           46.74454660800401       43.05468491213792       55.60763755336590
H           45.96544731107530       42.81707399215089       57.16842729101170
H           44.50140114815900       44.49694363498570       52.63449788376104
H           41.57163946483385       44.90258949280062       51.89000318283684
H           42.27301270636001       44.99174783591854       53.50044352505560
H           42.70204865732137       46.19730341362192       52.28988093402301
H           43.99643932063248       41.82048571243770       55.98735706388106
H           46.69427486618056       40.53130909903685       55.41952631554156
H           45.79864902659999       40.42789541668974       56.93601976981032
H           45.14364511055321       39.68901608631044       55.47533687274990
H           44.74145594061584       44.51808869339509       54.97420518675785
H           43.22589311958104       43.70040357226642       56.80948640883921
H           44.27002554070474       44.49373691923449       57.98740489116742
H           43.38696813789297       45.44923560947142       56.79322397941537
H           47.00520564793327       45.32944111603851       55.59715390511112
H           46.53390437883709       45.32547768634166       57.29440528681581
H           44.89166561944963       47.11500730770793       56.85842618664740
H           47.29798335488750       47.53359594227302       57.49400996289921
H           47.66255116077988       47.80030644992823       55.79055465049255
H           46.55907152129891       48.88201970385666       56.64434231044473
H           44.40775758058875       46.56188783128655       54.47511906632660
H           46.05061876876610       47.03021674240371       54.04367242447535
H           45.49425770917821       49.37315922845398       54.80957723190752
H           45.49238955522994       48.60825709538997       52.43586856817690
H           43.77284102570846       48.23612346679739       52.56964039021597
H           44.33679112727106       49.89971524946166       52.71413601680119
H           43.52451391416545       48.66090416009632       56.24455415813242
H           42.66093186175943       48.27952605605336       54.76256548191293
H           43.02239511746982       50.78891418552764       54.14377922872063
H           40.93897765497897       51.34698766078637       55.33905911795591
H           40.86165916010707       49.71829267145165       54.67332888729941
H           41.15793375240968       49.95244071034967       56.39706193038860
H           43.69610423748082       50.75243612160049       57.09630372111693
H           42.82056854390507       52.11506252012188       56.41779370123022
H           45.56056837237769       51.23275084554606       55.45956088477244
H           45.55061291571970       53.48809869077490       54.36993732161109
H           44.30445887503014       52.43521878589443       53.71384359910194
H           43.87090049067208       53.69977826839342       54.86221610058463
H           45.36075692623266       52.07669689493852       57.85340307755241
H           44.75507048407760       53.59008305623519       57.19618390016736
H           46.92593543585323       53.93484920723796       56.02296221816186
H           48.13430177989235       54.52718965730501       58.09360081368192
H           46.41512945125064       54.82673658528800       58.28627255560675
H           47.13763031671776       53.39512334633727       59.01263159957387
H           47.69157429159676       51.69460259677265       55.65491696999324
H           47.55542414839486       51.28676285930147       57.36457753979659
H           49.49089038765815       52.68955055452446       57.88612467700430
H           50.00873547128074       50.72784891646699       55.61701982551685
H           51.15267563763287       51.19436022637453       56.87758651713845
H           49.70566954253206       50.28575769763632       57.29499683825414
H           49.15147213421515       54.32621988819459       55.96321775574912
H           49.73037114755898       53.07235290962467       54.87563602945627
H           51.92400551649920       53.08897848188617       56.05489951788766
H           52.64102908629675       55.27142100146362       55.08575292375630
H           51.56787287063467       54.38367334939505       54.00599439849602
H           50.94996777250515       55.74809179962609       54.93479550125146
H           50.52378538463557       54.51885481981631       58.05964649333976
H           51.57636170563066       55.71153912789779       57.33116204771500
H           52.68794602641221       53.01673054865744       58.13355857538963
H           54.76568461251341       54.33279044689898       58.39340708805383
H           54.09231856693898       54.56979982044536       56.78275441505754
H           53.89412022469796       55.81699096695282       58.01541707260739
H           52.14392799765973       55.39528934967041       59.93103681173419
H           53.37680965503101       54.20033056782804       60.30573379853306
H           50.50410440492757       53.34524004650603       59.83226293287262
H           52.77927160088760       52.10382366401950       61.42924832836346
H           51.18491887679551       51.40172004555742       61.14903132284361
H           52.30206906443425       51.60517161203396       59.80446937064191
H           51.82283195001373       54.45859187168374       62.31272914766296
H           50.48617686681064       53.32649720137579       62.44044801927694
H           50.04114553348473       55.64009134643218       60.60096318980517
H           48.29342198384018       54.36105140339058       62.72961868427542
H           47.77041659354308       55.45578039761203       61.44846391206429
H           48.36108033897821       53.84589536816893       61.04154436025829
H           50.24512706650279       55.89735063473192       63.61656713882779
H           49.23677689551242       56.97500183881554       62.65645649527744
H           52.22949507853026       56.65423959568596       62.20954743954532
H           51.93357045331808       58.76179910322409       60.90093881582995
H           50.98804160913590       57.45406138016928       60.22160302190088
H           50.19846429415059       58.68933942743121       61.19749346813591
H           51.58103228339809       57.55793314433746       64.47906965287872
H           50.67937811964626       58.83295134407869       63.66458128697671
H           52.88291504493807       59.53829959470816       62.58345417537652
H           51.86443079825973       60.81036850394351       64.38420008366698
H           52.51890537429472       59.70924896048326       65.59700653565801
H           53.60616015897223       60.73480300329674       64.65787472429564
H           53.94590283493540       57.20096859485207       63.44736908069462
H           54.27596304826635       58.17865243258978       64.86748575835605
H           55.28388826104374       59.89574302077987       63.16075619651856
H           56.64451218528866       57.23463895278861       63.75858022005107
H           57.48411318562157       58.70801420799424       63.27647991082284
H           56.61530693400950       58.65452425572241       64.80869233825931
H           54.30035938342776       58.61588231634749       61.20791190709910
H           55.41498691780838       57.30633452358452       61.56317484172749
H           57.33226949448647       58.75144340460203       60.98485304186262
H           55.09216020385587       58.67811457762507       58.91478500858124
H           56.81143554444007       58.80909392356833       58.55115994839923
H           56.18217239571475       57.34670512663587       59.29813066929356
H           56.39367680444027       60.91659033810503       61.65528114866138
H           55.19566248465215       60.82769114251053       60.37339741620841
H           57.94637646460122       60.54319487861315       59.34763006675453
H           57.17043087618383       62.22752903363650       57.74476939966546
H           55.92049313702150       61.00348871613603       57.94726488767436
H           55.75381204177992       62.57059323612409       58.74022911846375
H           57.19218154105106       63.01664785685588       60.92652413921834
H           58.37440108646618       63.06545248462297       59.62811880556642
H           58.68233062780521       61.07310235412094       61.88339156297684
H           61.02922930054507       61.12236378528045       61.21456766935079
H           60.04827250996748       60.81970653707376       59.78649249581733
H           60.72289909421244       62.42391025376143       60.06766413747737
H           59.45696919256467       64.00434384753538       61.81529927863663
H           60.37948587318444       62.84749604769583       62.76598116825591
H           57.38320463962064       63.12017780605980       63.12834052854591
H           57.84315143004596       62.10817303897871       65.30122483392907
H           58.52097259148536       61.08876276671158       64.03904253776653
H           59.58122775997308       62.12867649401776       64.98797213531188
H           59.63799437176635       64.81583645148054       64.18382346491610
H           58.29299443209843       64.44969637984627       65.26465682805666
H           57.88382788602829       65.63844677429007       62.51062549743547
H           55.71719068799448       66.39367975308961       63.54908377951025
H           55.86983750665384       64.64647501369738       63.39631927819816
H           56.09489034622137       65.40698979318050       64.96162640205378
H           57.70184004139421       67.81199473224650       63.43420475584584
H           59.31096216597673       67.17377971484885       63.70697632447959
H           57.37503944393904       66.82288136872069       65.96600879363871
H           59.35258149290762       67.33991611341172       67.30839064041051
H           59.76891639248963       66.11584192508739       66.11442829373138
H           60.25491111481210       67.79346053497125       65.86686891563922
H           58.49700965970695       69.52199681249873       65.14247218425049
H           57.93334396755720       69.15999327466027       66.77027209041562
H           56.20996566356224       69.10295423016726       64.26205013132099
H           54.33006921923922       68.97203371982872       65.96145202160547
H           55.29211034262078       67.50468616782238       65.86427770769961
H           55.53657581148214       68.63368918379510       67.19934580767760
H           57.10707260534200       71.35861323743558       65.35458426728729
H           55.91848558649814       70.99205370162709       66.59287175400046
H           54.29152609569416       70.67589433635337       64.51634228545851
H           55.22641776761630       73.37995398998972       65.57005380401252
H           53.70594966351781       73.11766485046475       64.71672058213225
H           53.98143482863073       72.35129116740150       66.27880959939218
H           56.58959345188251       71.28680131606251       63.13496998012959
H           55.85600496715744       72.88064749434555       63.25937345176054
H           54.69441032235195       70.37956141030392       61.97502151329072
H           53.34200679873884       73.09055768458946       62.30751398740119
H           52.76283076209809       71.76777243259173       61.29946285225257
H           52.81871169494754       71.57330566283761       63.04663211827342
H           55.35472361862833       73.13924983492186       60.88185528833252
H           54.69196681597064       71.80729462923641       59.94203785415702
H           57.45697377448426       71.82443443519084       61.21961768890861
H           56.10276242360136       69.82403364834776       59.36492032764611
H           57.80731188619123       69.79403602835529       59.80820247196616
H           56.57848870473654       69.53591234440646       61.04090781993546
H           56.60041991728829       72.07475544890143       58.31353381457717
H           58.25896088949829       71.93365276704158       58.88990470591463
H           56.38992049365316       74.26615253973155       59.44720476007895
H           58.42248949215995       75.37853677050059       60.35261778556908
H           58.03231770575705       73.94130079120626       61.28168980303677
H           59.34773098795822       73.89835674353917       60.10436905407784
H           57.15797596688150       73.92837194392921       57.08533604349843
H           58.82540921992145       74.03342118096235       57.64487732652047
H           58.39358963494357       76.38105467468453       58.39883755049059
H           59.36284513046188       75.86336774250940       56.17344889703253
H           57.74269930992402       75.78374906239326       55.48175263949662
H           58.35972970675870       77.31246460580338       56.10917575124935
H           42.78290785433349       43.33672574823905       49.44535914636803
H           42.15503104696091       44.97155965958852       49.66599422763610
C           54.75308420598024       60.96234093936468       54.19903829989423
C           53.78843521520784       60.83072171003653       53.02181412435757
C           53.12436230822317       62.17934558588610       52.75496725610121
C           52.75156528024852       59.74019876199321       53.31852589173229
C           51.89089074143735       59.30376592084987       52.11900370909043
C           50.43259335237176       59.16415100613751       52.55445040601310
C           52.35331770570127       57.97301323991103       51.51080038526131
C           53.74761901840765       57.97584013879178       50.87803459854874
C           53.81410545467726       58.94341415465135       49.69764167649286
C           54.13948037501846       56.57916728285404       50.37010179246911
C           54.13861434653255       55.44719865961537       51.40267242923213
C           55.01297558802912       55.79021938474857       52.60766366134306
C           54.65365458374972       54.13638877744315       50.78819342036157
C           53.88781795005495       53.60052825675641       49.57264589191187
C           52.38674536752437       53.50996462936492       49.84842847570385
C           54.39925698145566       52.20693789247754       49.17497196867450
C           55.88846504686023       52.09579740915586       48.82247510458734
C           56.24452222151039       53.00096340950656       47.64618811546549
C           56.23056924059854       50.63547483818018       48.48563914467295
C           57.68960857607777       50.22646609450300       48.75027417818218
C           57.99630550168047       48.95218440738356       47.96386424050240
C           57.91212194708107       50.04543276400418       50.26014715088645
C           59.19228203157791       49.32339529447075       50.70709621151017
C           59.12421919573045       49.10611787767382       52.21825930737815
C           60.45219781922653       50.10164822416760       50.31126229700168
C           61.79088010938899       49.48509094566771       50.75191679172216
C           62.93284843783736       50.42117685035780       50.35905643870328
C           61.98839792077987       48.09483649204314       50.13910110606739
C           63.21501564813686       47.29589474050582       50.61052572198287
C           63.18696740247329       45.93439421504038       49.91596255770842
C           63.20939026060395       47.15267107840022       52.13876642374398
C           64.13861924139457       46.09610063426840       52.75261955354808
C           63.83829098821305       46.01427890346599       54.24896181132582
C           65.61869478307499       46.41865653886996       52.51509603169590
C           66.58328156192664       45.25425005577041       52.79733451183061
C           67.99990618242568       45.79910971454535       52.96643093957639
C           66.53043578640558       44.21944460545438       51.66792315086203
C           67.24937053956205       42.88832576790585       51.93171462548531
C           67.33746006945509       42.11142117381648       50.61727986722610
C           66.52109883410144       42.05113453171077       52.99148458326725
C           67.33477099123000       40.85875964411429       53.52940101644035
C           66.48204990019727       39.58843012814060       53.52491708568326
C           67.85835528950395       41.09999353070537       54.95225607860758
C           68.83393064941846       42.27189481233988       55.10602137265392
C           70.16961137560970       41.96577406655246       54.42814324519408
C           69.09191192186502       42.58586626613553       56.58784201981013
C           67.92163849443205       43.23362886488707       57.33988888453632
C           67.74301337406152       44.68281090081541       56.88687728248673
C           68.14902193992825       43.20160989169675       58.86235215713533
C           67.58709667246414       42.00076134806076       59.64261037754967
C           68.32072735584207       40.69559457173687       59.33146555075980
C           66.08133416955590       41.77282185778675       59.45109391507962
C           65.16962041102795       42.98050387718205       59.69132496002752
C           65.27723359254026       43.47249732736921       61.13279674903399
C           63.70972210706111       42.61387581705429       59.37971701376107
C           63.37627968264852       42.49677236756886       57.88628392377788
C           63.35189189404728       43.87261002070967       57.22473028032513
C           62.02382089984003       41.78871736245954       57.66781510915477
C           62.10382931542770       40.36849476820834       57.08578695163338
C           62.87873895915181       39.43054013751110       58.01122753260298
C           62.70164532382415       40.33924924311449       55.67223969944607
C           61.76029089698464       40.83258676174800       54.56188314345719
C           60.74553741948436       39.75147581721869       54.19893218466999
C           62.60727078416386       41.23751303947690       53.34794126783036
C           61.85559800279304       41.68870290152111       52.08631391602354
C           62.88747275126723       41.97139853989550       50.99409197607106
C           60.98526687317009       42.91573722427894       52.38095721023387
C           60.22216489016835       43.51500600503751       51.19159506286137
C           59.63598569931084       44.86300366430795       51.61096374948949
C           59.10943654078981       42.58597616361023       50.69244048063298
C           58.65734574105472       42.88620598498196       49.25644600569488
C           57.25793988593209       42.32428840493841       49.01779024856936
C           59.64083443729436       42.30129317132450       48.23298265321227
C           59.68394348534180       43.06732382139398       46.90225191244615
C           60.19852517168681       42.15061085110813       45.79346260010369
C           60.57139132355459       44.30891716215810       47.04450008288170
C           60.48003942249245       45.33234361896876       45.90550704947869
C           61.56220727091680       46.39169709620953       46.10896485436221
C           59.09479266654796       45.99782863498732       45.82613916261025
C           58.20634070474694       45.49484530248220       44.68162344079694
C           58.69617656835246       46.04471990736248       43.34247269723835
C           56.74773949130746       45.91627130119060       44.91042765429337
C           55.99849539804329       45.06959674189470       45.94965336432698
C           55.58810216445350       43.72934148926779       45.34139463398373
C           54.78041098663388       45.84554104189274       46.46681560145515
C           54.04753954283486       45.21003202880607       47.65542752981209
C           52.66342021072423       45.83973126770911       47.80489563121222
C           54.85280600691724       45.29626149974781       48.96013592639260
C           54.88820870471222       46.66919239925921       49.62657916381714
C           55.86430497476092       46.68051015885585       50.79656660035580
H           55.50294638412781       61.72421274843519       53.99759602729823
H           54.21410007034886       61.24252521661722       55.10264434596410
H           55.26628597203482       60.02219791807011       54.38614109773211
H           56.88547836215803       46.53899951953285       50.44938828469723
H           55.81259465456336       47.62572844985473       51.33188673623326
H           55.63291924244386       45.87815590081068       51.49462126844104
H           54.43110696738091       44.58356169426259       49.67333876077013
H           55.87742394281866       44.97916254026429       48.76028027214324
H           55.10339534604756       46.84736417974425       46.75682229126826
H           54.07300959950067       45.95684535576711       45.64011516361793
H           56.67139168891173       44.87523814751360       46.79001502138689
H           55.17080349434729       43.06444620682148       46.09378030817420
H           54.84013190675967       43.87832511853298       44.56439459715468
H           56.44449351033114       43.22819132017403       44.89557516843597
H           56.74543344981900       46.96313262280178       45.22389278665256
H           56.20333272781879       45.86004927669244       43.96431639746547
H           58.57775771991528       45.85340046971676       46.77535738764157
H           59.21907536039161       47.07508994076700       45.69752845889310
H           53.89986442707440       44.14586686299251       47.44135392569267
H           52.04957955679054       45.60332803837512       46.93811214335590
H           52.16163644057361       45.45503353179907       48.68970841828321