      -----------------------------------------------------------      
     |                   =====================                   |     
     |                           x T B                           |     
     |                   =====================                   |     
     |                         S. Grimme                         |     
     |          Mulliken Center for Theoretical Chemistry        |     
     |                    University of Bonn                     |     
      -----------------------------------------------------------      

   * xtb version 6.6.1 (8d0f1dd) compiled by 'stahn@M-Bot' on 2023-08-01

   xtb is free software: you can redistribute it and/or modify it under
   the terms of the GNU Lesser General Public License as published by
   the Free Software Foundation, either version 3 of the License, or
   (at your option) any later version.
   
   xtb is distributed in the hope that it will be useful,
   but WITHOUT ANY WARRANTY; without even the implied warranty of
   MERCHANTABILITY or FITNESS FOR A PARTICULAR PURPOSE.  See the
   GNU Lesser General Public License for more details.
   
   Cite this work as:
   * C. Bannwarth, E. Caldeweyher, S. Ehlert, A. Hansen, P. Pracht,
     J. Seibert, S. Spicher, S. Grimme, WIREs Comput. Mol. Sci., 2020, 11,
     e01493. DOI: 10.1002/wcms.1493
   
   for GFN2-xTB:
   * C. Bannwarth, S. Ehlert and S. Grimme., J. Chem. Theory Comput., 2019,
     15, 1652-1671. DOI: 10.1021/acs.jctc.8b01176
   for GFN1-xTB:
   * S. Grimme, C. Bannwarth, P. Shushkov, J. Chem. Theory Comput., 2017,
     13, 1989-2009. DOI: 10.1021/acs.jctc.7b00118
   for GFN0-xTB:
   * P. Pracht, E. Caldeweyher, S. Ehlert, S. Grimme, ChemRxiv, 2019, preprint.
     DOI: 10.26434/chemrxiv.8326202.v1
   for GFN-FF:
   * S. Spicher and S. Grimme, Angew. Chem. Int. Ed., 2020, 59, 15665-15673.
     DOI: 10.1002/anie.202004239
   
   for ALPB and GBSA implicit solvation:
   * S. Ehlert, M. Stahn, S. Spicher, S. Grimme, J. Chem. Theory Comput.,
     2021, 17, 4250-4261. DOI: 10.1021/acs.jctc.1c00471
   
   for DFT-D4:
   * E. Caldeweyher, C. Bannwarth and S. Grimme, J. Chem. Phys., 2017,
     147, 034112. DOI: 10.1063/1.4993215
   * E. Caldeweyher, S. Ehlert, A. Hansen, H. Neugebauer, S. Spicher,
     C. Bannwarth and S. Grimme, J. Chem. Phys., 2019, 150, 154122.
     DOI: 10.1063/1.5090222
   * E. Caldeweyher, J.-M. Mewes, S. Ehlert and S. Grimme, Phys. Chem. Chem. Phys.
     2020, 22, 8499-8512. DOI: 10.1039/D0CP00502A
   
   for sTDA-xTB:
   * S. Grimme and C. Bannwarth, J. Chem. Phys., 2016, 145, 054103.
     DOI: 10.1063/1.4959605
   
   in the mass-spec context:
   * V. Asgeirsson, C. Bauer and S. Grimme, Chem. Sci., 2017, 8, 4879.
     DOI: 10.1039/c7sc00601b
   * J. Koopman and S. Grimme, ACS Omega 2019, 4, 12, 15120-15133.
     DOI: 10.1021/acsomega.9b02011
   
   for metadynamics refer to:
   * S. Grimme, J. Chem. Theory Comput., 2019, 155, 2847-2862
     DOI: 10.1021/acs.jctc.9b00143
   
   for SPH calculations refer to:
   * S. Spicher and S. Grimme, J. Chem. Theory Comput., 2021, 17, 1701-1714
     DOI: 10.1021/acs.jctc.0c01306
   
   with help from (in alphabetical order)
   P. Atkinson, C. Bannwarth, F. Bohle, G. Brandenburg, E. Caldeweyher
   M. Checinski, S. Dohm, S. Ehlert, S. Ehrlich, I. Gerasimov, C. Hölzer
   A. Katbashev, J. Koopman, C. Lavigne, S. Lehtola, F. März, M. Müller,
   F. Musil, H. Neugebauer, J. Pisarek, C. Plett, P. Pracht, F. Pultar,
   J. Seibert, P. Shushkov, S. Spicher, M. Stahn, M. Steiner, T. Strunk,
   J. Stückrath, T. Rose, and J. Unsleber
   
 * started run on 2024/10/04 at 14:12:36.635     

           -------------------------------------------------
          |                Calculation Setup                |
           -------------------------------------------------

          program call               : /home/abt-grimme/AK-bin/xtb input.xyz --input input.inp --opt
          hostname                   : boar089.thch.uni-bonn.de
          coordinate file            : input.xyz
          omp threads                :                     8

   ID    Z sym.   atoms
    1    6 C      1-90, 273-362, 545-634, 817-906, 1089-1178, 1361-1450,
                  1633-1722, 1905-1994, 2177-2266, 2449-2538, 2721-2810,
                  2993-3082, 3265-3354
    2    1 H      91-272, 363-544, 635-816, 907-1088, 1179-1360, 1451-1632,
                  1723-1904, 1995-2176, 2267-2448, 2539-2720, 2811-2992,
                  3083-3264, 3355-3536

molecular fragmentation (1/2 indicates fragments):
111111111111111111111111111111111111111111111111111111111111111111111111
111111111111111111111111111111111111111111111111111111111111111111111111
111111111111111111111111111111111111111111111111111111111111111111111111
111111111111111111111111111111111111111111111111111111112222222222222222
222222222222222222222222222222222222222222222222222222222222222222222222
222222222222222222222222222222222222222222222222222222222222222222222222
222222222222222222222222222222222222222222222222222222222222222222222222
222222222222222222222222222222222222222222222222222222222222222222222222
222222222222222222222222222222222222222222222222222222222222222222222222
222222222222222222222222222222222222222222222222222222222222222222222222
222222222222222222222222222222222222222222222222222222222222222222222222
222222222222222222222222222222222222222222222222222222222222222222222222
222222222222222222222222222222222222222222222222222222222222222222222222
222222222222222222222222222222222222222222222222222222222222222222222222
222222222222222222222222222222222222222222222222222222222222222222222222
222222222222222222222222222222222222222222222222222222222222222222222222
222222222222222222222222222222222222222222222222222222222222222222222222
222222222222222222222222222222222222222222222222222222222222222222222222
222222222222222222222222222222222222222222222222222222222222222222222222
222222222222222222222222222222222222222222222222222222222222222222222222
222222222222222222222222222222222222222222222222222222222222222222222222
222222222222222222222222222222222222222222222222222222222222222222222222
222222222222222222222222222222222222222222222222222222222222222222222222
222222222222222222222222222222222222222222222222222222222222222222222222
222222222222222222222222222222222222222222222222222222222222222222222222
222222222222222222222222222222222222222222222222222222222222222222222222
222222222222222222222222222222222222222222222222222222222222222222222222
222222222222222222222222222222222222222222222222222222222222222222222222
222222222222222222222222222222222222222222222222222222222222222222222222
222222222222222222222222222222222222222222222222222222222222222222222222
222222222222222222222222222222222222222222222222222222222222222222222222
222222222222222222222222222222222222222222222222222222222222222222222222
222222222222222222222222222222222222222222222222222222222222222222222222
222222222222222222222222222222222222222222222222222222222222222222222222
222222222222222222222222222222222222222222222222222222222222222222222222
222222222222222222222222222222222222222222222222222222222222222222222222
222222222222222222222222222222222222222222222222222222222222222222222222
222222222222222222222222222222222222222222222222222222222222222222222222
222222222222222222222222222222222222222222222222222222222222222222222222
222222222222222222222222222222222222222222222222222222222222222222222222
222222222222222222222222222222222222222222222222222222222222222222222222
222222222222222222222222222222222222222222222222222222222222222222222222
222222222222222222222222222222222222222222222222222222222222222222222222
222222222222222222222222222222222222222222222222222222222222222222222222
222222222222222222222222222222222222222222222222222222222222222222222222
222222222222222222222222222222222222222222222222222222222222222222222222
222222222222222222222222222222222222222222222222222222222222222222222222
222222222222222222222222222222222222222222222222222222222222222222222222
222222222222222222222222222222222222222222222222222222222222222222222222
22222222
# atoms in fragment 1/2:   272  3264
 fragment masses (1/2) :     1264.41    15172.94
CMA distance (Bohr)    :  13.775
constraining FC (au)   :  0.0500

           -------------------------------------------------
          |                 G F N 2 - x T B                 |
           -------------------------------------------------

        Reference                      10.1021/acs.jctc.8b01176
      * Hamiltonian:
        H0-scaling (s, p, d)           1.850000    2.230000    2.230000
        zeta-weighting                 0.500000
      * Dispersion:
        s8                             2.700000
        a1                             0.520000
        a2                             5.000000
        s9                             5.000000
      * Repulsion:
        kExp                           1.500000    1.000000
        rExp                           1.000000
      * Coulomb:
        alpha                          2.000000
        third order                    shell-resolved
        anisotropic                    true
        a3                             3.000000
        a5                             4.000000
        cn-shift                       1.200000
        cn-exp                         4.000000
        max-rad                        5.000000


          ...................................................
          :                      SETUP                      :
          :.................................................:
          :  # basis functions                7046          :
          :  # atomic orbitals                7046          :
          :  # shells                         4706          :
          :  # electrons                      7046          :
          :  max. iterations                   250          :
          :  Hamiltonian                  GFN2-xTB          :
          :  restarted?                      false          :
          :  GBSA solvation                  false          :
          :  PC potential                    false          :
          :  electronic temp.          300.0000000     K    :
          :  accuracy                    1.0000000          :
          :  -> integral cutoff          0.2500000E+02      :
          :  -> integral neglect         0.1000000E-07      :
          :  -> SCF convergence          0.1000000E-05 Eh   :
          :  -> wf. convergence          0.1000000E-03 e    :
          :  Broyden damping             0.4000000          :
          ...................................................

 iter      E             dE          RMSdq      gap      omega  full diag
   1  -3766.6747813 -0.376667E+04  0.226E+00   11.49       0.0  T
   2  -3771.7504027 -0.507562E+01  0.126E+00   11.42       1.0  T
   3  -3771.9619546 -0.211552E+00  0.559E-01   11.37       1.0  T
   4  -3771.9836189 -0.216643E-01  0.143E-01   11.38       1.0  T
   5  -3772.0034922 -0.198734E-01  0.511E-02   11.38       1.0  T
   6  -3772.0035134 -0.211882E-04  0.726E-03   11.38       1.0  T
   7  -3772.0035458 -0.323576E-04  0.152E-03   11.38       1.1  T
   8  -3772.0035477 -0.186228E-05  0.552E-04   11.38       3.0  T
   9  -3772.0035478 -0.974278E-07  0.183E-04   11.38       9.2  T
  10  -3772.0035478 -0.156101E-07  0.695E-05   11.38      24.2  T

   *** convergence criteria satisfied after 10 iterations ***

         #    Occupation            Energy/Eh            Energy/eV
      -------------------------------------------------------------
         1        2.0000           -0.6275824             -17.0774
       ...           ...                  ...                  ...
      3517        2.0000           -0.3950915             -10.7510
      3518        2.0000           -0.3949989             -10.7485
      3519        2.0000           -0.3947841             -10.7426
      3520        2.0000           -0.3947689             -10.7422
      3521        2.0000           -0.3943293             -10.7302
      3522        2.0000           -0.3942403             -10.7278
      3523        2.0000           -0.3937050             -10.7133 (HOMO)
      3524                          0.0243738               0.6632 (LUMO)
      3525                          0.0264752               0.7204
      3526                          0.0287832               0.7832
      3527                          0.0297780               0.8103
      3528                          0.0298003               0.8109
       ...                                ...                  ...
      7046                          0.3868476              10.5267
      -------------------------------------------------------------
                  HL-Gap            0.4180787 Eh           11.3765 eV
             Fermi-level           -0.1846656 Eh           -5.0250 eV

 SCC (total)                   0 d,  0 h, 17 min,  6.371 sec
 SCC setup                      ...        0 min,  0.487 sec (  0.047%)
 Dispersion                     ...        0 min,  4.171 sec (  0.406%)
 classical contributions        ...        0 min,  0.170 sec (  0.017%)
 integral evaluation            ...        0 min,  7.127 sec (  0.694%)
 iterations                     ...       12 min,  4.474 sec ( 70.586%)
 molecular gradient             ...        4 min, 40.068 sec ( 27.287%)
 printout                       ...        0 min,  9.875 sec (  0.962%)

         :::::::::::::::::::::::::::::::::::::::::::::::::::::
         ::                     SUMMARY                     ::
         :::::::::::::::::::::::::::::::::::::::::::::::::::::
         :: total energy           -3716.234780993966 Eh    ::
         :: gradient norm              0.018807809945 Eh/a0 ::
         :: HOMO-LUMO gap             11.376500730780 eV    ::
         ::.................................................::
         :: SCC energy             -3772.003547768034 Eh    ::
         :: -> isotropic ES            0.587873953546 Eh    ::
         :: -> anisotropic ES          1.294491160421 Eh    ::
         :: -> anisotropic XC          2.077348838132 Eh    ::
         :: -> dispersion             -4.521767954179 Eh    ::
         :: repulsion energy          55.110473779907 Eh    ::
         :: add. restraining           0.000000000000 Eh    ::
         :: total charge              -0.000000000010 e     ::
         :::::::::::::::::::::::::::::::::::::::::::::::::::::

      ----------------------------------------------------------- 
     |              Fast Inertial Relaxation Engine              |
      ----------------------------------------------------------- 

          ...................................................
          :                      SETUP                      :
          :.................................................:
          :   energy convergence        0.5000000E-05 Eh    :
          :   grad. convergence         0.1000000E-02 Eh/a0 :
          :   optimization log               true           :
          :   writing optlog all                1     steps :
          :   Hessian reset                    20     steps :
          :   time step scaling                 5     steps :
          :   maximium step len.        1.0000000     a0    :
          :   initial time step         0.2500000     fs    :
          :   maximum time step         1.2500000     fs    :
          :   power reset thr           0.0000000     au    :
          :   alpha parameter           0.1000000           :
          :   BFGS update                   false           :
          :   preconditioning               false           :
          ...................................................

........................................................................
.............................. CYCLE    1 ..............................
........................................................................

 iter      E             dE          RMSdq      gap      omega  full diag
   1  -3772.0069969 -0.377201E+04  0.253E-04   11.38       0.0  T
   2  -3772.0069969 -0.275013E-07  0.149E-04   11.38      11.3  T
   3  -3772.0069969 -0.427917E-09  0.486E-05   11.38      34.6  T
     SCC iter.                  ...        3 min, 27.844 sec
     gradient                   ...        4 min, 41.119 sec
 * total energy  : -3716.2348209 Eh     change    :  -0.3991909E-04 Eh
   gradient norm :     0.0174218 Eh/a0  converged?    E=F G=F D=F
   time step     :     0.2500000 fs     power     :   0.2037473E-08
   step length   :     0.0022042 a0     speed     :   0.2132716E-03

........................................................................
.............................. CYCLE    2 ..............................
........................................................................

 iter      E             dE          RMSdq      gap      omega  full diag
   1  -3772.0120146 -0.377201E+04  0.370E-04   11.38       0.0  T
   2  -3772.0120147 -0.557420E-07  0.220E-04   11.38       7.7  T
   3  -3772.0120147 -0.903128E-09  0.682E-05   11.38      24.7  T
     SCC iter.                  ...        3 min, 27.072 sec
     gradient                   ...        4 min, 38.735 sec
 * total energy  : -3716.2348738 Eh     change    :  -0.5292904E-04 Eh
   gradient norm :     0.0154370 Eh/a0  converged?    E=F G=F D=F
   time step     :     0.2500000 fs     power     :   0.2636528E-08
   step length   :     0.0032248 a0     speed     :   0.3120194E-03

........................................................................
.............................. CYCLE    3 ..............................
........................................................................

 iter      E             dE          RMSdq      gap      omega  full diag
   1  -3772.0183776 -0.377202E+04  0.474E-04   11.38       0.0  T
   2  -3772.0183777 -0.895429E-07  0.281E-04   11.38       6.0  T
   3  -3772.0183777 -0.134924E-08  0.860E-05   11.38      19.6  T
     SCC iter.                  ...        3 min, 26.679 sec
     gradient                   ...        4 min, 40.271 sec
 * total energy  : -3716.2349322 Eh     change    :  -0.5840428E-04 Eh
   gradient norm :     0.0129832 Eh/a0  converged?    E=F G=F D=F
   time step     :     0.2500000 fs     power     :   0.2821141E-08
   step length   :     0.0041275 a0     speed     :   0.3993608E-03

........................................................................
.............................. CYCLE    4 ..............................
........................................................................

 iter      E             dE          RMSdq      gap      omega  full diag
   1  -3772.0257922 -0.377203E+04  0.560E-04   11.38       0.0  T
   2  -3772.0257923 -0.121687E-06  0.333E-04   11.38       5.1  T
   3  -3772.0257923 -0.178443E-08  0.996E-05   11.38      16.9  T
     SCC iter.                  ...        3 min, 26.120 sec
     gradient                   ...        4 min, 39.854 sec
 * total energy  : -3716.2349882 Eh     change    :  -0.5593044E-04 Eh
   gradient norm :     0.0102676 Eh/a0  converged?    E=F G=F D=F
   time step     :     0.2500000 fs     power     :   0.2586319E-08
   step length   :     0.0048810 a0     speed     :   0.4722670E-03

........................................................................
.............................. CYCLE    5 ..............................
........................................................................

 iter      E             dE          RMSdq      gap      omega  full diag
   1  -3772.0338858 -0.377203E+04  0.626E-04   11.38       0.0  T
   2  -3772.0338860 -0.145965E-06  0.372E-04   11.38       4.5  T
   3  -3772.0338860 -0.220143E-08  0.108E-04   11.38      15.6  T
     SCC iter.                  ...        3 min, 29.544 sec
     gradient                   ...        4 min, 40.529 sec
 * total energy  : -3716.2350346 Eh     change    :  -0.4640773E-04 Eh
   gradient norm :     0.0076448 Eh/a0  converged?    E=F G=F D=F
   time step     :     0.2500000 fs     power     :   0.2004273E-08
   step length   :     0.0054584 a0     speed     :   0.5281338E-03

........................................................................
.............................. CYCLE    6 ..............................
........................................................................

 iter      E             dE          RMSdq      gap      omega  full diag
   1  -3772.0430418 -0.377204E+04  0.739E-04   11.38       0.0  T
   2  -3772.0430420 -0.190824E-06  0.440E-04   11.38       3.8  T
   3  -3772.0430420 -0.268619E-08  0.122E-04   11.38      13.8  T
     SCC iter.                  ...        3 min, 29.231 sec
     gradient                   ...        4 min, 37.642 sec
 * total energy  : -3716.2350694 Eh     change    :  -0.3477695E-04 Eh
   gradient norm :     0.0056692 Eh/a0  converged?    E=F G=F D=F
   time step     :     0.2750000 fs     power     :   0.1133371E-08
   step length   :     0.0064560 a0     speed     :   0.5678700E-03

........................................................................
.............................. CYCLE    7 ..............................
........................................................................

 iter      E             dE          RMSdq      gap      omega  full diag
   1  -3772.0523743 -0.377205E+04  0.828E-04   11.38       0.0  T
   2  -3772.0523745 -0.204709E-06  0.493E-04   11.38       3.4  T
   3  -3772.0523745 -0.278897E-08  0.122E-04   11.38      13.8  T
     SCC iter.                  ...        3 min, 25.950 sec
     gradient                   ...        4 min, 38.824 sec
 * total energy  : -3716.2350869 Eh     change    :  -0.1754347E-04 Eh
   gradient norm :     0.0057495 Eh/a0  converged?    E=F G=F D=F
   time step     :     0.3025000 fs     power     :   0.2231345E-09
   step length   :     0.0072198 a0     speed     :   0.5773153E-03

........................................................................
.............................. CYCLE    8 ..............................
........................................................................

 iter      E             dE          RMSdq      gap      omega  full diag
   1  -3772.0603890 -0.377206E+04  0.859E-04   11.38       0.0  T
   2  -3772.0603892 -0.162781E-06  0.512E-04   11.38       3.3  T
   3  -3772.0603892 -0.215186E-08  0.101E-04   11.38      16.7  T
     SCC iter.                  ...        3 min, 30.094 sec
     gradient                   ...        4 min, 39.134 sec
 * total energy  : -3716.2350891 Eh     change    :  -0.2198793E-05 Eh
   gradient norm :     0.0073499 Eh/a0  converged?    E=T G=F D=F
   time step     :     0.3327500 fs     power     :  -0.3406794E-09
   step length   :     0.0074579 a0     speed     :   0.5421395E-03

........................................................................
.............................. CYCLE    9 ..............................
........................................................................
 * reset velocities

 iter      E             dE          RMSdq      gap      omega  full diag
   1  -3772.0601166 -0.377206E+04  0.295E-05   11.38       0.0  T
   2  -3772.0601166 -0.108412E-08  0.142E-05   11.38     118.1  T
   3  -3772.0601166 -0.102773E-09  0.780E-06   11.38     215.7  T
     SCC iter.                  ...        3 min, 35.940 sec
     gradient                   ...        4 min, 39.123 sec
 * total energy  : -3716.2350905 Eh     change    :  -0.1402764E-05 Eh
   gradient norm :     0.0072313 Eh/a0  converged?    E=T G=F D=T
   time step     :     0.1663750 fs     power     :   0.1100112E-09
   step length   :     0.0001908 a0     speed     :   0.2773276E-04

........................................................................
.............................. CYCLE   10 ..............................
........................................................................

 iter      E             dE          RMSdq      gap      omega  full diag
   1  -3772.0595760 -0.377206E+04  0.453E-05   11.38       0.0  T
   2  -3772.0595760 -0.673936E-09  0.269E-05   11.38      62.6  T
   3  -3772.0595760  0.454747E-11  0.735E-06   11.38     228.9  T
     SCC iter.                  ...        3 min, 24.288 sec
     gradient                   ...        4 min, 40.723 sec
 * total energy  : -3716.2350932 Eh     change    :  -0.2689329E-05 Eh
   gradient norm :     0.0069913 Eh/a0  converged?    E=T G=F D=T
   time step     :     0.1663750 fs     power     :   0.2109746E-09
   step length   :     0.0003784 a0     speed     :   0.5501765E-04

........................................................................
.............................. CYCLE   11 ..............................
........................................................................

 iter      E             dE          RMSdq      gap      omega  full diag
   1  -3772.0587786 -0.377206E+04  0.656E-05   11.38       0.0  T
   2  -3772.0587787 -0.136970E-08  0.389E-05   11.38      43.2  T
   3  -3772.0587787  0.177351E-10  0.107E-05   11.38     157.0  T
     SCC iter.                  ...        3 min, 23.497 sec
     gradient                   ...        4 min, 37.722 sec
 * total energy  : -3716.2350970 Eh     change    :  -0.3815526E-05 Eh
   gradient norm :     0.0066409 Eh/a0  converged?    E=T G=F D=T
   time step     :     0.1663750 fs     power     :   0.2963494E-09
   step length   :     0.0005598 a0     speed     :   0.8139426E-04

........................................................................
.............................. CYCLE   12 ..............................
........................................................................

 iter      E             dE          RMSdq      gap      omega  full diag
   1  -3772.0577416 -0.377206E+04  0.858E-05   11.38       0.0  T
   2  -3772.0577416 -0.220780E-08  0.509E-05   11.38      33.1  T
   3  -3772.0577416  0.591172E-11  0.138E-05   11.38     121.7  T
     SCC iter.                  ...        3 min, 25.023 sec
     gradient                   ...        4 min, 37.933 sec
 * total energy  : -3716.2351017 Eh     change    :  -0.4693501E-05 Eh
   gradient norm :     0.0061910 Eh/a0  converged?    E=T G=F D=T
   time step     :     0.1663750 fs     power     :   0.3608891E-09
   step length   :     0.0007321 a0     speed     :   0.1064384E-03

........................................................................
.............................. CYCLE   13 ..............................
........................................................................

 iter      E             dE          RMSdq      gap      omega  full diag
   1  -3772.0564874 -0.377206E+04  0.104E-04   11.38       0.0  T
   2  -3772.0564875 -0.321370E-08  0.619E-05   11.38      27.2  T
   3  -3772.0564875 -0.327418E-10  0.166E-05   11.38     101.3  T
     SCC iter.                  ...        3 min, 25.710 sec
     gradient                   ...        4 min, 38.078 sec
 * total energy  : -3716.2351070 Eh     change    :  -0.5274402E-05 Eh
   gradient norm :     0.0056576 Eh/a0  converged?    E=F G=F D=T
   time step     :     0.1663750 fs     power     :   0.4010537E-09
   step length   :     0.0008925 a0     speed     :   0.1297565E-03

........................................................................
.............................. CYCLE   14 ..............................
........................................................................

 iter      E             dE          RMSdq      gap      omega  full diag
   1  -3772.0550448 -0.377206E+04  0.121E-04   11.38       0.0  T
   2  -3772.0550448 -0.425234E-08  0.719E-05   11.38      23.4  T
   3  -3772.0550448 -0.186446E-10  0.190E-05   11.38      88.7  T
     SCC iter.                  ...        3 min, 25.594 sec
     gradient                   ...        4 min, 37.482 sec
 * total energy  : -3716.2351125 Eh     change    :  -0.5528966E-05 Eh
   gradient norm :     0.0050623 Eh/a0  converged?    E=F G=F D=F
   time step     :     0.1663750 fs     power     :   0.4153610E-09
   step length   :     0.0010386 a0     speed     :   0.1509943E-03

........................................................................
.............................. CYCLE   15 ..............................
........................................................................

 iter      E             dE          RMSdq      gap      omega  full diag
   1  -3772.0532707 -0.377205E+04  0.151E-04   11.38       0.0  T
   2  -3772.0532707 -0.648515E-08  0.894E-05   11.38      18.8  T
   3  -3772.0532707  0.909495E-12  0.233E-05   11.38      72.2  T
     SCC iter.                  ...        3 min, 27.563 sec
     gradient                   ...        4 min, 38.089 sec
 * total energy  : -3716.2351186 Eh     change    :  -0.6045071E-05 Eh
   gradient norm :     0.0043675 Eh/a0  converged?    E=F G=F D=F
   time step     :     0.1830125 fs     power     :   0.4019931E-09
   step length   :     0.0012994 a0     speed     :   0.1717359E-03

........................................................................
.............................. CYCLE   16 ..............................
........................................................................

 iter      E             dE          RMSdq      gap      omega  full diag
   1  -3772.0511579 -0.377205E+04  0.183E-04   11.38       0.0  T
   2  -3772.0511579 -0.921773E-08  0.109E-04   11.38      15.5  T
   3  -3772.0511579 -0.623004E-10  0.275E-05   11.38      61.2  T
     SCC iter.                  ...        3 min, 25.990 sec
     gradient                   ...        4 min, 38.377 sec
 * total energy  : -3716.2351247 Eh     change    :  -0.6123123E-05 Eh
   gradient norm :     0.0036231 Eh/a0  converged?    E=F G=F D=F
   time step     :     0.2013138 fs     power     :   0.3567261E-09
   step length   :     0.0015895 a0     speed     :   0.1909885E-03

........................................................................
.............................. CYCLE   17 ..............................
........................................................................

 iter      E             dE          RMSdq      gap      omega  full diag
   1  -3772.0487448 -0.377205E+04  0.216E-04   11.38       0.0  T
   2  -3772.0487448 -0.119139E-07  0.128E-04   11.38      13.1  T
   3  -3772.0487448 -0.133241E-09  0.310E-05   11.38      54.3  T
     SCC iter.                  ...        3 min, 23.878 sec
     gradient                   ...        4 min, 39.207 sec
 * total energy  : -3716.2351303 Eh     change    :  -0.5653305E-05 Eh
   gradient norm :     0.0029625 Eh/a0  converged?    E=F G=F D=F
   time step     :     0.2214451 fs     power     :   0.2814781E-09
   step length   :     0.0018982 a0     speed     :   0.2073444E-03

........................................................................
.............................. CYCLE   18 ..............................
........................................................................

 iter      E             dE          RMSdq      gap      omega  full diag
   1  -3772.0461594 -0.377205E+04  0.245E-04   11.38       0.0  T
   2  -3772.0461594 -0.138339E-07  0.146E-04   11.38      11.5  T
   3  -3772.0461594 -0.115506E-09  0.324E-05   11.38      51.9  T
     SCC iter.                  ...        3 min, 27.999 sec
     gradient                   ...        4 min, 39.904 sec
 * total energy  : -3716.2351349 Eh     change    :  -0.4612727E-05 Eh
   gradient norm :     0.0026388 Eh/a0  converged?    E=T G=F D=F
   time step     :     0.2435896 fs     power     :   0.1900775E-09
   step length   :     0.0022016 a0     speed     :   0.2186242E-03

........................................................................
.............................. CYCLE   19 ..............................
........................................................................

 iter      E             dE          RMSdq      gap      omega  full diag
   1  -3772.0436667 -0.377204E+04  0.265E-04   11.38       0.0  T
   2  -3772.0436667 -0.133127E-07  0.158E-04   11.38      10.7  T
   3  -3772.0436667 -0.167802E-09  0.302E-05   11.38      55.7  T
     SCC iter.                  ...        3 min, 29.977 sec
     gradient                   ...        4 min, 40.008 sec
 * total energy  : -3716.2351383 Eh     change    :  -0.3401170E-05 Eh
   gradient norm :     0.0028173 Eh/a0  converged?    E=T G=F D=F
   time step     :     0.2679486 fs     power     :   0.1116442E-09
   step length   :     0.0024575 a0     speed     :   0.2218526E-03

........................................................................
.............................. CYCLE   20 ..............................
........................................................................

 iter      E             dE          RMSdq      gap      omega  full diag
   1  -3772.0416115 -0.377204E+04  0.272E-04   11.38       0.0  T
   2  -3772.0416115 -0.100626E-07  0.162E-04   11.38      10.4  T
   3  -3772.0416115 -0.215095E-09  0.241E-05   11.38      69.6  T
     SCC iter.                  ...        3 min, 31.631 sec
     gradient                   ...        4 min, 38.633 sec
 * total energy  : -3716.2351410 Eh     change    :  -0.2672903E-05 Eh
   gradient norm :     0.0032666 Eh/a0  converged?    E=T G=F D=F
   time step     :     0.2947435 fs     power     :   0.7624554E-10
   step length   :     0.0026450 a0     speed     :   0.2170648E-03
 * RMSD in coord.:     0.0006648 a0     energy gain  -0.3600226E-03 Eh

........................................................................
.............................. CYCLE   21 ..............................
........................................................................

 iter      E             dE          RMSdq      gap      omega  full diag
   1  -3772.0405671 -0.377204E+04  0.209E-04   11.38       0.0  T
   2  -3772.0405671 -0.379669E-08  0.124E-04   11.38      13.6  T
   3  -3772.0405671 -0.927685E-10  0.133E-05   11.38     126.8  T
     SCC iter.                  ...        3 min, 24.595 sec
     gradient                   ...        4 min, 40.026 sec
 * total energy  : -3716.2351433 Eh     change    :  -0.2243530E-05 Eh
   gradient norm :     0.0035531 Eh/a0  converged?    E=T G=F D=F
   time step     :     0.2500000 fs     power     :   0.9663241E-10
   step length   :     0.0021398 a0     speed     :   0.2070362E-03

........................................................................
.............................. CYCLE   22 ..............................
........................................................................

 iter      E             dE          RMSdq      gap      omega  full diag
   1  -3772.0402206 -0.377204E+04  0.192E-04   11.38       0.0  T
   2  -3772.0402206 -0.221371E-08  0.113E-04   11.38      14.9  T
   3  -3772.0402206 -0.427463E-10  0.107E-05   11.38     157.1  T
     SCC iter.                  ...        3 min, 31.045 sec
     gradient                   ...        4 min, 40.547 sec
 * total energy  : -3716.2351461 Eh     change    :  -0.2870790E-05 Eh
   gradient norm :     0.0036256 Eh/a0  converged?    E=T G=F D=F
   time step     :     0.2500000 fs     power     :   0.1386705E-09
   step length   :     0.0020679 a0     speed     :   0.2000842E-03

........................................................................
.............................. CYCLE   23 ..............................
........................................................................

 iter      E             dE          RMSdq      gap      omega  full diag
   1  -3772.0405282 -0.377204E+04  0.185E-04   11.38       0.0  T
   2  -3772.0405282 -0.230057E-08  0.108E-04   11.38      15.6  T
   3  -3772.0405282 -0.146429E-09  0.131E-05   11.38     128.0  T
     SCC iter.                  ...        3 min, 31.582 sec
     gradient                   ...        4 min, 38.608 sec
 * total energy  : -3716.2351498 Eh     change    :  -0.3646408E-05 Eh
   gradient norm :     0.0034673 Eh/a0  converged?    E=T G=F D=F
   time step     :     0.2500000 fs     power     :   0.1809129E-09
   step length   :     0.0020453 a0     speed     :   0.1978979E-03

........................................................................
.............................. CYCLE   24 ..............................
........................................................................

 iter      E             dE          RMSdq      gap      omega  full diag
   1  -3772.0414210 -0.377204E+04  0.185E-04   11.38       0.0  T
   2  -3772.0414210 -0.385353E-08  0.107E-04   11.38      15.6  T
   3  -3772.0414210  0.313776E-10  0.182E-05   11.38      92.3  T
     SCC iter.                  ...        3 min, 32.196 sec
     gradient                   ...        4 min, 38.871 sec
 * total energy  : -3716.2351540 Eh     change    :  -0.4186172E-05 Eh
   gradient norm :     0.0031035 Eh/a0  converged?    E=T G=F D=F
   time step     :     0.2500000 fs     power     :   0.2069466E-09
   step length   :     0.0020679 a0     speed     :   0.2000809E-03

........................................................................
.............................. CYCLE   25 ..............................
........................................................................

 iter      E             dE          RMSdq      gap      omega  full diag
   1  -3772.0428120 -0.377204E+04  0.191E-04   11.38       0.0  T
   2  -3772.0428121 -0.591263E-08  0.110E-04   11.38      15.3  T
   3  -3772.0428121 -0.200089E-10  0.232E-05   11.38      72.6  T
     SCC iter.                  ...        3 min, 31.053 sec
     gradient                   ...        4 min, 39.070 sec
 * total energy  : -3716.2351583 Eh     change    :  -0.4319103E-05 Eh
   gradient norm :     0.0025905 Eh/a0  converged?    E=T G=F D=F
   time step     :     0.2500000 fs     power     :   0.2076433E-09
   step length   :     0.0021198 a0     speed     :   0.2051047E-03

........................................................................
.............................. CYCLE   26 ..............................
........................................................................

 iter      E             dE          RMSdq      gap      omega  full diag
   1  -3772.0447986 -0.377204E+04  0.217E-04   11.38       0.0  T
   2  -3772.0447986 -0.964519E-08  0.125E-04   11.38      13.4  T
   3  -3772.0447986 -0.263753E-10  0.299E-05   11.38      56.2  T
     SCC iter.                  ...        3 min, 24.625 sec
     gradient                   ...        4 min, 39.593 sec
 * total energy  : -3716.2351626 Eh     change    :  -0.4294424E-05 Eh
   gradient norm :     0.0019752 Eh/a0  converged?    E=T G=F D=F
   time step     :     0.2750000 fs     power     :   0.1775008E-09
   step length   :     0.0024134 a0     speed     :   0.2122808E-03

........................................................................
.............................. CYCLE   27 ..............................
........................................................................

 iter      E             dE          RMSdq      gap      omega  full diag
   1  -3772.0473089 -0.377205E+04  0.243E-04   11.38       0.0  T
   2  -3772.0473089 -0.133996E-07  0.140E-04   11.38      12.0  T
   3  -3772.0473089 -0.195996E-09  0.350E-05   11.38      48.0  T
     SCC iter.                  ...        3 min, 34.065 sec
     gradient                   ...        4 min, 39.700 sec
 * total energy  : -3716.2351662 Eh     change    :  -0.3598820E-05 Eh
   gradient norm :     0.0015482 Eh/a0  converged?    E=T G=F D=F
   time step     :     0.3025000 fs     power     :   0.1201605E-09
   step length   :     0.0027393 a0     speed     :   0.2190456E-03

........................................................................
.............................. CYCLE   28 ..............................
........................................................................

 iter      E             dE          RMSdq      gap      omega  full diag
   1  -3772.0500441 -0.377205E+04  0.252E-04   11.38       0.0  T
   2  -3772.0500441 -0.140085E-07  0.145E-04   11.38      11.6  T
   3  -3772.0500441 -0.121418E-09  0.350E-05   11.38      48.1  T
     SCC iter.                  ...        3 min, 25.954 sec
     gradient                   ...        4 min, 39.089 sec
 * total energy  : -3716.2351687 Eh     change    :  -0.2482293E-05 Eh
   gradient norm :     0.0017293 Eh/a0  converged?    E=T G=F D=F
   time step     :     0.3327500 fs     power     :   0.6176922E-10
   step length   :     0.0030325 a0     speed     :   0.2204470E-03

........................................................................
.............................. CYCLE   29 ..............................
........................................................................

 iter      E             dE          RMSdq      gap      omega  full diag
   1  -3772.0524815 -0.377205E+04  0.236E-04   11.38       0.0  T
   2  -3772.0524815 -0.937416E-08  0.136E-04   11.38      12.4  T
   3  -3772.0524815 -0.509317E-10  0.275E-05   11.38      61.2  T
     SCC iter.                  ...        3 min, 31.431 sec
     gradient                   ...        4 min, 39.809 sec
 * total energy  : -3716.2351704 Eh     change    :  -0.1791802E-05 Eh
   gradient norm :     0.0022227 Eh/a0  converged?    E=T G=F D=F
   time step     :     0.3660250 fs     power     :   0.3924378E-10
   step length   :     0.0032137 a0     speed     :   0.2123785E-03

........................................................................
.............................. CYCLE   30 ..............................
........................................................................

 iter      E             dE          RMSdq      gap      omega  full diag
   1  -3772.0542054 -0.377205E+04  0.209E-04   11.38       0.0  T
   2  -3772.0542054 -0.365935E-08  0.121E-04   11.38      13.9  T
   3  -3772.0542054 -0.663931E-10  0.158E-05   11.38     106.8  T
     SCC iter.                  ...        3 min, 31.926 sec
     gradient                   ...        4 min, 38.703 sec
 * total energy  : -3716.2351726 Eh     change    :  -0.2189303E-05 Eh
   gradient norm :     0.0025327 Eh/a0  converged?    E=T G=F D=F
   time step     :     0.4026275 fs     power     :   0.5926396E-10
   step length   :     0.0033654 a0     speed     :   0.2021871E-03

........................................................................
.............................. CYCLE   31 ..............................
........................................................................

 iter      E             dE          RMSdq      gap      omega  full diag
   1  -3772.0549286 -0.377205E+04  0.191E-04   11.38       0.0  T
   2  -3772.0549286 -0.112277E-08  0.113E-04   11.38      14.9  T
   3  -3772.0549286 -0.259206E-10  0.865E-06   11.38     194.5  T
     SCC iter.                  ...        3 min, 29.202 sec
     gradient                   ...        4 min, 38.725 sec
 * total energy  : -3716.2351762 Eh     change    :  -0.3560244E-05 Eh
   gradient norm :     0.0024444 Eh/a0  converged?    E=T G=F D=F
   time step     :     0.4428903 fs     power     :   0.9806254E-10
   step length   :     0.0036120 a0     speed     :   0.1972749E-03

........................................................................
.............................. CYCLE   32 ..............................
........................................................................

 iter      E             dE          RMSdq      gap      omega  full diag
   1  -3772.0545133 -0.377205E+04  0.201E-04   11.38       0.0  T
   2  -3772.0545133 -0.511318E-08  0.121E-04   11.38      13.9  T
   3  -3772.0545133  0.736691E-10  0.184E-05   11.38      91.2  T
     SCC iter.                  ...        3 min, 33.638 sec
     gradient                   ...        4 min, 38.912 sec
 * total energy  : -3716.2351811 Eh     change    :  -0.4935983E-05 Eh
   gradient norm :     0.0019598 Eh/a0  converged?    E=T G=F D=F
   time step     :     0.4871793 fs     power     :   0.1186125E-09
   step length   :     0.0040307 a0     speed     :   0.2001271E-03

........................................................................
.............................. CYCLE   33 ..............................
........................................................................

 iter      E             dE          RMSdq      gap      omega  full diag
   1  -3772.0531153 -0.377205E+04  0.228E-04   11.38       0.0  T
   2  -3772.0531153 -0.141222E-07  0.139E-04   11.38      12.1  T
   3  -3772.0531153  0.291038E-10  0.339E-05   11.38      49.7  T
     SCC iter.                  ...        3 min, 26.003 sec
     gradient                   ...        4 min, 40.022 sec
 * total energy  : -3716.2351862 Eh     change    :  -0.5064267E-05 Eh
   gradient norm :     0.0014815 Eh/a0  converged?    E=F G=F D=F
   time step     :     0.5358972 fs     power     :   0.9755256E-10
   step length   :     0.0046066 a0     speed     :   0.2079294E-03

........................................................................
.............................. CYCLE   34 ..............................
........................................................................

 iter      E             dE          RMSdq      gap      omega  full diag
   1  -3772.0515285 -0.377205E+04  0.233E-04   11.38       0.0  T
   2  -3772.0515285 -0.173377E-07  0.143E-04   11.38      11.8  T
   3  -3772.0515285 -0.140972E-09  0.374E-05   11.38      45.0  T
     SCC iter.                  ...        3 min, 25.440 sec
     gradient                   ...        4 min, 38.670 sec
 * total energy  : -3716.2351902 Eh     change    :  -0.4044314E-05 Eh
   gradient norm :     0.0017202 Eh/a0  converged?    E=T G=F D=F
   time step     :     0.5894869 fs     power     :   0.6247648E-10
   step length   :     0.0052064 a0     speed     :   0.2136383E-03

........................................................................
.............................. CYCLE   35 ..............................
........................................................................

 iter      E             dE          RMSdq      gap      omega  full diag
   1  -3772.0510496 -0.377205E+04  0.216E-04   11.38       0.0  T
   2  -3772.0510496 -0.787531E-08  0.132E-04   11.38      12.8  T
   3  -3772.0510496 -0.291038E-10  0.208E-05   11.38      80.7  T
     SCC iter.                  ...        3 min, 35.221 sec
     gradient                   ...        4 min, 39.652 sec
 * total energy  : -3716.2351943 Eh     change    :  -0.4088641E-05 Eh
   gradient norm :     0.0020570 Eh/a0  converged?    E=T G=F D=F
   time step     :     0.6484356 fs     power     :   0.6760554E-10
   step length   :     0.0056919 a0     speed     :   0.2123284E-03

........................................................................
.............................. CYCLE   36 ..............................
........................................................................

 iter      E             dE          RMSdq      gap      omega  full diag
   1  -3772.0525211 -0.377205E+04  0.257E-04   11.38       0.0  T
   2  -3772.0525211 -0.299860E-08  0.151E-04   11.38      11.1  T
   3  -3772.0525211 -0.106411E-09  0.149E-05   11.38     112.7  T
     SCC iter.                  ...        3 min, 22.743 sec
     gradient                   ...        4 min, 37.926 sec
 * total energy  : -3716.2352001 Eh     change    :  -0.5792667E-05 Eh
   gradient norm :     0.0017991 Eh/a0  converged?    E=F G=F D=F
   time step     :     0.7132792 fs     power     :   0.9502770E-10
   step length   :     0.0063087 a0     speed     :   0.2139412E-03

........................................................................
.............................. CYCLE   37 ..............................
........................................................................

 iter      E             dE          RMSdq      gap      omega  full diag
   1  -3772.0559251 -0.377206E+04  0.341E-04   11.38       0.0  T
   2  -3772.0559251 -0.144992E-07  0.198E-04   11.38       8.5  T
   3  -3772.0559251 -0.909495E-11  0.351E-05   11.38      47.9  T
     SCC iter.                  ...        3 min, 26.161 sec
     gradient                   ...        4 min, 40.402 sec
 * total energy  : -3716.2352067 Eh     change    :  -0.6547350E-05 Eh
   gradient norm :     0.0013498 Eh/a0  converged?    E=F G=F D=F
   time step     :     0.7846071 fs     power     :   0.8447530E-10
   step length   :     0.0072190 a0     speed     :   0.2225558E-03

........................................................................
.............................. CYCLE   38 ..............................
........................................................................

 iter      E             dE          RMSdq      gap      omega  full diag
   1  -3772.0594797 -0.377206E+04  0.336E-04   11.38       0.0  T
   2  -3772.0594797 -0.182763E-07  0.196E-04   11.38       8.6  T
   3  -3772.0594797 -0.394721E-09  0.375E-05   11.38      44.8  T
     SCC iter.                  ...        3 min, 29.116 sec
     gradient                   ...        4 min, 37.990 sec
 * total energy  : -3716.2352122 Eh     change    :  -0.5575627E-05 Eh
   gradient norm :     0.0017007 Eh/a0  converged?    E=F G=F D=F
   time step     :     0.8630678 fs     power     :   0.6017105E-10
   step length   :     0.0082038 a0     speed     :   0.2299241E-03

........................................................................
.............................. CYCLE   39 ..............................
........................................................................

 iter      E             dE          RMSdq      gap      omega  full diag
   1  -3772.0605264 -0.377206E+04  0.268E-04   11.38       0.0  T
   2  -3772.0605264 -0.790578E-08  0.157E-04   11.38      10.7  T
   3  -3772.0605264 -0.435193E-09  0.271E-05   11.38      62.2  T
     SCC iter.                  ...        3 min, 23.438 sec
     gradient                   ...        4 min, 38.306 sec
 * total energy  : -3716.2352190 Eh     change    :  -0.6735475E-05 Eh
   gradient norm :     0.0016475 Eh/a0  converged?    E=F G=F D=F
   time step     :     0.9493746 fs     power     :   0.7946789E-10
   step length   :     0.0091123 a0     speed     :   0.2321693E-03

........................................................................
.............................. CYCLE   40 ..............................
........................................................................

 iter      E             dE          RMSdq      gap      omega  full diag
   1  -3772.0584322 -0.377206E+04  0.336E-04   11.38       0.0  T
   2  -3772.0584322 -0.232258E-07  0.200E-04   11.38       8.4  T
   3  -3772.0584322  0.173713E-09  0.488E-05   11.38      34.5  T
     SCC iter.                  ...        3 min, 29.780 sec
     gradient                   ...        4 min, 36.839 sec
 * total energy  : -3716.2352268 Eh     change    :  -0.7769646E-05 Eh
   gradient norm :     0.0013267 Eh/a0  converged?    E=F G=F D=F
   time step     :     1.0443120 fs     power     :   0.7143148E-10
   step length   :     0.0103932 a0     speed     :   0.2407316E-03

........................................................................
.............................. CYCLE   41 ..............................
........................................................................

 iter      E             dE          RMSdq      gap      omega  full diag
   1  -3772.0566053 -0.377206E+04  0.355E-04   11.38       0.0  T
   2  -3772.0566053 -0.144269E-07  0.211E-04   11.38       8.0  T
   3  -3772.0566053 -0.468390E-10  0.316E-05   11.38      53.3  T
     SCC iter.                  ...        3 min, 24.205 sec
     gradient                   ...        4 min, 38.303 sec
 * total energy  : -3716.2352341 Eh     change    :  -0.7319936E-05 Eh
   gradient norm :     0.0016131 Eh/a0  converged?    E=F G=F D=F
   time step     :     1.1487432 fs     power     :   0.6326395E-10
   step length   :     0.0117660 a0     speed     :   0.2477545E-03

........................................................................
.............................. CYCLE   42 ..............................
........................................................................

 iter      E             dE          RMSdq      gap      omega  full diag
   1  -3772.0587028 -0.377206E+04  0.398E-04   11.38       0.0  T
   2  -3772.0587028 -0.196924E-07  0.231E-04   11.38       7.3  T
   3  -3772.0587028 -0.129148E-09  0.447E-05   11.38      37.7  T
     SCC iter.                  ...        3 min, 35.701 sec
     gradient                   ...        4 min, 38.641 sec
 * total energy  : -3716.2352429 Eh     change    :  -0.8804310E-05 Eh
   gradient norm :     0.0012511 Eh/a0  converged?    E=F G=F D=F
   time step     :     1.2500000 fs     power     :   0.6914345E-10
   step length   :     0.0131325 a0     speed     :   0.2541284E-03
 * RMSD in coord.:     0.0016773 a0     energy gain  -0.1018611E-03 Eh

........................................................................
.............................. CYCLE   43 ..............................
........................................................................

 iter      E             dE          RMSdq      gap      omega  full diag
   1  -3772.0591858 -0.377206E+04  0.676E-05   11.38       0.0  T
   2  -3772.0591858 -0.456112E-09  0.397E-05   11.38      42.3  T
   3  -3772.0591858  0.773070E-11  0.641E-06   11.38     262.3  T
     SCC iter.                  ...        3 min, 27.867 sec
     gradient                   ...        4 min, 38.727 sec
 * total energy  : -3716.2352444 Eh     change    :  -0.1528205E-05 Eh
   gradient norm :     0.0012438 Eh/a0  converged?    E=T G=F D=F
   time step     :     0.2500000 fs     power     :   0.7787778E-10
   step length   :     0.0025160 a0     speed     :   0.2434383E-03

........................................................................
.............................. CYCLE   44 ..............................
........................................................................

 iter      E             dE          RMSdq      gap      omega  full diag
   1  -3772.0596426 -0.377206E+04  0.639E-05   11.38       0.0  T
   2  -3772.0596426 -0.670298E-09  0.374E-05   11.38      44.9  T
   3  -3772.0596426  0.300133E-10  0.801E-06   11.38     210.1  T
     SCC iter.                  ...        3 min, 24.573 sec
     gradient                   ...        4 min, 38.263 sec
 * total energy  : -3716.2352461 Eh     change    :  -0.1653315E-05 Eh
   gradient norm :     0.0011621 Eh/a0  converged?    E=T G=F D=F
   time step     :     0.2500000 fs     power     :   0.8456769E-10
   step length   :     0.0024335 a0     speed     :   0.2354536E-03

........................................................................
.............................. CYCLE   45 ..............................
........................................................................

 iter      E             dE          RMSdq      gap      omega  full diag
   1  -3772.0600043 -0.377206E+04  0.705E-05   11.38       0.0  T
   2  -3772.0600043 -0.678938E-09  0.415E-05   11.38      40.6  T
   3  -3772.0600043 -0.441105E-10  0.798E-06   11.38     210.7  T
     SCC iter.                  ...        3 min, 29.066 sec
     gradient                   ...        4 min, 39.753 sec
 * total energy  : -3716.2352478 Eh     change    :  -0.1714083E-05 Eh
   gradient norm :     0.0010418 Eh/a0  converged?    E=T G=F D=F
   time step     :     0.2500000 fs     power     :   0.8630144E-10
   step length   :     0.0023796 a0     speed     :   0.2302360E-03

........................................................................
.............................. CYCLE   46 ..............................
........................................................................

 iter      E             dE          RMSdq      gap      omega  full diag
   1  -3772.0602259 -0.377206E+04  0.791E-05   11.38       0.0  T
   2  -3772.0602259 -0.659384E-09  0.465E-05   11.38      36.2  T
   3  -3772.0602259  0.363798E-10  0.783E-06   11.38     214.7  T
     SCC iter.                  ...        3 min, 24.403 sec
     gradient                   ...        4 min, 40.569 sec
 * total energy  : -3716.2352494 Eh     change    :  -0.1669846E-05 Eh
   gradient norm :     0.0009434 Eh/a0  converged?    E=T G=T D=F
   time step     :     0.2500000 fs     power     :   0.8333230E-10
   step length   :     0.0023486 a0     speed     :   0.2272395E-03

   *** GEOMETRY OPTIMIZATION CONVERGED AFTER 46 CYCLES ***

------------------------------------------------------------------------
 total energy gain   :        -0.0004684 Eh       -0.2940 kcal/mol
 total RMSD          :         0.0021291 a0        0.0011 Å
 total power (kW/mol):        -0.0267372 (step)   -0.0001 (real)
------------------------------------------------------------------------

 FIRE (total)                  0 d,  6 h, 30 min, 15.999 sec
 setup                          ...        0 min,  0.139 sec (  0.001%)
 velocities                     ...        0 min,  0.003 sec (  0.000%)
 propagation                    ...        0 min,  0.005 sec (  0.000%)
 singlepoint calculation        ...      390 min, 15.058 sec ( 99.996%)
 log and printout               ...        0 min,  0.731 sec (  0.003%)
 preconditioner                 ...        0 min,  0.000 sec (  0.000%)
 model hessian                  ...        0 min,  0.000 sec (  0.000%)
 hessian update                 ...        0 min,  0.000 sec (  0.000%)

================
 final structure:
================
3536
 xtb: 6.6.1 (8d0f1dd)
C           56.34911264107306       76.45036331268669       57.75594259649204
C           57.76785766959010       75.89767679457026       57.64231796395572
C           58.34519835690788       76.23578255506928       56.26763712541196
C           57.80709198166343       74.37870193117418       57.84073598930465
C           57.37648048011290       73.85735880633862       59.21836312242402
C           58.35388114448227       74.29481205692626       60.30575198426321
C           57.26950479122839       72.32761503683908       59.13927656905892
C           56.77257505108943       71.60066970692942       60.39817516479496
C           56.81609841972723       70.09563135808033       60.13999288333547
C           55.35785408072543       72.05338526742257       60.77305740031328
C           54.75786673596549       71.46868946857211       62.06155912568635
C           53.33377381611669       72.00797023619116       62.19507237113955
C           55.64136941754772       71.80872904562392       63.26943254273219
C           55.07291308984748       71.42905095192894       64.64939311485132
C           54.45686709997174       72.64364914192520       65.34365834999669
C           56.17078973155557       70.82693289312540       65.54203563441013
C           56.36467927085737       69.31787785916086       65.32346145824211
C           55.31912066666418       68.55573484673992       66.13580728164656
C           57.79098098061681       68.91231140131914       65.71394028935948
C           58.15353461003895       67.43297871939319       65.50851057025122
C           59.46246732259539       67.14851447742873       66.24458074006454
C           58.26703710853642       67.07959092722068       64.01560071535519
C           57.76100117451206       65.68777530169432       63.59730789132136
C           56.27157430010899       65.52406204086772       63.89525078055485
C           58.57906371189203       64.55010269407992       64.21721697569788
C           58.40328161821354       63.19116507855824       63.51573096568276
C           58.60107820738550       62.05918972220723       64.52203947882440
C           59.39022582760695       63.05308671314561       62.34939798943067
C           59.03440509675715       61.95346214697957       61.33778600395713
C           60.28379867876991       61.55378117846465       60.55308998236485
C           57.92661007166330       62.41668546204573       60.38370508627229
C           57.19447249954574       61.26290835509229       59.68423483982973
C           56.46406929312883       61.79679623018112       58.45167121503300
C           56.21720864159551       60.55409495428195       60.64204617713165
C           56.32201904075923       59.02483914820350       60.65869866140556
C           56.09080145778546       58.43112631728485       59.26930114899052
C           55.29214189827476       58.39316288889967       61.60733142488139
C           55.32401924409222       58.80574763195796       63.08341435758771
C           56.59675856918128       58.32160194664282       63.77277868948524
C           54.08865436729319       58.22669495852400       63.79235929776869
C           52.81267751778913       59.04761420118758       63.55690704655499
C           52.69317130658926       60.14443703659936       64.61496168947309
C           51.54944996492482       58.17730475402227       63.57864582598429
C           51.33619005509551       57.26932637539755       62.35773319892730
C           51.10081921350973       58.09258022820720       61.09410220982957
C           50.13414726662673       56.35247980220242       62.62918322756543
C           49.92369103059098       55.22938185869496       61.60644569581179
C           48.49774776515714       54.69134133575843       61.71293373307744
C           50.93428113532141       54.08903457144982       61.79936030612910
C           51.38111879580632       53.45023738957762       60.47849448442942
C           51.94716215962444       52.05468357915553       60.72921657460367
C           52.42111116996475       54.34873128860939       59.79630504265714
C           52.61540175768304       54.09691941191943       58.29634438058375
C           53.92264258196820       54.74268700544208       57.84191502616620
C           51.43590374128775       54.63820436453397       57.47630803045720
C           51.25338835923210       53.95257775569312       56.10811466355101
C           51.62717242743899       54.89792852640947       54.96455841263004
C           49.81331409240611       53.46128368732128       55.89363541667227
C           49.32720686989571       52.37052026580565       56.85458332608256
C           50.09905459562811       51.06672207980326       56.64671740731876
C           47.82912537428378       52.08342658500540       56.66670131047366
C           46.85555470203970       53.25358609658601       56.87609563645358
C           47.16148535209708       54.04746322911150       58.14503183363150
C           45.41086780777576       52.73937207548860       56.98560035095947
C           44.84629726007591       51.99733251343615       55.76694228201338
C           44.62913939121801       52.96279091742686       54.60658335841182
C           43.53066936842682       51.31826291853935       56.17559369869069
C           42.87567267484916       50.38314719222086       55.14520385246659
C           41.36647790256865       50.34853662498809       55.40366024782449
C           43.41509109613592       48.94374147061087       55.19545024514386
C           44.73402799950716       48.67373527164666       54.46151170551017
C           44.57199284676063       48.86633196180706       52.95427572109356
C           45.22291130960426       47.24173978988861       54.72677577195059
C           45.70748641452371       46.94258699849490       56.15073539197783
C           46.87685583038835       47.84757416849585       56.54241421406415
C           46.16154690729530       45.48010043131141       56.27728830799244
C           45.10800914454587       44.39968070291201       55.99580338277314
C           43.92653198157134       44.51952402938430       56.95500987627093
C           45.77553519426620       43.02184854009727       56.11163989597383
C           44.98300431309760       41.85111448363455       55.51613692227446
C           45.69820830274827       40.54361241167136       55.85844453867762
C           44.80831742788573       41.98958367046838       53.99128395184540
C           43.36257311061044       42.25393518947472       53.55207547700635
C           42.53478423250604       40.97415535186600       53.65942996664686
C           43.31271691598503       42.78492328552402       52.11154405673956
C           43.64773534154577       44.27647665656441       51.98458252843719
C           42.47669095050598       45.14398365427711       52.44310980835064
C           44.09125961931201       44.64033588429249       50.56048716291992
C           43.05783886473155       44.39219683467119       49.46446758281392
C           43.60462950728011       44.78974081954694       48.09775395603397
H           55.68872493076989       75.94277917175924       57.05564109912221
H           55.95424880053883       76.31967643653353       58.76005466396695
H           56.33896784437538       77.51396340443638       57.52752139320204
H           42.86274513262470       44.61531019725889       47.32184093265135
H           43.87130018159787       45.84468327115768       48.08599206212222
H           44.49376310829177       44.21049995490490       47.85708014652153
H           44.37038551034241       45.69677636428531       50.54339164794416
H           44.98935337133115       44.06429651409383       50.32321163430708
H           44.01061634376550       42.20160111375223       51.50547251182833
H           42.31162354607029       42.61855433831765       51.70935579668980
H           42.92241086236977       43.00206772613564       54.21783275376183
H           41.48810766293052       41.17261188543827       53.43805843691727
H           42.89922094989684       40.22958037629191       52.95406534167803
H           42.59623875343383       40.55423317522236       54.66054667464467
H           45.44910918201273       42.79436681312905       53.63135379583615
H           45.14740498301494       41.07481336350577       53.50034046124852
H           46.74450558844814       43.05506313090321       55.60861015257098
H           45.96402467033779       42.81779327452700       57.16883366004165
H           44.50248700337295       44.49699622771844       52.63497998975470
H           41.57300669811102       44.90137577673826       51.88978775168533
H           42.27317871188826       44.99181638599576       53.50066725552063
H           42.70206574486637       46.19714964897754       52.28957266119969
H           43.99636991928626       41.82145968201806       55.98715700343654
H           46.69400187935051       40.53218066607292       55.41953285947106
H           45.79829418293501       40.42900151125932       56.93599732448723
H           45.14303840953086       39.69040737183873       55.47528297293795
H           44.74167347296213       44.51818161296468       54.97389850587027
H           43.22692135916881       43.70035112516161       56.80975277698898
H           44.27137112384344       44.49432554019499       57.98712927048123
H           43.38688137783232       45.44939731542843       56.79327873334353
H           47.00566626660142       45.32967204160111       55.59794784843103
H           46.53270922087877       45.32549689542803       57.29466941050095
H           44.89183922047652       47.11482739864095       56.85808894657116
H           47.29718024953065       47.53333899043956       57.49508665064110
H           47.66365091374072       47.79948968628550       55.79237978835907
H           46.55906996732397       48.88165756430516       56.64449982316399
H           44.40724465334187       46.56222551951680       54.47603419768051
H           46.05023956531113       47.02961754738531       54.04360647571514
H           45.49508114440453       49.37243397923825       54.80967130593703
H           45.49190835045316       48.60732600105020       52.43539030446155
H           43.77247045113587       48.23551325395898       52.57111415129179
H           44.33681548878433       49.89904490914860       52.71438203907088
H           43.52467232964820       48.66123172165427       56.24422069894696
H           42.66162955320216       48.28022909022553       54.76142610722304
H           43.02416540231065       50.78887559876936       54.14346170259203
H           40.94087641967521       51.34784936369149       55.33819274710391
H           40.86336366173648       49.71909486684988       54.67267760491274
H           41.15986112073747       49.95325964076566       56.39643619655841
H           43.69784980355935       50.75163614574888       57.09543732750802
H           42.82197021459569       52.11477194750746       56.41791001704112
H           45.56142577410422       51.23291637462427       55.45917917147062
H           45.55059965279429       53.48831873462706       54.36983078597854
H           44.30390733271199       52.43521076209166       53.71478773913565
H           43.87134962002193       53.69956900656420       54.86399700021170
H           45.36237389525824       52.07635310054999       57.85331045559239
H           44.75619931156121       53.58959178613977       57.19565355065234
H           46.92642692321144       53.93483470115707       56.02317609972636
H           48.13396154021235       54.52697450380652       58.09443267891265
H           46.41453721182558       54.82515418751865       58.28730366904762
H           47.13781703743136       53.39284195100483       59.01198474397719
H           47.69310162821469       51.69538666080502       55.65489279328602
H           47.55633562162065       51.28741291447611       57.36478771438158
H           49.49142008008540       52.68954919488523       57.88635744611173
H           50.00849483348746       50.72887608766715       55.61681390385898
H           51.15343092620230       51.19462289299887       56.87692570424795
H           49.70690416607447       50.28567254037756       57.29497492325630
H           49.15166348551571       54.32649925089535       55.96467794227452
H           49.73052475640585       53.07309729459113       54.87645243402949
H           51.92372396041398       53.08983583642956       56.05465718635794
H           52.63999360477183       55.27343178089372       55.08709895115094
H           51.56809080715132       54.38435591132750       54.00667333447730
H           50.94837701949145       55.74841522934562       54.93535118288639
H           50.52391143549085       54.51857771713369       58.05982771778577
H           51.57698144445821       55.71139161949092       57.33150511087869
H           52.68730298349962       53.01697608515227       58.13414354348199
H           54.76498593757552       54.33175610789228       58.39427285365379
H           54.09188051298135       54.57025561300686       56.78329122752819
H           53.89396605870429       55.81664293090307       58.01696020298828
H           52.14481904961190       55.39560258021313       59.93093178328040
H           53.37674257246788       54.19962856049104       60.30523674707710
H           50.50425601409156       53.34639318740244       59.83220431920120
H           52.77836841410902       52.10443886618576       61.42902430975748
H           51.18327566081546       51.40308441497484       61.14873465137582
H           52.30079369238069       51.60552128412572       59.80414208105856
H           51.82270937047691       54.45881277380175       62.31243884649499
H           50.48551597975884       53.32703213834365       62.43954220911544
H           50.04195477779682       55.64089682200625       60.60104231027249
H           48.29468244941327       54.36347231788847       62.73031542555115
H           47.77151943440678       55.45747898424784       61.44796244772014
H           48.36179074893053       53.84664706102097       61.04227970681873
H           50.24540744308765       55.89758210041136       63.61617491802035
H           49.23744377288622       56.97575291760067       62.65575799797481
H           52.22962746742819       56.65472875712435       62.20923351066393
H           51.93314184472604       58.76217511660307       60.90116669685167
H           50.98826582079894       57.45414097607325       60.22180329242673
H           50.19775111596103       58.68868529252956       61.19836834605472
H           51.58181479584157       57.55827222406653       64.47889997564278
H           50.67975364319496       58.83315367721236       63.66426917638356
H           52.88287541967549       59.53825902452079       62.58336031637951
H           51.86435750882405       60.81042603747120       64.38386561876668
H           52.51733150591741       59.70810058051092       65.59656178957756
H           53.60627856262334       60.73392135486725       64.65894076869287
H           53.94610436225098       57.20180069377972       63.44661623099254
H           54.27602510880333       58.17965722177964       64.86693010697356
H           55.28381734337493       59.89622634608234       63.16076265400896
H           56.64289176503458       57.23494491393151       63.75846089425688
H           57.48354417919884       58.70793360787270       63.27637439226012
H           56.61400377151872       58.65526394598477       64.80857626678124
H           54.30069493879179       58.61619389493709       61.20739808577907
H           55.41531395991221       57.30709915204042       61.56350497425923
H           57.33192240642221       58.75167147880677       60.98475913507693
H           55.09173195336253       58.67787155483673       58.91549773075001
H           56.81097729925031       58.81013009969928       58.55125261950762
H           56.18279588481093       57.34701704140887       59.29833995918155
H           56.39441809235819       60.91662116959472       61.65493348725646
H           55.19621232772008       60.82761955443759       60.37283867801877
H           57.94655139153873       60.54301578583213       59.34820838519791
H           57.17045180868150       62.22612030171994       57.74360514322971
H           55.92065591088064       61.00233078621762       57.94749584846510
H           55.75426770042533       62.57003293238777       58.73991016577908
H           57.19240512725644       63.01582927476473       60.92656159276786
H           58.37462921109259       63.06478889177868       59.62796184797839
H           58.68237188227167       61.07304152903228       61.88320804695867
H           61.02915405333631       61.12138182835378       61.21535535947848
H           60.04941133006956       60.81881094943081       59.78668142149825
H           60.72322131050819       62.42354533546325       60.06844809472741
H           59.45682037190859       64.00366697451956       61.81501950597712
H           60.37886480475892       62.84635432001098       62.76613647363538
H           57.38312316356788       63.11967815708453       63.12873726178810
H           57.84373628843994       62.10784707832551       65.30073180538909
H           58.52264329835325       61.08886019170161       64.03854364498237
H           59.58228995598709       62.12983864272349       64.98722109411281
H           59.63796049130632       64.81521417427284       64.18315605535136
H           58.29251249913516       64.44925917772821       65.26387217574839
H           57.88452657124873       65.63865371974290       62.51043817703088
H           55.71797424937068       66.39398134947497       63.54919825178899
H           55.87005178404256       64.64655353517279       63.39493070441669
H           56.09589154875736       65.40575591898182       64.96084736366379
H           57.70198394633073       67.81132572362665       63.43500394007097
H           59.31116921857296       67.17260629699091       63.70817626598014
H           57.37437998816177       66.82225192722785       65.96576248659160
H           59.35177609162427       67.34085774586244       67.30904420623885
H           59.76916404933466       66.11615864139605       66.11595472770453
H           60.25359753848802       67.79417822346254       65.86697551080361
H           58.49699367694021       69.52029453574875       65.14170983927352
H           57.93242683498617       69.15932653497039       66.76969046822181
H           56.20950271885577       69.10158631834877       64.26152380380201
H           54.33026237449021       68.97303335286581       65.96120025554858
H           55.29042716102269       67.50450203251985       65.86546171536030
H           55.53719171677502       68.63493837421974       67.19901387514915
H           57.10677077898261       71.35730156964044       65.35360595598438
H           55.91774156539542       70.99033547877464       66.59177331048778
H           54.29174562974794       70.67478530613955       64.51505760157403
H           55.22832335552558       73.37764643078316       65.56931774333961
H           53.70722711286830       73.11698978932037       64.71633569373643
H           53.98243455893924       72.35006911640062       66.27821894705001
H           56.59006226410024       71.28708327594684       63.13459751275248
H           55.85458624603810       72.88034178524634       63.25936831534266
H           54.69446106810029       70.37920094733886       61.97481467273568
H           53.34343099081785       73.09009409456759       62.30843024620641
H           52.76333327913348       71.76796172848969       61.29948462913244
H           52.81893666328325       71.57240130794321       63.04667161158144
H           55.35490556322672       73.13923510008375       60.88297876999016
H           54.69173170854634       71.80773272947084       59.94228298194227
H           57.45651788476031       71.82468436759486       61.21946208095989
H           56.10200539054198       69.82528239516098       59.36467079188657
H           57.80660157724936       69.79469764437728       59.80769636477569
H           56.57784296530108       69.53638982723861       61.04050524902510
H           56.60008795031393       72.07496530521497       58.31380072416730
H           58.25830716749460       71.93373355592377       58.89050325010059
H           56.38977059506510       74.26632708392930       59.44722824598255
H           58.42160618478206       75.37853190529259       60.35205719331944
H           58.03223454184083       73.94167954607677       61.28210035569229
H           59.34752616099869       73.89869765026457       60.10430910460823
H           57.15856632892472       73.92812816126273       57.08589635009256
H           58.82576083893609       74.03363016530807       57.64626095032613
H           58.39341007287317       76.38045129847927       58.39961964818066
H           59.36282740509928       75.86310724793428       56.17387282663794
H           57.74247948808778       75.78335111414745       55.48256912304300
H           58.35931894142681       77.31189863718106       56.11040747922389
H           42.78365350476622       43.33632279776589       49.44692283428666
H           42.15594568655504       44.97143340844846       49.66720369279041
C           54.75364470642321       60.96210415200409       54.19931585188243
C           53.78905495956474       60.83047535375887       53.02161571979295
C           53.12428588593558       62.17921725501720       52.75522305751100
C           52.75190821547778       59.73982034583404       53.31869923296993
C           51.89120403658014       59.30377507084977       52.11869123423779
C           50.43287177062918       59.16345682206824       52.55470660305279
C           52.35329294449053       57.97236293997969       51.51110480386637
C           53.74807720758554       57.97584471157329       50.87881396687287
C           53.81396824060129       58.94313397691877       49.69775182468725
C           54.13927615336045       56.57895825582331       50.37011009407507
C           54.13755482673688       55.44692525867649       51.40303870270066
[...]
  3284   6 C     3286   6 C                                       1.5362214
  3286   6 C     3287   6 C                                       1.5370982
  3287   6 C     3288   6 C                                       1.5271088
  3287   6 C     3289   6 C                                       1.5351662
  3289   6 C     3290   6 C                                       1.5361830
  3290   6 C     3291   6 C                                       1.5297258
  3290   6 C     3292   6 C                                       1.5345186
  3293   6 C     3294   6 C                                       1.5299895
  3293   6 C     3295   6 C                                       1.5346895
  3295   6 C     3296   6 C                                       1.5311925
  3296   6 C     3297   6 C                                       1.5293683
  3296   6 C     3298   6 C                                       1.5350831
  3298   6 C     3299   6 C                                       1.5333961
  3299   6 C     3300   6 C                                       1.5287889
  3299   6 C     3301   6 C                                       1.5361648
  3301   6 C     3302   6 C                                       1.5330184
  3302   6 C     3303   6 C                                       1.5280559
  3302   6 C     3304   6 C                                       1.5365043
  3304   6 C     3305   6 C                                       1.5323275
  3305   6 C     3306   6 C                                       1.5286459
  3305   6 C     3307   6 C                                       1.5351026
  3307   6 C     3308   6 C                                       1.5324534
  3308   6 C     3309   6 C                                       1.5284447
  3308   6 C     3310   6 C                                       1.5350168
  3310   6 C     3311   6 C                                       1.5350619
  3311   6 C     3312   6 C                                       1.5247352
  3311   6 C     3313   6 C                                       1.5355465
  3313   6 C     3314   6 C                                       1.5360842
  3314   6 C     3315   6 C                                       1.5276513
  3314   6 C     3316   6 C                                       1.5315325
  3316   6 C     3317   6 C                                       1.5362170
  3317   6 C     3318   6 C                                       1.5308437
  3317   6 C     3319   6 C                                       1.5384518
  3319   6 C     3320   6 C                                       1.5360534
  3320   6 C     3321   6 C                                       1.5272280
  3322   6 C     3323   6 C                                       1.5346605
  3323   6 C     3324   6 C                                       1.5273551
  3323   6 C     3325   6 C                                       1.5316822
  3325   6 C     3326   6 C                                       1.5347122
  3326   6 C     3327   6 C                                       1.5281701
  3326   6 C     3328   6 C                                       1.5331074
  3329   6 C     3330   6 C                                       1.5281704
  3329   6 C     3331   6 C                                       1.5335818
  3331   6 C     3332   6 C                                       1.5335038
  3332   6 C     3333   6 C                                       1.5288002
  3332   6 C     3334   6 C                                       1.5367358
  3334   6 C     3335   6 C                                       1.5310387
  3335   6 C     3336   6 C                                       1.5277256
  3335   6 C     3337   6 C                                       1.5368597
  3337   6 C     3338   6 C                                       1.5345477
  3338   6 C     3339   6 C                                       1.5280644
  3338   6 C     3340   6 C                                       1.5386607
  3340   6 C     3341   6 C                                       1.5381403
  3341   6 C     3342   6 C                                       1.5272101
  3341   6 C     3343   6 C                                       1.5355226
  3343   6 C     3344   6 C                                       1.5368874
  3344   6 C     3345   6 C                                       1.5291876
  3344   6 C     3346   6 C                                       1.5323997
  3346   6 C     3347   6 C                                       1.5351078
  3347   6 C     3348   6 C                                       1.5291802
  3349   6 C     3350   6 C                                       1.5337230
  3350   6 C     3351   6 C                                       1.5281959
  3350   6 C     3352   6 C                                       1.5339041
  3352   6 C     3353   6 C                                       1.5268152
  3353   6 C     3354   6 C                                       1.5225646
  3265   6 C     3355   1 H                                       1.0875772
  3265   6 C     3356   1 H                                       1.0882611
  3265   6 C     3357   1 H                                       1.0878521
  3354   6 C     3358   1 H                                       1.0871702
  3354   6 C     3359   1 H                                       1.0878060
  3354   6 C     3360   1 H                                       1.0882058
  3352   6 C     3361   1 H                                       1.0929979
  3352   6 C     3362   1 H                                       1.0928102
  3349   6 C     3363   1 H                                       1.0904825
  3349   6 C     3364   1 H                                       1.0923697
  3347   6 C     3365   1 H                                       1.0930735
  3348   6 C     3366   1 H                                       1.0877877
  3348   6 C     3367   1 H                                       1.0876013
  3348   6 C     3368   1 H                                       1.0879469
  3346   6 C     3369   1 H                                       1.0914461
  3346   6 C     3370   1 H                                       1.0935222
  3343   6 C     3371   1 H                                       1.0937254
  3343   6 C     3372   1 H                                       1.0932252
  3350   6 C     3373   1 H                                       1.0948431
  3351   6 C     3374   1 H                                       1.0880540
  3351   6 C     3375   1 H                                       1.0884004
  3351   6 C     3376   1 H                                       1.0872346
  3344   6 C     3377   1 H                                       1.0925507
  3345   6 C     3378   1 H                                       1.0864206
  3345   6 C     3379   1 H                                       1.0873286
  3345   6 C     3380   1 H                                       1.0871021
  3341   6 C     3381   1 H                                       1.0921872
  3342   6 C     3382   1 H                                       1.0865569
  3342   6 C     3383   1 H                                       1.0885140
  3342   6 C     3384   1 H                                       1.0870440
  3340   6 C     3385   1 H                                       1.0928744
  3340   6 C     3386   1 H                                       1.0921197
  3338   6 C     3387   1 H                                       1.0938251
  3339   6 C     3388   1 H                                       1.0869780
  3339   6 C     3389   1 H                                       1.0866964
  3339   6 C     3390   1 H                                       1.0880725
  3337   6 C     3391   1 H                                       1.0918062
  3337   6 C     3392   1 H                                       1.0939249
  3335   6 C     3393   1 H                                       1.0931664
  3336   6 C     3394   1 H                                       1.0883565
  3336   6 C     3395   1 H                                       1.0862068
  3336   6 C     3396   1 H                                       1.0870763
  3334   6 C     3397   1 H                                       1.0909612
  3334   6 C     3398   1 H                                       1.0919180
  3332   6 C     3399   1 H                                       1.0926766
  3333   6 C     3400   1 H                                       1.0875924
  3333   6 C     3401   1 H                                       1.0883766
  3333   6 C     3402   1 H                                       1.0869253
  3331   6 C     3403   1 H                                       1.0920928
  3331   6 C     3404   1 H                                       1.0929433
  3329   6 C     3405   1 H                                       1.0920023
  3330   6 C     3406   1 H                                       1.0884572
  3330   6 C     3407   1 H                                       1.0880651
  3330   6 C     3408   1 H                                       1.0876811
  3328   6 C     3409   1 H                                       1.0909106
  3328   6 C     3410   1 H                                       1.0921229
  3326   6 C     3411   1 H                                       1.0947540
  3327   6 C     3412   1 H                                       1.0865319
  3327   6 C     3413   1 H                                       1.0869665
  3327   6 C     3414   1 H                                       1.0862221
  3325   6 C     3415   1 H                                       1.0915031
  3325   6 C     3416   1 H                                       1.0934597
  3323   6 C     3417   1 H                                       1.0947851
  3324   6 C     3418   1 H                                       1.0876832
  3324   6 C     3419   1 H                                       1.0861205
  3324   6 C     3420   1 H                                       1.0886923
  3322   6 C     3421   1 H                                       1.0927270
  3322   6 C     3422   1 H                                       1.0914152
  3320   6 C     3423   1 H                                       1.0927668
  3321   6 C     3424   1 H                                       1.0880641
  3321   6 C     3425   1 H                                       1.0872296
  3321   6 C     3426   1 H                                       1.0862121
  3319   6 C     3427   1 H                                       1.0931650
  3319   6 C     3428   1 H                                       1.0934785
  3317   6 C     3429   1 H                                       1.0904337
  3318   6 C     3430   1 H                                       1.0876063
  3318   6 C     3431   1 H                                       1.0879786
  3318   6 C     3432   1 H                                       1.0878761
  3316   6 C     3433   1 H                                       1.0923378
  3316   6 C     3434   1 H                                       1.0941130
  3314   6 C     3435   1 H                                       1.0920878
  3315   6 C     3436   1 H                                       1.0884459
  3315   6 C     3437   1 H                                       1.0881704
  3315   6 C     3438   1 H                                       1.0855144
  3313   6 C     3439   1 H                                       1.0936796
  3313   6 C     3440   1 H                                       1.0941013
  3311   6 C     3441   1 H                                       1.0933172
  3312   6 C     3442   1 H                                       1.0864578
  3312   6 C     3443   1 H                                       1.0884493
  3312   6 C     3444   1 H                                       1.0863213
  3310   6 C     3445   1 H                                       1.0933554
  3310   6 C     3446   1 H                                       1.0931785
  3308   6 C     3447   1 H                                       1.0923966
  3309   6 C     3448   1 H                                       1.0887882
  3309   6 C     3449   1 H                                       1.0875730
  3309   6 C     3450   1 H                                       1.0866578
  3307   6 C     3451   1 H                                       1.0920543
  3307   6 C     3452   1 H                                       1.0932388
  3305   6 C     3453   1 H                                       1.0923079
  3306   6 C     3454   1 H                                       1.0870103
  3306   6 C     3455   1 H                                       1.0886063
  3306   6 C     3456   1 H                                       1.0887793
  3304   6 C     3457   1 H                                       1.0911374
  3304   6 C     3458   1 H                                       1.0936208
  3302   6 C     3459   1 H                                       1.0928862
  3303   6 C     3460   1 H                                       1.0887128
  3303   6 C     3461   1 H                                       1.0879304
  3303   6 C     3462   1 H                                       1.0869912
  3301   6 C     3463   1 H                                       1.0917953
  3301   6 C     3464   1 H                                       1.0940628
  3299   6 C     3465   1 H                                       1.0937808
  3300   6 C     3466   1 H                                       1.0856573
  3300   6 C     3467   1 H                                       1.0878656
  3300   6 C     3468   1 H                                       1.0878789
  3298   6 C     3469   1 H                                       1.0912488
  3298   6 C     3470   1 H                                       1.0931664
  3296   6 C     3471   1 H                                       1.0914269
  3297   6 C     3472   1 H                                       1.0882763
  3297   6 C     3473   1 H                                       1.0864011
  3297   6 C     3474   1 H                                       1.0881829
  3295   6 C     3475   1 H                                       1.0916760
  3295   6 C     3476   1 H                                       1.0936992
  3293   6 C     3477   1 H                                       1.0920804
  3294   6 C     3478   1 H                                       1.0884015
  3294   6 C     3479   1 H                                       1.0877486
  3294   6 C     3480   1 H                                       1.0881474
  3292   6 C     3481   1 H                                       1.0907525
  3292   6 C     3482   1 H                                       1.0925850
  3290   6 C     3483   1 H                                       1.0918324
  3291   6 C     3484   1 H                                       1.0881135
  3291   6 C     3485   1 H                                       1.0868191
  3291   6 C     3486   1 H                                       1.0883128
  3289   6 C     3487   1 H                                       1.0935397
  3289   6 C     3488   1 H                                       1.0934895
  3287   6 C     3489   1 H                                       1.0937900
  3288   6 C     3490   1 H                                       1.0862545
  3288   6 C     3491   1 H                                       1.0883671
  3288   6 C     3492   1 H                                       1.0871784
  3286   6 C     3493   1 H                                       1.0925757
  3286   6 C     3494   1 H                                       1.0927378
  3284   6 C     3495   1 H                                       1.0952722
  3285   6 C     3496   1 H                                       1.0875468
  3285   6 C     3497   1 H                                       1.0881457
  3285   6 C     3498   1 H                                       1.0865247
  3283   6 C     3499   1 H                                       1.0906051
  3283   6 C     3500   1 H                                       1.0923916
  3281   6 C     3501   1 H                                       1.0937589
  3282   6 C     3502   1 H                                       1.0860481
  3282   6 C     3503   1 H                                       1.0886342
  3282   6 C     3504   1 H                                       1.0871865
  3280   6 C     3505   1 H                                       1.0917862
  3280   6 C     3506   1 H                                       1.0936981
  3278   6 C     3507   1 H                                       1.0930517
  3279   6 C     3508   1 H                                       1.0879379
  3279   6 C     3509   1 H                                       1.0880157
  3279   6 C     3510   1 H                                       1.0865682
  3277   6 C     3511   1 H                                       1.0913078
  3277   6 C     3512   1 H                                       1.0927887
  3275   6 C     3513   1 H                                       1.0922138
  3276   6 C     3514   1 H                                       1.0882526
  3276   6 C     3515   1 H                                       1.0882658
  3276   6 C     3516   1 H                                       1.0864480
  3274   6 C     3517   1 H                                       1.0923561
  3274   6 C     3518   1 H                                       1.0937399
  3272   6 C     3519   1 H                                       1.0933505
  3273   6 C     3520   1 H                                       1.0881091
  3273   6 C     3521   1 H                                       1.0882197
  3273   6 C     3522   1 H                                       1.0862520
  3271   6 C     3523   1 H                                       1.0917313
  3271   6 C     3524   1 H                                       1.0934815
  3269   6 C     3525   1 H                                       1.0935425
  3270   6 C     3526   1 H                                       1.0868703
  3270   6 C     3527   1 H                                       1.0878371
  3270   6 C     3528   1 H                                       1.0885737
  3268   6 C     3529   1 H                                       1.0936742
  3268   6 C     3530   1 H                                       1.0940696
  3266   6 C     3531   1 H                                       1.0944275
  3267   6 C     3532   1 H                                       1.0868466
  3267   6 C     3533   1 H                                       1.0879663
  3267   6 C     3534   1 H                                       1.0879222
  3353   6 C     3535   1 H                                       1.0927744
  3353   6 C     3536   1 H                                       1.0916726

 * 2 distinct bonds (by element types)

   Z      Z             #   av. dist./Å        max./Å        min./Å
   1 H    6 C        2366     1.0900710     1.0968641     1.0839677
   6 C    6 C        1113     1.5325669     1.5400656     1.5225646


optimized geometry written to: xtbopt.xyz


           -------------------------------------------------
          | TOTAL ENERGY            -3716.235249443217 Eh   |
          | GRADIENT NORM               0.000943406433 Eh/α |
          | HOMO-LUMO GAP              11.380156764907 eV   |
           -------------------------------------------------

------------------------------------------------------------------------
 * finished run on 2024/10/04 at 21:09:53.215     
------------------------------------------------------------------------
 total:
 * wall-time:     0 d,  6 h, 57 min, 16.572 sec
 *  cpu-time:     1 d, 11 h, 45 min, 59.312 sec
 * ratio c/w:     5.143 speedup
 SCF:
 * wall-time:     0 d,  0 h, 17 min,  6.512 sec
 *  cpu-time:     0 d,  1 h, 49 min, 29.532 sec
 * ratio c/w:     6.400 speedup
 ANC optimizer:
 * wall-time:     0 d,  6 h, 38 min, 42.388 sec
 *  cpu-time:     1 d,  9 h, 54 min, 44.344 sec
 * ratio c/w:     5.103 speedup

