3536
 energy: -3716.235249443217 gnorm: 0.000943406433 xtb: 6.6.1 (8d0f1dd)
C           56.34911264107306       76.45036331268669       57.75594259649204
C           57.76785766959010       75.89767679457026       57.64231796395572
C           58.34519835690788       76.23578255506928       56.26763712541196
C           57.80709198166343       74.37870193117418       57.84073598930465
C           57.37648048011290       73.85735880633862       59.21836312242402
C           58.35388114448227       74.29481205692626       60.30575198426321
C           57.26950479122839       72.32761503683908       59.13927656905892
C           56.77257505108943       71.60066970692942       60.39817516479496
C           56.81609841972723       70.09563135808033       60.13999288333547
C           55.35785408072543       72.05338526742257       60.77305740031328
C           54.75786673596549       71.46868946857211       62.06155912568635
C           53.33377381611669       72.00797023619116       62.19507237113955
C           55.64136941754772       71.80872904562392       63.26943254273219
C           55.07291308984748       71.42905095192894       64.64939311485132
C           54.45686709997174       72.64364914192520       65.34365834999669
C           56.17078973155557       70.82693289312540       65.54203563441013
C           56.36467927085737       69.31787785916086       65.32346145824211
C           55.31912066666418       68.55573484673992       66.13580728164656
C           57.79098098061681       68.91231140131914       65.71394028935948
C           58.15353461003895       67.43297871939319       65.50851057025122
C           59.46246732259539       67.14851447742873       66.24458074006454
C           58.26703710853642       67.07959092722068       64.01560071535519
C           57.76100117451206       65.68777530169432       63.59730789132136
C           56.27157430010899       65.52406204086772       63.89525078055485
C           58.57906371189203       64.55010269407992       64.21721697569788
C           58.40328161821354       63.19116507855824       63.51573096568276
C           58.60107820738550       62.05918972220723       64.52203947882440
C           59.39022582760695       63.05308671314561       62.34939798943067
C           59.03440509675715       61.95346214697957       61.33778600395713
C           60.28379867876991       61.55378117846465       60.55308998236485
C           57.92661007166330       62.41668546204573       60.38370508627229
C           57.19447249954574       61.26290835509229       59.68423483982973
C           56.46406929312883       61.79679623018112       58.45167121503300
C           56.21720864159551       60.55409495428195       60.64204617713165
C           56.32201904075923       59.02483914820350       60.65869866140556
C           56.09080145778546       58.43112631728485       59.26930114899052
C           55.29214189827476       58.39316288889967       61.60733142488139
C           55.32401924409222       58.80574763195796       63.08341435758771
C           56.59675856918128       58.32160194664282       63.77277868948524
C           54.08865436729319       58.22669495852400       63.79235929776869
C           52.81267751778913       59.04761420118758       63.55690704655499
C           52.69317130658926       60.14443703659936       64.61496168947309
C           51.54944996492482       58.17730475402227       63.57864582598429
C           51.33619005509551       57.26932637539755       62.35773319892730
C           51.10081921350973       58.09258022820720       61.09410220982957
C           50.13414726662673       56.35247980220242       62.62918322756543
C           49.92369103059098       55.22938185869496       61.60644569581179
C           48.49774776515714       54.69134133575843       61.71293373307744
C           50.93428113532141       54.08903457144982       61.79936030612910
C           51.38111879580632       53.45023738957762       60.47849448442942
C           51.94716215962444       52.05468357915553       60.72921657460367
C           52.42111116996475       54.34873128860939       59.79630504265714
C           52.61540175768304       54.09691941191943       58.29634438058375
C           53.92264258196820       54.74268700544208       57.84191502616620
C           51.43590374128775       54.63820436453397       57.47630803045720
C           51.25338835923210       53.95257775569312       56.10811466355101
C           51.62717242743899       54.89792852640947       54.96455841263004
C           49.81331409240611       53.46128368732128       55.89363541667227
C           49.32720686989571       52.37052026580565       56.85458332608256
C           50.09905459562811       51.06672207980326       56.64671740731876
C           47.82912537428378       52.08342658500540       56.66670131047366
C           46.85555470203970       53.25358609658601       56.87609563645358
C           47.16148535209708       54.04746322911150       58.14503183363150
C           45.41086780777576       52.73937207548860       56.98560035095947
C           44.84629726007591       51.99733251343615       55.76694228201338
C           44.62913939121801       52.96279091742686       54.60658335841182
C           43.53066936842682       51.31826291853935       56.17559369869069
C           42.87567267484916       50.38314719222086       55.14520385246659
C           41.36647790256865       50.34853662498809       55.40366024782449
C           43.41509109613592       48.94374147061087       55.19545024514386
C           44.73402799950716       48.67373527164666       54.46151170551017
C           44.57199284676063       48.86633196180706       52.95427572109356
C           45.22291130960426       47.24173978988861       54.72677577195059
C           45.70748641452371       46.94258699849490       56.15073539197783
C           46.87685583038835       47.84757416849585       56.54241421406415
C           46.16154690729530       45.48010043131141       56.27728830799244
C           45.10800914454587       44.39968070291201       55.99580338277314
C           43.92653198157134       44.51952402938430       56.95500987627093
C           45.77553519426620       43.02184854009727       56.11163989597383
C           44.98300431309760       41.85111448363455       55.51613692227446
C           45.69820830274827       40.54361241167136       55.85844453867762
C           44.80831742788573       41.98958367046838       53.99128395184540
C           43.36257311061044       42.25393518947472       53.55207547700635
C           42.53478423250604       40.97415535186600       53.65942996664686
C           43.31271691598503       42.78492328552402       52.11154405673956
C           43.64773534154577       44.27647665656441       51.98458252843719
C           42.47669095050598       45.14398365427711       52.44310980835064
C           44.09125961931201       44.64033588429249       50.56048716291992
C           43.05783886473155       44.39219683467119       49.46446758281392
C           43.60462950728011       44.78974081954694       48.09775395603397
H           55.68872493076989       75.94277917175924       57.05564109912221
H           55.95424880053883       76.31967643653353       58.76005466396695
H           56.33896784437538       77.51396340443638       57.52752139320204
H           42.86274513262470       44.61531019725889       47.32184093265135
H           43.87130018159787       45.84468327115768       48.08599206212222
H           44.49376310829177       44.21049995490490       47.85708014652153
H           44.37038551034241       45.69677636428531       50.54339164794416
H           44.98935337133115       44.06429651409383       50.32321163430708
H           44.01061634376550       42.20160111375223       51.50547251182833
H           42.31162354607029       42.61855433831765       51.70935579668980
H           42.92241086236977       43.00206772613564       54.21783275376183
H           41.48810766293052       41.17261188543827       53.43805843691727
H           42.89922094989684       40.22958037629191       52.95406534167803
H           42.59623875343383       40.55423317522236       54.66054667464467
H           45.44910918201273       42.79436681312905       53.63135379583615
H           45.14740498301494       41.07481336350577       53.50034046124852
H           46.74450558844814       43.05506313090321       55.60861015257098
H           45.96402467033779       42.81779327452700       57.16883366004165
H           44.50248700337295       44.49699622771844       52.63497998975470
H           41.57300669811102       44.90137577673826       51.88978775168533
H           42.27317871188826       44.99181638599576       53.50066725552063
H           42.70206574486637       46.19714964897754       52.28957266119969
H           43.99636991928626       41.82145968201806       55.98715700343654
H           46.69400187935051       40.53218066607292       55.41953285947106
H           45.79829418293501       40.42900151125932       56.93599732448723
H           45.14303840953086       39.69040737183873       55.47528297293795
H           44.74167347296213       44.51818161296468       54.97389850587027
H           43.22692135916881       43.70035112516161       56.80975277698898
H           44.27137112384344       44.49432554019499       57.98712927048123
H           43.38688137783232       45.44939731542843       56.79327873334353
H           47.00566626660142       45.32967204160111       55.59794784843103
H           46.53270922087877       45.32549689542803       57.29466941050095
H           44.89183922047652       47.11482739864095       56.85808894657116
H           47.29718024953065       47.53333899043956       57.49508665064110
H           47.66365091374072       47.79948968628550       55.79237978835907
H           46.55906996732397       48.88165756430516       56.64449982316399
H           44.40724465334187       46.56222551951680       54.47603419768051
H           46.05023956531113       47.02961754738531       54.04360647571514
H           45.49508114440453       49.37243397923825       54.80967130593703
H           45.49190835045316       48.60732600105020       52.43539030446155
H           43.77247045113587       48.23551325395898       52.57111415129179
H           44.33681548878433       49.89904490914860       52.71438203907088
H           43.52467232964820       48.66123172165427       56.24422069894696
H           42.66162955320216       48.28022909022553       54.76142610722304
H           43.02416540231065       50.78887559876936       54.14346170259203
H           40.94087641967521       51.34784936369149       55.33819274710391
H           40.86336366173648       49.71909486684988       54.67267760491274
H           41.15986112073747       49.95325964076566       56.39643619655841
H           43.69784980355935       50.75163614574888       57.09543732750802
H           42.82197021459569       52.11477194750746       56.41791001704112
H           45.56142577410422       51.23291637462427       55.45917917147062
H           45.55059965279429       53.48831873462706       54.36983078597854
H           44.30390733271199       52.43521076209166       53.71478773913565
H           43.87134962002193       53.69956900656420       54.86399700021170
H           45.36237389525824       52.07635310054999       57.85331045559239
H           44.75619931156121       53.58959178613977       57.19565355065234
H           46.92642692321144       53.93483470115707       56.02317609972636
H           48.13396154021235       54.52697450380652       58.09443267891265
H           46.41453721182558       54.82515418751865       58.28730366904762
H           47.13781703743136       53.39284195100483       59.01198474397719
H           47.69310162821469       51.69538666080502       55.65489279328602
H           47.55633562162065       51.28741291447611       57.36478771438158
H           49.49142008008540       52.68954919488523       57.88635744611173
H           50.00849483348746       50.72887608766715       55.61681390385898
H           51.15343092620230       51.19462289299887       56.87692570424795
H           49.70690416607447       50.28567254037756       57.29497492325630
H           49.15166348551571       54.32649925089535       55.96467794227452
H           49.73052475640585       53.07309729459113       54.87645243402949
H           51.92372396041398       53.08983583642956       56.05465718635794
H           52.63999360477183       55.27343178089372       55.08709895115094
H           51.56809080715132       54.38435591132750       54.00667333447730
H           50.94837701949145       55.74841522934562       54.93535118288639
H           50.52391143549085       54.51857771713369       58.05982771778577
H           51.57698144445821       55.71139161949092       57.33150511087869
H           52.68730298349962       53.01697608515227       58.13414354348199
H           54.76498593757552       54.33175610789228       58.39427285365379
H           54.09188051298135       54.57025561300686       56.78329122752819
H           53.89396605870429       55.81664293090307       58.01696020298828
H           52.14481904961190       55.39560258021313       59.93093178328040
H           53.37674257246788       54.19962856049104       60.30523674707710
H           50.50425601409156       53.34639318740244       59.83220431920120
H           52.77836841410902       52.10443886618576       61.42902430975748
H           51.18327566081546       51.40308441497484       61.14873465137582
H           52.30079369238069       51.60552128412572       59.80414208105856
H           51.82270937047691       54.45881277380175       62.31243884649499
H           50.48551597975884       53.32703213834365       62.43954220911544
H           50.04195477779682       55.64089682200625       60.60104231027249
H           48.29468244941327       54.36347231788847       62.73031542555115
H           47.77151943440678       55.45747898424784       61.44796244772014
H           48.36179074893053       53.84664706102097       61.04227970681873
H           50.24540744308765       55.89758210041136       63.61617491802035
H           49.23744377288622       56.97575291760067       62.65575799797481
H           52.22962746742819       56.65472875712435       62.20923351066393
H           51.93314184472604       58.76217511660307       60.90116669685167
H           50.98826582079894       57.45414097607325       60.22180329242673
H           50.19775111596103       58.68868529252956       61.19836834605472
H           51.58181479584157       57.55827222406653       64.47889997564278
H           50.67975364319496       58.83315367721236       63.66426917638356
H           52.88287541967549       59.53825902452079       62.58336031637951
H           51.86435750882405       60.81042603747120       64.38386561876668
H           52.51733150591741       59.70810058051092       65.59656178957756
H           53.60627856262334       60.73392135486725       64.65894076869287
H           53.94610436225098       57.20180069377972       63.44661623099254
H           54.27602510880333       58.17965722177964       64.86693010697356
H           55.28381734337493       59.89622634608234       63.16076265400896
H           56.64289176503458       57.23494491393151       63.75846089425688
H           57.48354417919884       58.70793360787270       63.27637439226012
H           56.61400377151872       58.65526394598477       64.80857626678124
H           54.30069493879179       58.61619389493709       61.20739808577907
H           55.41531395991221       57.30709915204042       61.56350497425923
H           57.33192240642221       58.75167147880677       60.98475913507693
H           55.09173195336253       58.67787155483673       58.91549773075001
H           56.81097729925031       58.81013009969928       58.55125261950762
H           56.18279588481093       57.34701704140887       59.29833995918155
H           56.39441809235819       60.91662116959472       61.65493348725646
H           55.19621232772008       60.82761955443759       60.37283867801877
H           57.94655139153873       60.54301578583213       59.34820838519791
H           57.17045180868150       62.22612030171994       57.74360514322971
H           55.92065591088064       61.00233078621762       57.94749584846510
H           55.75426770042533       62.57003293238777       58.73991016577908
H           57.19240512725644       63.01582927476473       60.92656159276786
H           58.37462921109259       63.06478889177868       59.62796184797839
H           58.68237188227167       61.07304152903228       61.88320804695867
H           61.02915405333631       61.12138182835378       61.21535535947848
H           60.04941133006956       60.81881094943081       59.78668142149825
H           60.72322131050819       62.42354533546325       60.06844809472741
H           59.45682037190859       64.00366697451956       61.81501950597712
H           60.37886480475892       62.84635432001098       62.76613647363538
H           57.38312316356788       63.11967815708453       63.12873726178810
H           57.84373628843994       62.10784707832551       65.30073180538909
H           58.52264329835325       61.08886019170161       64.03854364498237
H           59.58228995598709       62.12983864272349       64.98722109411281
H           59.63796049130632       64.81521417427284       64.18315605535136
H           58.29251249913516       64.44925917772821       65.26387217574839
H           57.88452657124873       65.63865371974290       62.51043817703088
H           55.71797424937068       66.39398134947497       63.54919825178899
H           55.87005178404256       64.64655353517279       63.39493070441669
H           56.09589154875736       65.40575591898182       64.96084736366379
H           57.70198394633073       67.81132572362665       63.43500394007097
H           59.31116921857296       67.17260629699091       63.70817626598014
H           57.37437998816177       66.82225192722785       65.96576248659160
H           59.35177609162427       67.34085774586244       67.30904420623885
H           59.76916404933466       66.11615864139605       66.11595472770453
H           60.25359753848802       67.79417822346254       65.86697551080361
H           58.49699367694021       69.52029453574875       65.14170983927352
H           57.93242683498617       69.15932653497039       66.76969046822181
H           56.20950271885577       69.10158631834877       64.26152380380201
H           54.33026237449021       68.97303335286581       65.96120025554858
H           55.29042716102269       67.50450203251985       65.86546171536030
H           55.53719171677502       68.63493837421974       67.19901387514915
H           57.10677077898261       71.35730156964044       65.35360595598438
H           55.91774156539542       70.99033547877464       66.59177331048778
H           54.29174562974794       70.67478530613955       64.51505760157403
H           55.22832335552558       73.37764643078316       65.56931774333961
H           53.70722711286830       73.11698978932037       64.71633569373643
H           53.98243455893924       72.35006911640062       66.27821894705001
H           56.59006226410024       71.28708327594684       63.13459751275248
H           55.85458624603810       72.88034178524634       63.25936831534266
H           54.69446106810029       70.37920094733886       61.97481467273568
H           53.34343099081785       73.09009409456759       62.30843024620641
H           52.76333327913348       71.76796172848969       61.29948462913244
H           52.81893666328325       71.57240130794321       63.04667161158144
H           55.35490556322672       73.13923510008375       60.88297876999016
H           54.69173170854634       71.80773272947084       59.94228298194227
H           57.45651788476031       71.82468436759486       61.21946208095989
H           56.10200539054198       69.82528239516098       59.36467079188657
H           57.80660157724936       69.79469764437728       59.80769636477569
H           56.57784296530108       69.53638982723861       61.04050524902510
H           56.60008795031393       72.07496530521497       58.31380072416730
H           58.25830716749460       71.93373355592377       58.89050325010059
H           56.38977059506510       74.26632708392930       59.44722824598255
H           58.42160618478206       75.37853190529259       60.35205719331944
H           58.03223454184083       73.94167954607677       61.28210035569229
H           59.34752616099869       73.89869765026457       60.10430910460823
H           57.15856632892472       73.92812816126273       57.08589635009256
H           58.82576083893609       74.03363016530807       57.64626095032613
H           58.39341007287317       76.38045129847927       58.39961964818066
H           59.36282740509928       75.86310724793428       56.17387282663794
H           57.74247948808778       75.78335111414745       55.48256912304300
H           58.35931894142681       77.31189863718106       56.11040747922389
H           42.78365350476622       43.33632279776589       49.44692283428666
H           42.15594568655504       44.97143340844846       49.66720369279041
C           54.75364470642321       60.96210415200409       54.19931585188243
C           53.78905495956474       60.83047535375887       53.02161571979295
C           53.12428588593558       62.17921725501720       52.75522305751100
C           52.75190821547778       59.73982034583404       53.31869923296993
C           51.89120403658014       59.30377507084977       52.11869123423779
C           50.43287177062918       59.16345682206824       52.55470660305279
C           52.35329294449053       57.97236293997969       51.51110480386637
C           53.74807720758554       57.97584471157329       50.87881396687287
C           53.81396824060129       58.94313397691877       49.69775182468725
C           54.13927615336045       56.57895825582331       50.37011009407507
C           54.13755482673688       55.44692525867649       51.40303870270066
C           55.01264157665377       55.78992628381720       52.60785980234549
C           54.65369375044683       54.13632305860953       50.78814055922632
C           53.88786761956361       53.60110001947188       49.57188071486064
C           52.38675953470309       53.50998361843373       49.84851439405158
C           54.39935818394684       52.20695472932356       49.17493447206165
C           55.88910796291159       52.09619763931521       48.82317488177143
C           56.24439530737475       53.00114780749352       47.64607746778503
C           56.23053387852848       50.63549817879510       48.48587324110500
C           57.69007849723960       50.22680475840838       48.74980933335753
C           57.99616721667503       48.95210483672356       47.96363091665743
C           57.91206659569989       50.04537181952970       50.26007122386602
C           59.19238403372456       49.32260046432150       50.70642566852736
C           59.12414670502785       49.10541104993795       52.21787058351621
C           60.45233979547891       50.10159618153227       50.31109203952770
C           61.79107502836526       49.48470528879961       50.75241077207076
C           62.93302953647331       50.42087485072821       50.35869542944765
C           61.98815552670462       48.09449124347508       50.13879761929022
C           63.21529584665682       47.29585484318118       50.61025228901996
C           63.18658887220219       45.93406494602030       49.91596469293204
C           63.20920266701714       47.15286621596886       52.13882140249292
C           64.13883937966790       46.09590766916065       52.75214733512754
C           63.83793507666748       46.01429514030548       54.24864969363406
C           65.61906816252936       46.41877918376836       52.51490813399206
C           66.58346341740089       45.25378415307270       52.79723312508916
C           68.00004750269790       45.79910531344049       52.96589463812120
C           66.53035536795912       44.21916386717362       51.66742138650759
C           67.24966610390037       42.88816947907898       51.93189605723903
C           67.33695049054985       42.11140030329653       50.61752608805065
C           66.52074858197378       42.05136522561492       52.99184310884125
C           67.33476287200320       40.85889752680030       53.52958509887811
C           66.48180789100260       39.58900718405778       53.52480008626547
C           67.85776717774235       41.10009424654597       54.95254336902001
C           68.83300679338473       42.27248432072388       55.10575245194548
C           70.16841024636440       41.96598810386427       54.42795540017259
C           69.09160007010765       42.58570766409912       56.58763778832110
C           67.92116985877819       43.23314067615923       57.33965673815166
C           67.74359028427189       44.68293622365545       56.88691987005772
C           68.14874967822902       43.20166111531618       58.86215022210437
C           67.58689748379850       42.00069674816496       59.64217019030602
C           68.32021856492922       40.69594996488593       59.33013200001324
C           66.08126621177630       41.77222813877915       59.45035971851234
C           65.17007464066937       42.98036212647054       59.69069155345663
C           65.27735666947267       43.47155880930053       61.13267676177843
C           63.70976254789078       42.61360795726645       59.37985315622419
C           63.37614885303731       42.49602984360565       57.88644246672532
C           63.35241312973786       43.87195563084717       57.22409225703798
C           62.02319324952219       41.78856915754672       57.66792212853070
C           62.10355225629538       40.36818166487576       57.08572886467834
C           62.87886219659622       39.43119638498518       58.01131298521187
C           62.70154254201557       40.33918139950790       55.67222345599122
C           61.75959032126272       40.83272982712185       54.56215656049172
C           60.74531618015469       39.75114453966147       54.19879908303189
C           62.60713917531611       41.23698662543495       53.34806325999623
C           61.85567731590168       41.68726734184720       52.08581832170902
C           62.88760703474734       41.97069834273405       50.99376418826033
C           60.98509990608848       42.91443879013420       52.38088043900454
C           60.22233893185393       43.51398021408146       51.19115990924269
C           59.63604753166037       44.86245572986771       51.61052206259181
C           59.10929262339742       42.58527405232164       50.69184281164821
C           58.65753683953031       42.88614104887966       49.25560420327019
C           57.25812076225493       42.32338227914357       49.01738571001441
C           59.64107315422289       42.30065189313712       48.23238137015692
C           59.68354759003899       43.06712217247288       46.90177236937518
C           60.19893020943373       42.15083118383090       45.79349858796178
C           60.57147746599374       44.30860880949524       47.04494208564941
C           60.48012047089770       45.33151592519408       45.90536460586045
C           61.56252501037177       46.39092639926648       46.10837002898521
C           59.09494844621088       45.99767967097943       45.82652063791838
C           58.20652780193297       45.49483577255702       44.68158427179861
C           58.69655026005587       46.04507037214237       43.34279285489933
C           56.74794722504867       45.91641256968823       44.91065916825934
C           55.99952251023617       45.06923800471718       45.95047383442970
C           55.58859770228769       43.72949256626941       45.34196673623264
C           54.78086405667329       45.84558370211857       46.46657425719538
C           54.04759477898975       45.20956797880240       47.65479829222075
C           52.66326400657435       45.83899798710672       47.80465845526314
C           54.85288253715990       45.29525516220387       48.95977649596633
C           54.88769040645930       46.66855253979455       49.62621755776435
C           55.86424271799001       46.67975323822776       50.79637333184964
H           55.50360333704702       61.72346954881974       53.99669532721381
H           54.21434838872448       61.24296162519940       55.10230728495105
H           55.26600537397783       60.02158405030465       54.38635388724354
H           56.88535035190338       46.53883164058796       50.44897428718485
H           55.81241770288916       47.62464654436767       51.33253562767692
H           55.63330634784334       45.87692974859578       51.49385930969280
H           54.43149186819662       44.58343620436363       49.67357929839199
H           55.87780410419185       44.97964501401591       48.76047168437258
H           55.10304041368951       46.84779468191547       46.75659052816297
H           54.07375983634729       45.95543407394301       45.64015342957951
H           56.67205379292501       44.87647606613488       46.79123680438803
H           55.17120035212814       43.06505165136751       46.09452299703914
H           54.84085539010783       43.88056867498670       44.56575088917637
H           56.44503943613670       43.22917699076333       44.89620955516718
H           56.74493815237994       46.96364056146412       45.22348247443261
H           56.20376535354724       45.85861455268179       43.96519450544073
H           58.57854317968171       45.85370386499688       46.77626389911322
H           59.21991583855076       47.07499494740680       45.69848153116438
H           53.90046951988038       44.14616674748352       47.44098836598209
H           52.05021555431830       45.60174578414828       46.93811151744585
H           52.16271536717914       45.45408493317069       48.68996231410220