3795
 energy: -5103.685011826097 gnorm: 0.000881247377 xtb: 6.6.1 (8d0f1dd)
C          130.44175381137410      114.61446904100865      115.53346449126232
C          131.55374277256004      115.58835795606852      115.26941740823492
C          129.47885988811552      115.16285718558977      116.59641195346897
C          130.12502423966018      115.27605084321222      117.97545936758605
H          129.11180617806258      116.14083773013706      116.27718388245322
H          128.62358407568496      114.48820999503072      116.65854741845392
C          129.09398771587919      115.65257820031015      119.04457493390262
H          130.57751879777746      114.31816054902596      118.23909214195250
H          130.91997252785558      116.02308984945914      117.96392424216346
C          128.33032650747953      116.89878044481689      118.65232230332506
H          128.37702058858017      114.84224044072464      119.18268592210778
H          129.59677179987054      115.82957584121263      119.99499233202235
N          129.05289129399728      118.01813546044005      118.57334419763104
O          132.66740198299280      115.29584042800367      115.92050231117875
O          131.46003270488637      116.55401867165344      114.54068678108807
H          133.38298151250939      115.93592788905841      115.75896365696913
H          130.86314232201784      113.66375395236614      115.86242732905204
H          129.89189490237439      114.47263860473778      114.60270071702602
C          128.45216692155699      119.25505519637591      118.11378597687013
H          130.03392156012018      118.01288254469117      118.82463404721803
C          129.47478851731623      120.37201531293617      117.97574084872535
H          127.95808269316947      119.06316900013519      117.15596714380310
H          127.67515328382687      119.55451232355814      118.82919303734069
C          130.56697522367028      120.10850592450335      116.93923906238534
H          128.94285341299644      121.28849197438923      117.71450820130542
H          129.95012598423236      120.52209295193512      118.94674519598153
C          130.07379053869508      120.05259808191228      115.49373036130007
H          131.29426902457885      120.91905681172595      117.01944158854015
H          131.08061985307259      119.17626733646290      117.17940254277806
C          131.26215985691593      120.10494824263661      114.53360410527208
H          129.50955077071364      119.13591228558052      115.31962040823662
H          129.41450504525105      120.90070169150542      115.30123607994419
C          130.86520077242409      120.07032580958737      113.06365794593320
H          131.82486496118588      121.02253322270471      114.71355037352593
H          131.92502842204533      119.26200189442453      114.73456330884694
N          130.44912234180273      118.74577490068448      112.65197378200455
H          130.03381576547463      120.75252849581194      112.86462320965774
H          131.71306658918988      120.39010790840541      112.44470815277640
C          129.74211802412881      118.53062011475546      111.53955539876540
H          130.78444927153046      117.97057916251454      113.20816156695128
O          127.12806515012946      116.87982729676929      118.39967360477361
C          129.44354485241089      117.07463130079944      111.24053808867532
C          127.96755767064479      116.77034951268563      111.51497976509566
H          129.66338321758207      116.88947067151661      110.18816483428036
H          130.07847606253418      116.43420218059516      111.85286805856350
C          127.59481586304545      117.08066849584816      112.96281322457506
H          127.34777486794142      117.36936099989882      110.84527455155343
H          127.77984494354367      115.71594887446562      111.30522336653301
C          126.21632249117806      116.52626633330773      113.32392224257109
H          128.33833875055538      116.64332760888503      113.63327302122504
H          127.59986201211613      118.16249457911660      113.11427835404459
C          125.11734749794908      117.16945711371511      112.49930133775784
H          126.20628599979175      115.44774611998929      113.17527692506175
H          126.00882850003644      116.75287371653725      114.37191268666633
N          124.49994826460495      116.34797492461539      111.64608453357164
C          123.34696994253706      116.73573965427421      110.86556381959456
H          124.81855988774733      115.38684292209435      111.56256632902607
O          129.33871356653481      119.44405946127782      110.82113393975757
C          123.55564792136457      116.58669880420625      109.35936506781995
H          122.49815919939712      116.11496228891902      111.16721140723978
H          123.12917420710332      117.77643583296187      111.11481742770178
C          122.29880291496659      117.02498853984859      108.61068163330282
H          124.40911706787507      117.18771433273051      109.04201725050332
H          123.76847978145274      115.54328017288242      109.12420340304817
C          122.31522779608558      116.62978370667945      107.13529818494582
H          121.42585746531410      116.56319523202534      109.07448308840057
H          122.18994162668747      118.10538220419514      108.70363873371173
C          121.12548283876293      117.21725082950972      106.37268414022708
H          123.24064744825127      116.96145178980906      106.66062448024847
H          122.27860505670478      115.54277333778091      107.05496552475914
C          121.35067426431480      118.68951696978269      106.06278790868825
N          120.16958855528104      119.33982993301072      105.52880075606744
H          121.64333330326957      119.24386373237397      106.95852920062890
H          122.16338811874478      118.78177199024580      105.33250695257459
C          120.02240724551619      120.66702357329243      105.60079390694342
H          119.45277201394536      118.75395531386275      105.12301076908078
O          124.81177946061413      118.35188197144872      112.63235514853454
C          118.79098450856135      121.24523679658894      104.94480170538222
C          117.67608584264117      121.50531424886073      105.96223037732361
H          119.08139897918062      122.18624336254629      104.47592653861007
H          118.42816268025545      120.56600820649317      104.17294734540226
C          117.00029795714512      120.20772100767655      106.38767396077291
H          118.08874705429213      122.01967507008254      106.83253237120357
H          116.93637268399674      122.16656692585094      105.50470107479320
C          115.89621131023613      120.43327451252247      107.41939111029370
H          116.55937058655525      119.73121400522058      105.51037736582674
H          117.73608546968555      119.51623453433393      106.79704671891689
C          114.77835831134965      121.24254950909304      106.79882467892921
H          115.51026483478488      119.45397009105669      107.70498874328662
H          116.28619484894746      120.95009592716477      108.29367446430847
N          114.62079132859957      122.46922266795704      107.30556176257537
C          113.62605883814098      123.39566367548581      106.79738420910132
H          115.17816949556709      122.74300786667331      108.10817951254239
H          120.98904182192322      116.67432705931348      105.43609699900583
H          120.21256430603711      117.09714409902345      106.95676909755325
O          120.84348790177322      121.38122393827062      106.17852107640488
O          114.08655268735549      120.80560006494325      105.87988540399452
C          113.88547541170016      124.81530335995795      107.28083898138689
H          113.64981571675474      123.36209150878516      105.70195539610341
H          112.63314873391913      123.06661677599860      107.12289727300180
C          112.94131404164081      125.82533931405573      106.62928044927035
H          113.75963039065520      124.85368109909778      108.36420895066995
H          114.91554777791501      125.09099963033447      107.04886684554567
C          113.20557872133625      127.23557976039055      107.15642776968946
H          113.08405575868922      125.79701504034088      105.54698151900651
H          111.90906718721592      125.54319605854239      106.83961371723306
C          112.38366269826217      128.32602491364679      106.47035617741665
H          112.99342319112741      127.25968275224378      108.22787096178520
H          114.26411836566727      127.46726448880904      107.02061249496521
C          110.90338489797328      128.27846687127831      106.84722704150992
H          112.77531272288435      129.30366813291045      106.75741458298847
H          112.48871216075894      128.24091393607355      105.38687057611158
N          110.17506844395638      129.36342666249857      106.23288490257367
H          110.45891078459277      127.32658536924561      106.53983921244509
H          110.79187327858975      128.37986152051369      107.92960617628168
C          109.44475911040867      130.26283530642917      106.89882365533707
H          110.26533868351282      129.46433515684313      105.22568343143220
C          108.80521177967989      131.31355753720391      106.00793554054606
C          107.36303380556103      130.94825500637052      105.63622367023557
H          108.79574873197883      132.25784044243647      106.55491800549011
H          109.39669650057104      131.42623245087302      105.10002390385698
C          107.26459127086146      129.68525799185809      104.78007521510646
H          106.78147894280008      130.82054010742840      106.55124232555637
H          106.93219150977951      131.78594856347866      105.08262888139816
C          105.81877710057240      129.44972993608155      104.33158999873621
H          107.90665605286900      129.79926019763735      103.90509199389675
H          107.61705785417348      128.82286572516119      105.34791633079520
C          105.64517470738841      128.22435916460284      103.44961611275320
H          105.18145792731691      129.33248309191666      105.21109125528180
H          105.46708849890778      130.31436657542770      103.76507889459425
N          105.78688429731424      127.05124735287698      104.07002727414083
C          105.57523888321251      125.77514461442036      103.41499025978750
H          106.14750049717055      127.02740558517660      105.01614508063076
O          109.29454997746159      130.25111684490082      108.11863244318741
C          104.10815893346393      125.32945831444749      103.44491671835068
H          105.88389759491311      125.87077522469012      102.37154766448138
H          106.20271838077896      125.03921241334599      103.91943257858537
C          103.57964378176028      125.20913309030759      104.87006322630940
H          103.50883967378006      126.05853609411210      102.89627200156583
H          104.03546726501025      124.37190329851437      102.92843924470436
C          102.14835056426804      124.68185364421622      104.96899006879065
H          104.24198641987859      124.56689515903916      105.45496402118238
H          103.59647201668122      126.20059818499854      105.32302958043313
C          102.03445404302015      123.16513160078544      104.82274382064948
H          101.76536430364936      124.96634718898032      105.95101801752023
H          101.52512078343733      125.17534233374460      104.22071332850312
C          100.63471418359426      122.69807007002790      105.20108752350737
H          102.25949542443810      122.86157154064280      103.80057144448399
H          102.76005565073393      122.68437658376125      105.48057156155087
N          100.56525858923983      121.25468331577974      105.32511937251653
H          100.34602394904097      123.12904074738469      106.16574605034658
H           99.90343746529965      123.04529028343299      104.46112931815134
O          105.36118387829443      128.32244035681325      102.25556176306738
C           99.52937005310386      120.64386361295813      105.90522819667866
H          101.34508184935977      120.71492322451090      104.95368717762322
C           99.65616017447881      119.13938989380347      106.03623177284119
C           98.77610443283288      118.38914089315658      105.02682181127834
H          100.69617694920395      118.85735803661331      105.87481036743654
H           99.37797917936001      118.86012175847068      107.05358923361837
C           97.27648696700378      118.58263463323698      105.25990717511067
H           99.04442655992514      118.71738919218561      104.02016332063143
H           99.00642567249164      117.32476330237519      105.09375464068236
C           96.73372248543699      117.59805214059398      106.30505294452296
H           97.09222461806493      119.60129626212817      105.60368619966408
H           96.73943394590329      118.44264099188942      104.31905353614091
C           96.66466488162666      116.19133965465241      105.73783909226566
H           97.40156265889603      117.58844389437817      107.16529184011712
H           95.74284187133735      117.91365097676422      106.63125485096914
N           95.49945584529065      115.90121796539437      105.13437742599903
O           98.54133191627359      121.26562596892558      106.30554257511960
C           95.19176533653568      114.62621332101057      104.52365163225127
H           94.78952976965070      116.61435073873977      105.07029978723261
C           94.86841553905175      114.76616517292622      103.03519245443344
H           96.06415494873919      113.98923120010609      104.67372075265415
H           94.33666495746021      114.18411525103762      105.04566103483776
C           96.11173494626242      114.97295966047488      102.16722525485018
H           94.34491019982867      113.86827054483807      102.70463441986067
H           94.18810640694262      115.61073604416073      102.90652904551865
C           96.84236573588119      113.66132623970320      101.87575351500675
H           95.81117013609904      115.41880000479415      101.21689208174477
H           96.78542517028336      115.67248257461065      102.66436248234481
C           97.98035616081768      113.82711437750167      100.86810171106495
H           97.24829089403335      113.24427910917497      102.79920946330198
H           96.12308173231234      112.94515338753050      101.47266528559018
C           99.22012499049686      114.45985583536928      101.49644905898779
H           98.25908104448841      112.85030567376054      100.46785088303336
H           97.64529413053751      114.44544632290240      100.03246863610175
N          100.25209347343595      114.69080346044402      100.50932173373121
H           98.97700184278207      115.42953439000109      101.93534063430700
H           99.60774416833902      113.80306963698301      102.28308472851381
C          100.75242836768119      115.89713880791109      100.24258932271557
H          100.56552586047286      113.88872212591538       99.96306250229539
O           97.58702601860760      115.39155324194012      105.82011872188457
C          101.83690216504959      115.91886054598636       99.17983405325377
C          101.82749464249662      117.22940725557407       98.39569599984952
H          102.78623019047396      115.81662902784770       99.71015587918413
H          101.72214296644822      115.05909141630049       98.52012379384369
C          102.99564262721069      117.36683149361858       97.41844331567201
H          100.88973601667125      117.29587372782831       97.83974151047207
H          101.84927783726351      118.05758245019476       99.10728248201667
C          104.35676652532558      117.52400274109226       98.10907857110122
H          103.03275154108023      116.48654672177744       96.77399613321862
H          102.80755895700014      118.23153159224954       96.77961116568311
C          104.37167327029451      118.63577876612891       99.14340654336890
H          104.63424416205477      116.59674593523867       98.60972303908149
H          105.12102464321006      117.73983260978018       97.35967064978593
N          104.14694565392260      119.85898504832501       98.65442103317149
C          104.17497612544558      121.07086963522883       99.44536735491063
H          103.99732180616782      119.97306754008250       97.66406350852031
O          100.39961466784641      116.91641909753450      100.83512162655327
C          104.84814440379094      122.20340297081228       98.67597382149103
H          103.15023696868164      121.36154877546926       99.70383237521108
H          104.71405095822291      120.84488588148005      100.36844513990539
C          104.92449558403577      123.48447147667298       99.50514745591227
H          105.85295302686022      121.89493018794548       98.37934616915764
H          104.27566929495079      122.40217343352852       97.76725128717761
C          105.34845698605314      124.67745005050176       98.64904701897585
H          103.94771378811735      123.69337838144214       99.94494656889586
H          105.63356903343937      123.34462641988675      100.32258319069247
C          105.59044844572182      125.93194272727034       99.48628883990753
H          106.25903384351331      124.42948821520638       98.10031935645056
H          104.56797621954719      124.88369731052933       97.91412115470703
C          105.74793041913404      127.17099149165365       98.61431985414094
H          104.75285255411444      126.09078648110618      100.16787229742388
H          106.49597411067431      125.80724071827538      100.08089672900972
N          106.10165109398677      128.32427410579479       99.41685784993510
H          106.53593965186322      127.03367922425181       97.86723320544526
H          104.81333320177210      127.37155859098682       98.07487773572795
C          106.77477686356913      129.36721710127713       98.92315792707792
H          105.76950568021266      128.34318911222078      100.37559531294390
O          104.57383117001417      118.42590428276584      100.33637987572941
C          107.01826520550240      130.48981810424587       99.91737556632488
C          108.17808127499312      130.17072269135716      100.86511711121375
H          107.24606810531546      131.39367149628919       99.35052077107838
H          106.11194312603671      130.64986187621477      100.50169498540514
C          109.47526485944211      129.85570780196716      100.11771815798785
H          108.33791837684903      131.03500351460289      101.51366689913257
H          107.89842169901104      129.32558501970919      101.49723571115642
C          110.71207525638287      130.04040921538873      101.00753187179870
H          109.43181775958010      128.83660469678446       99.72918367769131
H          109.56523399730980      130.52060555025494       99.25682054519966
C          110.56191403023593      129.30615012560693      102.32393616188956
H          111.60239658575512      129.68405041308034      100.48712709016132
H          110.84143587462582      131.09960246212907      101.23350276099617
N          110.58774067851613      127.97361320919671      102.23776265401760
O          107.17571441856424      129.41958424648746       97.76134460749168
C          110.33138406174341      127.09687153538761      103.36594931073763
H          110.72700185259067      127.54015327323569      101.33906435317311
C          110.09824090631398      125.66456669955157      102.91101624384196
H          111.18549503692503      127.12799002112202      104.05030466652811
H          109.45400351078783      127.47524167295809      103.90156040597861
C          108.94206915944565      125.55663791125353      101.91834279845258
H          111.02028840963243      125.26770465047203      102.48717977092726
H          109.86453829174692      125.07425020694095      103.79762459941784
C          108.53816646336139      124.10852107826810      101.65041342207324
H          108.09220732179345      126.10019190777525      102.33323451863191
H          109.20364753470361      126.02820981891811      100.96880265198403
C          109.55210712492307      123.36492744034832      100.78437952175209
H          108.42003850534354      123.58661796860051      102.60145137904452
H          107.57310806326844      124.09165088228085      101.14276425337489
C          109.14694773256197      121.90359769294743      100.61707283401981
H          109.62785721987412      123.83963058323138       99.80452657346983
H          110.53967796634939      123.39962731855523      101.24697698536484
N          110.17904702646263      121.13463220034085       99.95861385520166
H          108.94221882903555      121.47227879727446      101.60180351922955
H          108.24743434698166      121.81742052576806      100.00255648460994
C          109.93963645143114      120.36609633052898       98.89031767291927
H          111.11722792843786      121.18100807361546      100.34749734706088
O          110.41444660748878      129.89580846796221      103.39095176989294
C          111.15990986380206      119.66857718832334       98.32141373013948
C          111.15143465840106      118.18159018620810       98.68901928299502
H          111.11974057163934      119.76766345187691       97.23531061510610
H          112.06939772953564      120.14108454646174       98.69081713011623
C          111.46988523277248      117.94516830257166      100.16310673176771
H          110.17101003008710      117.76386592923998       98.44968594403166
H          111.89592643285765      117.66664252321043       98.07880321797410
C          111.54708520238970      116.44665271053010      100.47368405376919
H          112.42404630719302      118.42042129537631      100.39944795489600
H          110.70427559742414      118.40594021208057      100.78997741765451
C          112.28649816027851      116.20219699589309      101.77407063906082
H          110.54052068089298      116.03662824557495      100.53668477724422
H          112.09193444881136      115.94360517683802       99.67346911482562
N          111.54501971709239      116.26892041497695      102.87214561397103
C          112.07309412607447      116.06903234843145      104.20573924750448
H          110.55225914904821      116.45959543626063      102.78918079104122
O          108.81904501337739      120.21972744913553       98.40729625124894
C          111.42595210594446      117.01710014555842      105.21012322871226
H          111.89650304691025      115.02886569287180      104.50583914901478
H          113.15379285184538      116.23236255979202      104.16393823251779
C          109.97678145957977      116.64067346892044      105.52129203561590
H          112.01533304412763      116.99582674219376      106.12665638410137
H          111.47075063542400      118.03094024781301      104.80899028704921
C          109.35235841139422      117.58700035842753      106.54868931919988
H          109.39289454589775      116.67719793036801      104.60132941705938
H          109.94950302408813      115.61593224179825      105.89231202289891
C          107.82381335195176      117.63631585309068      106.48886022350096
H          109.67283264705409      117.29898249236098      107.55035658610909
H          109.72447132553897      118.59501577990065      106.35839335138600
C          107.11107861808682      116.47224135738290      107.18489604707219
H          107.48308775691264      118.56253343507899      106.95669608671450
H          107.50630624497951      117.66301257915228      105.44470062162802
N          107.17042958479809      115.23024111157753      106.44984717001788
H          107.54465168430221      116.31175153545405      108.17430177601310
H          106.05068461907821      116.71603935282101      107.28884275195072
C          106.15112628653741      114.75299004941625      105.72410813165023
H          108.05867940136802      114.74901243757746      106.40789968217594
O          113.49929421781634      115.96669432535730      101.79204174027858
C          106.50850640447568      113.49467523614156      104.94921940684107
C          105.32588804636458      112.55954639179073      104.71193734844253
H          106.89447532834662      113.83356487671597      103.98342120656596
H          107.31427553206055      112.97472643057030      105.46635357255745
C          105.73837964867160      111.39912548819696      103.80971819325795
H          104.95471582974676      112.17919950368911      105.66528577290414
H          104.51192215407359      113.11901649614136      104.24747865067913
C          104.55628636753431      110.50832431787828      103.41633500318213
H          106.18019266998911      111.80591844028542      102.89739080126900
H          106.50221603739989      110.80234878443181      104.31137636616634
C          104.98272478273034      109.51354850869561      102.35821858775395
H          104.16735494492883      109.96344114331808      104.27849110026696
H          103.75341918218113      111.12686592356945      103.01245124770031
N          105.87194683637080      108.60109576613004      102.76813190704269
O          105.04486591106725      115.28013670863939      105.67631494202990
C          106.38021476964913      107.56334489754234      101.89330259307225
H          106.05098382518619      108.49260757138200      103.75443861731245
C          107.61497793381926      106.90153977348903      102.48887638806350
H          105.60068275639300      106.81083774106655      101.72046521421021
H          106.60679501431019      108.02641166176723      100.92871839755784
C          108.10560326185546      105.75956353498029      101.60124180408863
H          108.40603074630170      107.64220506925663      102.61566839521836
H          107.35983027406728      106.49428003035852      103.46981701050572
C          109.21576348990557      104.95807106820519      102.27688775931978
H          107.26384389234964      105.09325008300483      101.39752623447173
H          108.45350318846990      106.15303137997809      100.64448595273802
C          109.52281801344914      103.66407141486231      101.52837100343154
H          110.11779042773921      105.56707799776463      102.35652452775344
H          108.89142200206594      104.70456105610799      103.28777188096878
C          110.48838484411023      102.76800476691962      102.31177034218842
H          108.58402533351561      103.11870564063216      101.38619599827344
H          109.92631810357700      103.88620544456708      100.53763242064392
N          110.52744048932200      101.38146974537491      101.84943844461289
H          111.50244973089036      103.17018044086836      102.26955265413967
H          110.18013680636734      102.75160672315941      103.36096113699533
H          111.05749783868276      101.31043262796602      100.98783778747335
H          109.58172097044643      101.07258743394191      101.64081238296565
O          104.59672603282614      109.56298797959187      101.19219211321087
C          121.75803458526701      103.56384111734280      123.87373526202414
C          120.28454961243145      103.22148638557350      123.94647341518589
C          122.38566458281490      103.08331672401056      122.56442417174084
C          121.82840765433662      103.82858680460845      121.34922169023963
H          123.46855455995470      103.20945621093918      122.61016359576286
H          122.17145085983373      102.01824689795060      122.45868339789112
C          122.48054842871633      105.19570088004720      121.12522384826914
H          121.96454548666479      103.21576070010549      120.45784669170375
H          120.75539498345145      103.96633197038737      121.48835316083830
C          123.89179993760085      105.09835603301075      120.57238578668724
H          121.88342421595293      105.76291946601698      120.41018321380857
H          122.52452826369965      105.75208630356016      122.06253087080317
N          123.97677203034428      104.62504707083724      119.32924176760100
O          119.57877487100248      104.13503386036952      124.57188560382326
O          119.79631851866236      102.21125952196992      123.47892946464805
H          118.57337612929570      103.90613923122328      124.58560092252175
H          122.24510295034162      103.07260018360084      124.71941068482309
H          121.86369659671537      104.64086581815972      124.00348332834754
C          125.22654525636604      104.48728266597590      118.61383139879065
H          123.16135975385279      104.20191547373773      118.89409761978428
C          125.14940253879649      105.12916189606523      117.22562676366417
H          125.99411207897924      104.97192946069859      119.22267142677546
H          125.48054931882032      103.42631333646806      118.51672526433475
C          124.41456680188372      104.24652936732149      116.21718695539508
H          124.64471814665406      106.09284515218400      117.31211047179374
H          126.16483329044664      105.31107022055926      116.86867653265216
C          124.27519929728074      104.92003081260881      114.85237755085224
H          124.96406842030527      103.30984935374678      116.09861349899852
H          123.42629896825068      103.98816952354284      116.59901932023267
C          123.47901931999792      104.04986065193032      113.88044214604545
H          123.76767358644655      105.87871031717357      114.97055724520199
H          125.27285154430263      105.11974704631650      114.45419048480143
C          123.50443368490922      104.56018032979968      112.43845447957149
H          123.87123736322786      103.03140609079581      113.89101694128682
H          122.44057355988410      103.99638755036946      114.20739320394196
N          124.78224216250376      104.31058657351036      111.80802318178844
H          122.75229441779145      104.03338285847924      111.84947210875376
H          123.30088322575754      105.63347033271472      112.40461576968630