3536
 energy: -3716.221479725882 gnorm: 0.000665614595 xtb: 6.6.1 (8d0f1dd)
C           67.00593913608378       51.11522321161139       41.25760934745451
C           66.03163476007212       50.82431650171476       42.39703096040430
C           64.61313260348255       51.19273717576874       41.96515842222295
C           66.38764539293044       51.60422733604101       43.66779731399195
C           67.77244630257395       51.32701702252459       44.26266992833543
C           67.93848170447056       49.85004154340561       44.62373551659079
C           68.00647350854942       52.16637401218431       45.52844578273598
C           67.89267586339888       53.68693972407505       45.37171609093907
C           68.85079117882353       54.21177757985043       44.30217412579957
C           68.19137800758035       54.40427459641861       46.69723151468143
C           67.25110579193363       54.08626520796810       47.86812482210975
C           65.82291289120519       54.51950663508848       47.54532908915490
C           67.74069594220353       54.77013322400059       49.16098414747772
C           68.32574097147271       53.80635379245788       50.20374536524763
C           68.51927237851463       54.55000151894102       51.52510928327560
C           69.64201343023515       53.20238279119751       49.70156009195338
C           70.22294288475825       52.06567784450484       50.55249724248290
C           71.69357907942928       51.86369693692490       50.18791021052408
C           69.44645104469677       50.75819839346188       50.35374065537956
C           69.72685490413024       49.70945161702092       51.44738841796205
C           70.29052378496881       48.42313984751434       50.84176506010664
C           68.47207442152997       49.36982184604686       52.26110412707755
C           67.84914188045238       50.52907373514017       53.04893216711992
C           68.77085742969217       50.99855848882857       54.17047862840063
C           66.49106670311603       50.08713350974440       53.60984465637191
C           65.66677970410529       51.23091435716265       54.22657136602381
C           65.60924051061616       51.08848796665445       55.74812681573098
C           64.23348601495826       51.27443182262522       53.68022838238227
C           64.09311365604839       51.58341381176200       52.18520099917333
C           64.53968514786665       53.01205056509055       51.87432618100995
C           62.63709481208653       51.41245155452896       51.72291611561043
C           62.03703279604136       50.01097999425099       51.87933965939700
C           62.80423394336380       48.98487085128253       51.04604798120729
C           60.56025963108606       49.97216524410609       51.45977272891117
C           59.62600921210021       50.95149882903657       52.17970086775849
C           59.78613962594781       50.86557711586170       53.69743843680044
C           58.15461729124613       50.66053693866115       51.85015060026511
C           57.78163347446311       50.55658543601712       50.36823033883102
C           58.24132890605333       51.78482932777809       49.58508788076411
C           56.26017660319157       50.41172872248210       50.19102494466099
C           55.58181068318838       49.33452438942607       51.04258711107114
C           56.18355745761594       47.95758286573756       50.77023931421615
C           54.06974160630839       49.27493444837217       50.77918992008767
C           53.28535023628405       50.57087217041231       51.02129751345380
C           53.63750725786195       51.19412569187945       52.37152597073256
C           51.77031812839538       50.31061777325535       51.01214187734077
C           51.19618459802409       49.58417300227548       49.79200145914772
C           51.49747620229100       50.34117076908062       48.49938429213801
C           49.67332019580695       49.41591268896998       49.91993452097613
C           49.17210528715498       48.69936702322954       51.17903152970438
C           49.82724104668949       47.32796936517424       51.34303126939297
C           47.65097918429719       48.49917146244301       51.14149428345117
C           46.77505387665809       49.74730923584636       50.97973442594570
C           47.05062888427459       50.79180381273748       52.05925117280528
C           45.28996337050901       49.32739394609291       50.99656361324521
C           44.48622581093073       49.76522941157956       49.76611165850156
C           43.00280755728009       49.50189784719633       50.01399946071976
C           44.98489962412962       49.03329367473327       48.51719051498549
C           44.31391346315257       49.39915032889339       47.18534381319169
C           44.97667516195626       48.57894695684227       46.08114376984372
C           44.42171478999409       50.90374636090809       46.91753220640599
C           43.92265372596302       51.40732600517880       45.55659050011129
C           44.16697234414576       52.91554531105924       45.49201500132762
C           42.44317909698549       51.07578592754057       45.33211045537053
C           41.92005442348581       51.45631575897436       43.93320276596153
C           40.83912531427254       52.53348910774022       44.03946601017270
C           41.35536492224257       50.25151445438426       43.16732692064287
C           42.36784068773679       49.16991802342235       42.76278031982051
C           43.50075117268852       49.75254787836696       41.92048415854902
C           41.63497137862640       48.07210396917169       41.97737984759406
C           42.41149514062646       46.75421043334205       41.83145619229653
C           41.91659004523108       46.00569292855150       40.59377239854209
C           42.25916331616539       45.88114468551743       43.08317266641194
C           43.35242030503788       44.81052203982393       43.22564163405211
C           42.84804575858477       43.69056063899701       44.13577173845913
C           44.65965563275979       45.42054747023714       43.76309624198407
C           45.93783291624609       44.95149052919152       43.05692013463720
C           46.18366445358089       43.45669102066918       43.25410079884559
C           47.14672860129174       45.74355498338365       43.57885702738350
C           47.35662541930590       47.11963659752944       42.92938620836395
C           47.97752067005239       46.96092898441278       41.54334744083584
C           48.25304321499124       47.95411487309229       43.85173011212006
C           48.66318422039132       49.35302575520893       43.36887980393956
C           49.51863064371856       49.98857768775643       44.46578189041394
C           47.44451269087633       50.21799392087663       43.02619196661438
C           47.74336229880622       51.67557279219679       42.64701513278349
C           46.43797429584050       52.39521976494419       42.30789222364152
C           48.76675969900815       51.84002516135936       41.51523380127941
C           48.40075131129472       51.18110125224457       40.18783630495543
C           49.47613485442108       51.43053189836054       39.13608378893458
H           66.67802147450190       50.62215841365762       40.34440059316123
H           67.05558999002770       52.18597750597414       41.06792111473798
H           68.00615839741803       50.75889960339267       41.49037570225156
H           50.43083214147349       51.01844970107479       39.45702414621960
H           49.20572489674764       50.96651936970425       38.18996632737397
H           49.60479273872892       52.49824342627035       38.96732666543796
H           48.90429722279865       52.91131525857549       41.34158255552245
H           49.73010124904135       51.44643335901254       41.84452404387712
H           46.89855130326740       49.75354547432580       42.20364503420426
H           46.77594173876776       50.23014828137108       43.89160805292706
H           49.27920780151416       49.23910186256379       42.47393267828356
H           48.90702325443576       50.23445804801445       45.33183305145992
H           50.29505639755420       49.29542754475702       44.78285658965002
H           50.00613102391747       50.89460450743486       44.11856588410349
H           47.74493387044073       48.05875572411249       44.81324269334625
H           49.16842087129447       47.38278547614367       44.03042725960854
H           47.03184381315391       45.87109534084340       44.65773255041724
H           48.05524385207547       45.15848362379064       43.42134714460970
H           48.16474758720992       52.17597511086562       43.52554577131418
H           45.77387267309665       52.39758405615503       43.16849598785573
H           46.63304031357859       53.42810947473468       42.02627787951706
H           45.92313977500203       51.90676861996999       41.48383512788925
H           46.38542181574103       47.61426999339609       42.83010738307851
H           48.99746199543623       46.59125897661232       41.62824704717625
H           47.40818660981810       46.25581066587338       40.94154830031931
H           48.00035079985694       47.90816012806361       41.01101868737025
H           45.82337910975420       45.13704965960061       41.98267666248669
H           46.28398563565458       43.22612179861049       44.31282402933122
H           45.36935708456517       42.86564018864519       42.84273543001579
H           47.09987043448988       43.15430206126764       42.74951990516834
H           44.61127890234047       46.50638209621463       43.66841982894638
H           44.74634302794574       45.19515024307863       44.82873256200874
H           43.54532015057729       44.38265170778097       42.23622641474628
H           41.96367210132840       43.21921105668750       43.71056607658480
H           43.60545318459607       42.92361689298832       44.27297111612795
H           42.58326422878370       44.09077906352006       45.11142309516651
H           42.27030125038106       46.50971741938763       43.97614012593218
H           41.28098157620778       45.39488244849454       43.04298896134534
H           43.47333940925932       46.97633108854699       41.68976630279682
H           42.11220600640806       46.58319503225396       39.69251014408584
H           42.41285603066424       45.04348897939575       40.49217598157317
H           40.84438927864832       45.83014189143814       40.66178380353683
H           40.67918101942247       47.85472783484387       42.46164955767984
H           41.40881768980617       48.46542174400417       40.98304384236113
H           42.79544684153765       48.72658765246082       43.66764304099691
H           44.12252984316285       48.96143351176367       41.50805512968375
H           43.09660439082442       50.33155525354793       41.09192952144295
H           44.13963626209623       50.39812317281599       42.51495400041553
H           40.57217401777010       49.78948716275087       43.77561126209480
H           40.87890128700185       50.62080369908064       42.25423943242478
H           42.73922663024813       51.87292425108699       43.34197178149203
H           41.21855944279659       53.40395312600146       44.56923318581885
H           40.51051212943693       52.85179033684869       43.05159324272716
H           39.97330150813079       52.15205883695511       44.57823267423829
H           42.29419985453836       50.00736550013141       45.48560149067299
H           41.85563894796014       51.59297456402354       46.09422438994039
H           44.50940322161563       50.93108648096187       44.76435273307620
H           43.86073698950799       53.33216835028408       44.53557856335144
H           43.60857377328941       53.42355416318419       46.27531805320180
H           45.22427558798998       53.13296328082847       45.63374920968119
H           43.85933061473657       51.43467875444242       47.68805286199147
H           45.47164255944227       51.19221389478325       47.01959421686078
H           43.25843660137797       49.11554843427771       47.23628703790511
H           44.96609591282828       47.52178148211846       46.33707196562032
H           44.46492662935699       48.70058985343422       45.13074989211022
H           46.01204986933205       48.88784295641433       45.95475674616266
H           46.05703809000944       49.21224833227883       48.40949617413946
H           44.85151925399991       47.96060526189808       48.67825551619604
H           44.62916637427215       50.84261391990299       49.63817469546255
H           42.39041156982735       49.87877945940262       49.19865874206927
H           42.82007345590614       48.43309587320050       50.11615252407356
H           42.68143011411680       49.98966810623418       50.93248735033986
H           45.21460706444456       48.24086894882976       51.08265126375770
H           44.81148777024605       49.74880427571977       51.88183105490099
H           46.99886683472111       50.20906811167385       50.01404120813638
H           48.06193177040593       51.18221801836510       51.97806419747004
H           46.35923937747583       51.62570576559854       51.95654775817541
H           46.92901289832667       50.36413757757282       53.05245292221512
H           47.41648198602551       47.81444999244408       50.32086536534344
H           47.35786625863223       48.00519358895956       52.07251061832898
H           49.41175063306630       49.30347319628530       52.05813861966835
H           49.67522748176977       46.72485003157065       50.45010915159784
H           50.89445516295233       47.41435247954649       51.52206454297502
H           49.39156675627483       46.79715130661797       52.18724832622763
H           49.22247781772083       50.41034198652533       49.88029545980003
H           49.31783155142413       48.86023218937974       49.04708795753625
H           51.64895948203134       48.59205850056441       49.71843067277509
H           51.11228934419189       51.35790023743391       48.55314541506753
H           52.56643206427245       50.38961766022239       48.31362574888027
H           51.02863893595119       49.84718281602697       47.65041432190189
H           51.53736765071980       49.72496778937960       51.90379185067182
H           51.25866457616736       51.27325274245057       51.11003796923562
H           53.52388108216822       51.29096554381663       50.23307943929656
H           54.65950189126442       51.56141468955418       52.39291227208192
H           52.97685760618902       52.03109670387877       52.58427646378446
H           53.52137087806589       50.45732048861878       53.16390229247402
H           53.91668705144963       48.95589606457586       49.74671809285085
H           53.65072874283796       48.50015924883524       51.42795887051052
H           55.72972598619894       49.56687761357939       52.10046042073864
H           56.10120410831907       47.70799123474074       49.71534091335057
H           57.23352807766052       47.92242172993749       51.04756772880593
H           55.65997902711321       47.19689406312428       51.34438558343962
H           55.80493719538338       51.37715605754087       50.41960504562031
H           56.05595680083970       50.19682092298043       49.13825450041073
H           58.26757526194162       49.67491822541201       49.93929849690603
H           57.84117449364824       52.69237705647063       50.03348041189179
H           59.32410472175125       51.86731345838994       49.56209035007497
H           57.88789281226600       51.72366609481363       48.55768397212369
H           57.89270310094673       49.72122805427287       52.34087899689815
H           57.54519548694389       51.44737818426376       52.30483829026606
H           59.85955520610657       51.97212580859800       51.86129258951664
H           60.75907627810008       51.22461016218665       54.01975047834907
H           59.02272309713943       51.46583991473609       54.18954377758934
H           59.67272890024510       49.83580353688474       54.03078580604681
H           60.50859582140601       50.15621188606641       50.38468178139458
H           60.19039693093173       48.95777655638194       51.63577080799988
H           62.09374271249919       49.70728377024161       52.92662060902548
H           62.30247982551975       48.01952072246566       51.07999609763886
H           62.85977070584062       49.30139726723932       50.00586021903860
H           63.81675286567592       48.84740704807139       51.41759124856536
H           62.03040134220618       52.12633638746249       52.28200648002064
H           62.57692718742824       51.69132482609576       50.66699252553450
H           64.72844703186328       50.90424115013674       51.60940775115397
H           64.41324118820691       53.22830809712079       50.81514493377293
H           63.94865967417167       53.72842737320577       52.44179392626280
H           65.58708606699510       53.16045308504174       52.12172923207196
H           63.77653716601407       50.30816144546470       53.89580687795533
H           63.67345689447765       52.03346248355795       54.23420416853064
H           66.15639432079610       52.18019387505829       53.99082161860358
H           66.60806214832377       51.07594031007530       56.17772206215585
H           65.05647609150704       51.91348661310750       56.19303683288401
H           65.10763065837240       50.16291337988199       56.02330848069295
H           65.92270587802878       49.62107016790992       52.80306936798883
H           66.65936351169059       49.31341921768934       54.36243343837193
H           67.67950810807031       51.36896277920984       52.36726380152184
H           69.73461893895063       51.30685333752198       53.77365590319801
H           68.34101403447043       51.84792784436550       54.69587468649186
H           68.93952541067969       50.19772876351809       54.88786027854244
H           67.72264889174018       48.96805432930431       51.57293948395697
H           68.72319374969635       48.57310810941158       52.96559634269389
H           70.48296732967124       50.10510515861521       52.13163752869713
H           71.19115965262318       48.62911575927433       50.26706838694360
H           70.54431021179013       47.70910254611832       51.62360995150994
H           69.56013971319760       47.95976918092083       50.18100442880679
H           68.37829991875358       50.97346691076390       50.32648791104634
H           69.70878311019030       50.34887056935741       49.37530838546689
H           70.17010487123875       52.34947914981936       51.60669418049878
H           72.12402336174641       51.03446175922392       50.74378933575458
H           71.79368998873082       51.64942563563405       49.12498048783631
H           72.27337773777988       52.75706941846052       50.41108468839924
H           69.49498224771683       52.81655352595931       48.69150142975462
H           70.37925503931703       54.00807026254765       49.64192222657550
H           67.59788706247024       53.00335512001086       50.36375874186804
H           67.58074003552635       54.99658245244698       51.84768511560726
H           68.86117483809262       53.88140999694201       52.31067696618217
H           69.25289502162940       55.34533476301502       51.41022570012598
H           68.49118266039316       55.52650906192797       48.92090237595170
H           66.90075063829804       55.29220674971122       49.62318402366732
H           67.24462575133622       53.00618400129884       48.04048420627952
H           65.42842114083624       53.96664045281948       46.69713852741428
H           65.17008038708363       54.34197127873799       48.39688213487432
H           65.79779667838052       55.58011296909488       47.30561570618768
H           69.21774270030245       54.16988125100790       46.98855429941740
H           68.14657803513134       55.48228730821197       46.51558623673975
H           66.87458575321914       53.94053451934679       45.06908546762664
H           68.59714277574781       53.82254039228479       43.31956862508499
H           68.80648156183034       55.29835180041211       44.25503599091122
H           69.87497969473000       53.92315656593605       44.53149305639459
H           67.28623481474852       51.83595995165560       46.27936038104048
H           69.00561934361474       51.93613853121118       45.91026315685286
H           68.53954336803140       51.58482797118067       43.52721222540921
H           67.91961786699979       49.22206963129226       43.73701104070463
H           68.88892843573306       49.68704818604531       45.12835100013540
H           67.13989755348906       49.52936030267655       45.28987014809196
H           66.31506428726289       52.66579473483408       43.42689040784610
H           65.63431233385778       51.38722580529505       44.42925554069569
H           66.05216802659164       49.75105078174614       42.61205333673890
H           63.90568018223259       50.99955175957660       42.76739177192520
H           64.55543359749724       52.24869029506967       41.70980997712127
H           64.31217987794692       50.61308568442843       41.09490898920394
H           48.28415780478775       50.10509066829683       40.32611727883639
H           47.45072215540288       51.57632465415903       39.82414070188709
C           40.30957216229992       49.69366376966623       65.16337077570967
C           41.74609258653612       49.23517794021565       64.92117841905413
C           42.49752821932323       49.18731257252580       66.24576109725911
C           42.42329532590431       50.17796984192645       63.92173706755386
C           43.84940244535085       49.80843868042334       63.48780910349630
C           44.38378682438780       50.87650667292086       62.53449467470566
C           44.03334721063599       48.39302312881446       62.90912730191733
C           43.64636378512095       48.13387667263946       61.44591186371029
C           42.15804107189588       48.33582733506829       61.17388351039366
C           44.04037481300734       46.69394536118500       61.07465221990054
C           44.11331660082165       46.43664176987982       59.55733923262122
C           43.32381385290597       45.17998039965186       59.18600739057703
C           45.55793293891251       46.27824346928256       59.06780245176815
C           46.46883891105901       47.49283693313230       59.27922599107808
C           46.11494802023837       48.62158643470203       58.31378043794574
C           47.93565537894446       47.10163573240513       59.05854031763918
C           48.58129883407643       46.28209000228737       60.17877272602642
C           48.84273280245748       47.15181292706450       61.40790795422497
C           49.89913738398231       45.65171276946482       59.70806886106009
C           49.74472625754454       44.52491432981848       58.66566687449235
C           50.57236568541312       43.31323313683708       59.08941480963293
C           50.16601558728969       44.99617599290848       57.26738760539837
C           50.08125506697260       43.94448267118877       56.15181376512990
C           50.54082232085513       44.56561365708465       54.83360781752943
C           48.71888279947478       43.23965066289255       56.03948931524675
C           47.46271638371872       44.09299360267534       55.77887726410894
C           46.26426000197153       43.42393416413012       56.45475850912149
C           47.21619654286328       44.26650770754906       54.27355298727349
C           45.90151600556872       44.93816220441671       53.84504467763767
C           45.86817809122186       44.97022163631545       52.31675122394525
C           45.75937264277042       46.34525760981639       54.43634368709503
C           44.40737734072690       47.03990068504804       54.20357284523745
C           44.52469586333680       48.50987773022397       54.60452892179701
C           43.29793155703951       46.34536585307292       55.00304007397748
C           41.87565431699304       46.90104110208071       54.82922720501482
C           40.97607231148154       46.27784381548875       55.89741320752536
C           41.34429033605254       46.62017637429338       53.41820696236923
C           39.99659569963835       47.26700574584506       53.06349426231947
C           39.47105517344173       46.65183577527652       51.76741765587970
C           40.13368896243291       48.78621723606613       52.91564408307998
C           38.79447395267202       49.54122557001992       52.79557604302232
C           38.68453127316141       50.24668124183030       51.44474318298840
C           38.63615851572857       50.55935170638888       53.93281610263832
C           38.33266058810038       49.89595350315605       55.28550800264222
C           36.83588934888495       49.60506250021443       55.39132751402313
C           38.82631541153307       50.74176745297755       56.47505273783889
C           39.65974216202968       49.94525498512442       57.48762669023755
C           38.78252454606239       48.99733758437761       58.30299411153457
C           40.42358054862225       50.88621841898159       58.42969366730372
C           41.68244244242257       51.52036979572065       57.82479897637719
C           42.76138609058189       50.46377501737458       57.58883087523625
C           42.27062491401001       52.59757868071979       58.74805158850410
C           41.37431657077217       53.80193043977516       59.05065937566555
C           40.99586270248357       54.54190690702956       57.76918541597783
C           42.06404882404073       54.78373960815119       60.00932256356857
C           42.52456557308022       54.19940197528762       61.34980195420866
C           41.39570832751323       53.45589536904546       62.06306550429746
C           43.03461985492498       55.29651212534243       62.29337469323344
C           44.17547665202046       56.18161130980660       61.77971155491550
C           45.38573560221766       55.34525405392553       61.36599552418663
C           44.59912702460531       57.17294301593290       62.87360634499640
C           43.58323164202920       58.27609169631744       63.19377652192142
C           43.61192571645674       59.36490009874060       62.12240620248601
C           43.86009568251168       58.88804872563938       64.57403465171539
C           43.53959502373108       57.94612870332081       65.75409496698175
C           42.57734897131627       58.62453216108237       66.72966905176673
C           44.81112719155440       57.49788937123009       66.48845195087972
C           44.65036663277147       56.22651039944878       67.33619722412752
C           45.78771805169693       56.15593026458169       68.35360646757672
C           44.64152003795486       54.98064130207228       66.43971251711274
C           44.17879015693904       53.67262785471321       67.10395955427802
C           44.96196035137587       52.49530136488942       66.51845860749864
C           42.67845574832608       53.40139857156158       66.91580840830626
C           41.71215144633194       54.35672087869317       67.62134985442941
C           41.91237956357517       54.32771027885163       69.13761498734246
C           40.25063038227320       53.98810754166979       67.32502604555653
C           39.76890859911634       54.10356696155620       65.86954215102429
C           40.09553881651276       55.47238634647540       65.28018442456266
C           38.25336108128795       53.84788651064688       65.86678469519349
C           37.57175698110438       53.66599323700765       64.50146827766594
C           36.05711981940860       53.71776438087303       64.70799556717506
C           38.00601217748865       52.34860884764468       63.84727243992386
C           37.27663910446343       51.94967743549910       62.55441828140618
C           37.80897037103298       50.59354698363961       62.08973822785941
C           37.44805465132980       53.01535009294160       61.46636176790965
C           36.76321701470100       52.72900674934336       60.12182098395532
C           37.14633123672170       53.82511428687175       59.12844901276924
C           35.24164113024101       52.64460940419080       60.28891255198733
C           34.45636664974339       52.32698005082248       59.01452878239429
C           34.77282417751115       50.94891292960173       58.44565964162965
H           40.29701590931995       50.69742225291603       65.58383823397754
H           39.74863983847253       49.70527024395633       64.23263881402256
H           39.80550002433459       49.02573828741307       65.85972740311752
H           34.12726198205952       50.73011885892008       57.59764234501172
H           35.80339288242304       50.89417626992275       58.10619108336187
H           34.61798887093218       50.17975275258475       59.20012839546036
H           35.00619763852038       51.87247598692357       61.02421098317686
H           34.88485013921817       53.59886601069712       60.68776677508951
H           37.06658274595262       53.96792872088877       61.83780955108618
H           38.51777452063070       53.13888624838046       61.28491537300568
H           36.21443455272623       51.83076875329984       62.78476616003344
H           37.22359778889885       50.20387508081782       61.26134874860470
H           38.84536801486644       50.67920732521242       61.76950395239801
H           37.75594024819313       49.86817219692300       62.89935914980338
H           39.07422730985394       52.40029209424719       63.63116918328083
H           37.85559863539743       51.54667230633648       64.57523987937466
H           38.04939828204390       52.95551867905431       66.46575361122127
H           37.77764685230466       54.69101793129750       66.37627760449493
H           37.13463178689905       51.77624412008345       59.73570796821976
H           36.69030873706746       54.77156715621681       59.41215378981018
H           38.22535615888311       53.95792333199618       59.10352983086555