3536
 energy: -3716.279695974247 gnorm: 0.000709826474 xtb: 6.6.1 (8d0f1dd)
C           34.76693437917903       49.54028007610717       53.38345231881265
C           33.55058714630908       50.12047475253882       54.10112514642507
C           32.27043659415290       49.54961193395582       53.49261785535370
C           33.53655084361548       51.65255566172014       54.01905795268748
C           34.52537204761899       52.34744166035357       54.96773052434951
C           33.96078992117229       52.39454442843575       56.38657865628531
C           34.82249773126844       53.75780118510390       54.44452745589779
C           35.84713072977627       54.58391798568564       55.23665728410025
C           35.90399238663796       55.98363295304176       54.62917656950981
C           37.21847037787283       53.90022146966066       55.20309755706951
C           38.40651004221747       54.64866847855123       55.82662365320538
C           39.65877816657679       53.80545241515681       55.58151726869323
C           38.19092218263145       54.89833209836767       57.32513185711996
C           39.28972469738740       55.72027269457487       58.02709395434144
C           39.65334050730751       55.07340850351032       59.36505688456484
C           38.88175136815664       57.17794421495105       58.28053967106165
C           38.68301930020402       58.05729572491835       57.03988047614225
C           39.96317738784249       58.15061710329612       56.21325312988773
C           38.21545384811616       59.46699280053656       57.46126583613260
C           36.86439177053379       59.93049605007733       56.89652355322941
C           35.72380623118676       59.05092284217356       57.41168535845484
C           36.82615912934067       59.99958738103061       55.36462508028462
C           37.74301930154441       61.04267819980798       54.70835528518397
C           37.36935363494614       62.46028276036479       55.13515825156261
C           37.65129035778981       60.88783087387928       53.18252307931136
C           38.75278972016358       61.59867776726853       52.38290006310724
C           38.35599200183542       61.63246915537628       50.90583160457351
C           40.12257941656781       60.91875996793412       52.56614060194178
C           41.24688076566363       61.85637478239919       53.02902248370093
C           41.59972942056520       62.86169483006059       51.93514277479089
C           42.46110732773185       61.00739077620593       53.43099803184551
C           43.67216491677364       61.76631985689846       53.98325307979281
C           44.84028483398179       60.79377155301073       54.14768364039702
C           43.41375231183564       62.56009236263429       55.27602216524908
C           42.98350671526732       61.77118392542059       56.52818645859418
C           41.46293199328651       61.68871720762670       56.63709515038960
C           43.56229111680567       62.45235282764351       57.77567208404832
C           43.36437786925892       61.73280776023314       59.11633289667378
C           43.84294317585038       62.66560084627029       60.23096481135609
C           44.10697223537467       60.38482260249764       59.19007167183285
C           43.22526897044567       59.14527315311977       58.99540354622309
C           42.28075957254771       58.96637350450472       60.18210148777459
C           44.06845674601409       57.86779054592386       58.86367515327728
C           44.84880269951125       57.68764032910075       57.55786727357005
C           43.90150578143442       57.55372584499899       56.36502966126955
C           45.71255776451510       56.41919359875149       57.61409087390823
C           46.92287200912642       56.41601355843262       58.56069396672390
C           48.02249497262328       57.34082756043495       58.04923540057913
C           47.40739305164409       54.96323019026848       58.66893007232314
C           48.66567445839355       54.67906487850274       59.50063629290387
C           48.91066222279989       53.17080529188830       59.46181099303310
C           48.51831779257680       55.18641025344495       60.93878711860054
C           49.63255111123895       54.77699829289899       61.91356784351708
C           49.29849137136226       55.31440533964204       63.30366226300475
C           51.01101421888991       55.26499504176212       61.45504700390433
C           52.17903308856955       54.73970065581020       62.31252616492710
C           52.73457188355352       55.84000170019400       63.21486431776174
C           53.31568204825538       54.18978217908325       61.43907593181459
C           53.01055990503983       52.85475004985081       60.74504856360432
C           53.00734251441077       51.70564004248629       61.75189189863235
C           54.02240508258170       52.58661260984822       59.61381645956144
C           53.42410074614422       52.24193780605104       58.24062676730605
C           52.61543916783070       53.41275750695502       57.68253741616059
C           52.56497859323118       50.97377387817466       58.23854665763859
C           53.32539317542204       49.66730594099958       58.50320307102962
C           54.22175698852263       49.31014494437300       57.32056903684717
C           52.31237901627529       48.55065617444549       58.78042697206484
C           52.87648250236278       47.22045293290061       59.29456923785350
C           51.74101256138061       46.19773257758757       59.32417292832304
C           53.51449892787831       47.34729720442460       60.68986252060829
C           55.04019735160694       47.49734468912079       60.67155006191560
C           55.72867990914032       46.17551648120774       60.33866430261790
C           55.59213322495969       48.11500583724582       61.96785054419708
C           55.43922075141681       47.28712495851537       63.25486521875273
C           54.18999683116475       47.68735940798204       64.03659925734482
C           56.67746995149179       47.44859111360328       64.15102490981658
C           57.90298029982131       46.67596417173053       63.64663609583959
C           57.78286359338152       45.19220302768569       63.99055729500928
C           59.20920488254585       47.25254446014413       64.21219257450291
C           60.42983350161634       46.93948045580466       63.33573714443698
C           61.72178811432364       47.11510364985518       64.13235227547086
C           60.45909789859866       47.82669366712553       62.08096290048329
C           60.99169366969126       47.10773657429640       60.83246637592124
C           61.48895446829275       48.13256595188800       59.81603190967312
C           59.88612892282787       46.22858952288445       60.23485995471108
C           60.32128603156826       45.20730693622905       59.17567689436046
C           59.08167208033839       44.70622370930251       58.43568519315220
C           61.08365852397376       44.03528725451334       59.80442190256471
C           61.86217417344252       43.20789195436222       58.78372878808756
C           62.63158170580817       42.06897595359737       59.44119843025913
H           34.79101401483344       48.45774407694321       53.49052307540472
H           34.72725650700418       49.77728405307414       52.32196307355578
H           35.69087826746428       49.94187012400776       53.78916740088177
H           63.34667961448383       42.45611321174448       60.16439934595981
H           61.95217112437020       41.39635142094991       59.96142361719573
H           63.17706402506992       41.49494287067464       58.69512217659892
H           61.79140965988711       44.41648170575395       60.54302429069237
H           60.37627663977040       43.38956695183666       60.33204936603630
H           59.39100281263025       45.68017634076371       61.03975236860963
H           59.14187353800521       46.89315200067425       59.78641287379526
H           61.83801799618207       46.48013497546990       61.12970467704187
H           60.69664719108138       48.83452514009980       59.56395577651317
H           62.32657567042998       48.69595586732060       60.22004110108813
H           61.81962543054010       47.64765381363060       58.90188658097651
H           59.45654579003551       48.19852463184081       61.86024606082164
H           61.08085569475880       48.69948424269672       62.28955487718418
H           59.12618462654733       48.33747998531943       64.30925447238080
H           59.36828822876325       46.85098864182250       65.21615424110693
H           60.98220410323488       45.69681210560898       58.45242096864651
H           58.56669398500422       45.53005153534795       57.94706314148855
H           59.34796146072457       43.97562930580663       57.67769241676506
H           58.38895487221622       44.23810387259680       59.13278749472997
H           60.37154748402209       45.89040332462616       63.02790571834261
H           62.58845285548158       46.93961402885359       63.49873801336373
H           61.78855752343653       48.12603774491637       64.53008773946118
H           61.76233596546069       46.41726363809437       64.96686164146146
H           57.93526568805985       46.76667011354340       62.55754442798811
H           58.64311542022733       44.63671346067218       63.62344239587157
H           57.72500715520457       45.05288699958769       65.06897092266546
H           56.89093807898425       44.75832426995081       63.54537373252838
H           56.91595853093020       48.51362605609329       64.21366729168375
H           56.44130328736966       47.11095709401786       65.16363522614404
H           55.34686495774842       46.23011790746234       62.99575709817972
H           54.08642531979382       47.06585744762207       64.92556367364509
H           54.25497880649067       48.72718467323905       64.34925977295657
H           53.29447032524907       47.56495599581121       63.43479006443629
H           56.65418723135207       48.30745630524319       61.80054625140762
H           55.11536816801376       49.08670648614977       62.12173614418779
H           55.29803869312528       48.19733740061580       59.87145479005076
H           56.80743216911169       46.30610940779692       60.30452763199759
H           55.50239681481641       45.41006929529355       61.07716037852444
H           55.40331653825572       45.80600334319532       59.36954436201195
H           53.07636346664304       48.20962485071319       61.19731177619470
H           53.26428306402423       46.46224823076799       61.27935098329353
H           53.62749446658904       46.85885388292842       58.58948110081021
H           52.11092089229339       45.21806021046336       59.61574635791405
H           50.97569220146750       46.50271704275994       60.03429557061774
H           51.27568961993718       46.10771768217202       58.34456615916682
H           51.58311648698016       48.91028339705834       59.51253961311394
H           51.77023237345849       48.35162575038778       57.85201260381699
H           53.94874233136118       49.80221668258543       59.38993067288519
H           54.76292124193535       48.38614732266299       57.50950899852285
H           53.62708159123034       49.17896060622773       56.41851055407958
H           54.95270381732001       50.09266737490562       57.13649904899273
H           51.77554111196567       51.08466307727777       58.98477039815003
H           52.07332188400991       50.89413124102821       57.26556007337851
H           54.27256597942421       52.08410525815029       57.56351298310933
H           53.20573216158555       54.32648334996217       57.69881361359510
H           52.32158132018459       53.21560282337108       56.65383284833555
H           51.70977685786370       53.58047973630976       58.25905262223651
H           54.64288219722306       53.47503558969244       59.47720880421591
H           54.69814385892022       51.78419538805475       59.91489340855644
H           52.00821532609401       52.91979951421366       60.31506611028978
H           52.27438651951150       51.87406155881616       62.53843276786387
H           52.76376358276386       50.76596183001553       61.26261576703893
H           53.98533218643812       51.60421535297964       62.22029464743310
H           53.54955243227402       54.94420257873897       60.68324326917863
H           54.20894396225707       54.06235208694569       62.05640420514739
H           51.81208306878948       53.93115087759683       62.95278442226747
H           53.20102582382305       56.61563917400655       62.61120932700947
H           51.94628025664966       56.29527581617897       63.80830323993911
H           53.48476207354273       55.44038838736725       63.89341434614639
H           51.16475880240687       54.95526809207779       60.42211766580085
H           51.01552381127935       56.35754565321579       61.46092078470078
H           49.65477707758365       53.68336805050502       61.97860738474527
H           48.29269004499053       55.01738256868291       63.59668366947097
H           49.99339748379143       54.92731978130116       64.04420417363153
H           49.35079200466591       56.40167808547550       63.31690764379669
H           48.46244692174760       56.27718563099784       60.92297795378246
H           47.56896905466530       54.81244077188525       61.33389239180673
H           49.51468684164191       55.18076518639322       59.02534430109169
H           48.94450627451148       52.82392883244455       58.43095774549142
H           49.85098530954286       52.90156010308463       59.93419099998040
H           48.10912850025810       52.64404920321221       59.97693141569820
H           46.59024320766185       54.36631794850385       59.08202104155172
H           47.59629609726767       54.59743437950084       57.65557703653518
H           46.60895248505813       56.75822128492907       59.55145143255127
H           48.84716004774825       57.39486176453484       58.75425671702652
H           48.40986597393474       56.98056932350472       57.09825519252358
H           47.64064987726471       58.34792291202613       57.90401582226766
H           45.05741970147201       55.58617073696497       57.88672530332765
H           46.08281653443749       56.22207403022183       56.60535113284197
H           45.49359232456725       58.55600800334043       57.39233102531824
H           43.24058325872699       56.69961625528304       56.50147776026377
H           43.28417537958219       58.43839165307486       56.23770104434750
H           44.46533136814295       57.40446409954941       55.44693618272782
H           44.76633037577029       57.84225842305063       59.70352865177307
H           43.40149742380807       57.00700365986700       58.97159093520931
H           42.61977351404882       59.27499176754934       58.09506071933655
H           42.85086749298137       58.74828034753919       61.08156584401760
H           41.68702167013427       59.85802322271604       60.36280063822252
H           41.59851238692907       58.13613520121624       60.00758697718687
H           44.90224785455577       60.38060339080241       58.44432644487566
H           44.58453696865151       60.29449889807789       60.16928088273946
H           42.29518369328096       61.56703982566503       59.27138190904778
H           44.90441967803783       62.87736537131826       60.12155333700585
H           43.30735525353195       63.61288160143712       60.19546192825496
H           43.67978785512853       62.21717897109001       61.20889301255236
H           44.63575671253194       62.59578885179474       57.63346466379583
H           43.10836441591365       63.44399810271486       57.85320028332806
H           43.38889775776171       60.75887701969140       56.46752268784054
H           41.16781751193960       61.14248829484143       57.52991958432855
H           41.03236967980033       62.68808681266189       56.69413347130740
H           41.03383965256310       61.18231850846061       55.77951828269607
H           44.34753357690900       63.08362731257981       55.50303786626575
H           42.66849249246508       63.33333615248319       55.07491997230098
H           43.98023711184495       62.50338907172332       53.23139183369433
H           44.60429865763505       60.00222991362222       54.85246431898774
H           45.07643726165873       60.32973081015107       53.19290393101920
H           45.72671893816324       61.31490973301506       54.50093992291117
H           42.14940030926523       60.26199853418259       54.16557478732781
H           42.78954298750453       60.45691764510975       52.54520922728375
H           40.89006155504105       62.41433645672571       53.90047829855745
H           42.01465027091312       62.35220089978249       51.06710087577376
H           40.71647037303963       63.41149737002237       51.61788607339930
H           42.32912962244565       63.58554635143410       52.29101296850409
H           40.02773659641041       60.11038853580757       53.29315694590080
H           40.42590322019484       60.45631145770816       51.62460680669284
H           38.82006366862197       62.63299201570582       52.73449216860342
H           39.12569955876904       62.11445872922310       50.30764556540422
H           38.21245218688203       60.62153916704331       50.52925465240975
H           37.42589827252085       62.18121368945567       50.76801670177233
H           37.68241686180892       59.82461034555531       52.92842559361847
H           36.67843347906857       61.26802315754665       52.85905999412522
H           38.77407856749769       60.85515091511576       55.01790970033686
H           37.54453952701020       62.60588664083034       56.19787825388747
H           37.96570474339951       63.19512558912187       54.60019525948695
H           36.31897970342204       62.65693935370950       54.92775667478995
H           37.07814944010948       59.01689757869813       54.96137539780411
H           35.79799562790256       60.21478614741449       55.05895123410237
H           36.68900851874903       60.93842869964074       57.28914451556329
H           35.80789764921158       58.03331824463822       57.04027873779485
H           35.73291160953941       59.01880476016096       58.49940846850883
H           34.76203155033117       59.44673101960650       57.09132661814157
H           38.13821263323175       59.51046593501525       58.54985836055468
H           38.97194640518143       60.19762836149835       57.17397034866372
H           37.91237333561595       57.59564937745120       56.41980241195346
H           40.77568590316647       58.54120775416850       56.82127466876918
H           40.26092413487307       57.17922535392038       55.82775795489223
H           39.81451248162575       58.81458153694623       55.36474027775972
H           37.95622108285905       57.18118271080194       58.86346321784256
H           39.65596229670604       57.64278230172756       58.89758458285462
H           40.19283477016474       55.72044801453504       57.41381309715612
H           40.02077909445562       54.06126554779744       59.21250498041857
H           40.43302832665199       55.64022313244358       59.87039117284663
H           38.78550623283581       55.03269100032951       60.02107657755390
H           37.23375952723924       55.40179759004641       57.47103792983999
H           38.11286697017209       53.92220435174892       57.81136168776524
H           38.53513263362737       55.60430302144837       55.31230296373059
H           40.55319518890403       54.29822160118770       55.95094869136705
H           39.56902068109343       52.84229954172832       56.08120019246556
H           39.79215591610689       53.62699613659789       54.51658501661867
H           37.13678951782890       52.93443570458741       55.70811495362407
H           37.46204057471328       53.70561965554987       54.15488579659406
H           35.50415924180881       54.67172233063958       56.27189708029751
H           36.52468941386397       56.64342519518443       55.22706881660979
H           36.31585764377915       55.94153185865078       53.62414266990331
H           34.90771685923876       56.41897210270309       54.57636754798901
H           35.18420670018608       53.67825982320506       53.41607318502064
H           33.87933564392273       54.31108899845225       54.41514990787946
H           35.45426875866213       51.77063562584074       54.97639328998293
H           33.12838343794714       53.09414134741758       56.43811343521056
H           33.59835626590477       51.41610341351844       56.69326615664769
H           34.71881657282628       52.70991232428308       57.09938011822282
H           33.76027364456284       51.93867265461994       52.98833898583104
H           32.53072461613053       52.01608737064153       54.24309878144311
H           33.59216959050558       49.81831104551850       55.15311430895563
H           32.28013492664444       48.46222742218381       53.52972659865324
H           31.39456138635502       49.90183135118659       54.03331711679359
H           32.17693897563377       49.85599214978643       52.45244717038032
H           61.17843539375252       42.78930767934192       58.04282794598062
H           62.56567058168816       43.85814314849938       58.25954950991332
C           71.87692402264531       39.86091050978499       43.44556854933600
C           71.20269823236167       41.22779710073331       43.32470977288403
C           71.08698242617022       41.87209048363094       44.70338755442722
C           69.83573326818154       41.05987820183991       42.65066708063184
C           69.02883180195333       42.34364138459799       42.40556164337391
C           67.63996499120800       41.95857409031662       41.89696158504634
C           69.74473762138339       43.26176036668046       41.40814033984257
C           69.12234228264032       44.65152229651568       41.19955374547561
C           69.80148253368095       45.31888295074535       40.00321625151383
C           69.26474067018161       45.50198872409636       42.46748493495321
C           68.73171903614370       46.94169826711002       42.39669166056400
C           69.06214846986819       47.64183756241845       43.71429996900193
C           67.22377432461921       46.94797808267703       42.12519342830883
C           66.54616717305977       48.32369924839681       42.04112278309221
C           65.03595558708750       48.11723209852115       41.94376404330369
C           67.08480507118806       49.12471193359145       40.84863497386703
C           66.40976587662480       50.47729109271415       40.57951482420631
C           66.90865253709180       51.02578503438461       39.24152944197812
C           66.67745429860327       51.48547388565539       41.70349057489290
C           65.66244228476070       52.63626170178197       41.78139708401356
C           66.26302600436097       53.79844286341192       42.56711264912458
C           64.35868132895119       52.15770795050003       42.42860768970315
C           63.20332653981780       53.17621238807754       42.38527295104273
C           62.92501451573902       53.73534123705719       43.77996689504037
C           61.92504129518614       52.53379616719676       41.82972564347070
C           61.96689287014823       52.25388510944131       40.32054049572268
C           61.55506500850586       53.50328492462229       39.54396449668556
C           61.06127341153186       51.06742914781851       39.94717546519541
C           61.72814458311519       49.70394066266102       40.17372759729231
C           62.71914751058496       49.40934207005235       39.04578907961155
C           60.72890640696257       48.53964451736437       40.24690041421317
C           59.68252039447629       48.58062466690097       41.36853971373198
C           60.29879546964462       48.92703755923601       42.72194615760955
C           58.97721889448341       47.22167213723669       41.50319487730213
C           58.23295688299464       46.70751419042379       40.26694230896485
C           57.23746218745710       47.74400787758850       39.74861117493762
C           57.46368031286675       45.41755098368905       40.59270656223718
C           58.29517043845639       44.19572022197521       41.00930460271471
C           59.28347055377230       43.80383736995866       39.91435318418645
C           57.32787819118459       43.04458277425118       41.32487048318962
C           57.93673351746856       41.78367326976421       41.95770109902778
C           56.90524735864813       40.65656978650853       41.89576441143331
C           58.37334418095711       42.04676169342647       43.40214548410778
C           59.24256901884296       40.95103862341551       44.03470331166405
C           59.38710897910779       41.22851794099468       45.53166910970226
C           60.62776393718217       40.85196511660327       43.36447117985139
C           60.91882108854546       39.48996406638843       42.72392467773749
C           61.05297728658370       38.40798146650251       43.79687004359005
C           62.20900601913339       39.51269683950453       41.88971019241788
C           62.21304987925587       40.41980127606924       40.65152606028090
C           61.10443580507773       40.04278638579390       39.67142679007174
C           63.57964111291344       40.32485118631865       39.95482688421789
C           63.92928896077962       41.51151218090123       39.04284860773633
C           65.04892247469725       41.09560713011731       38.08689885224138
C           64.35958469902077       42.74960803309228       39.85019580513329
C           63.28381182037534       43.83093162642167       40.02294913090785
C           63.17121693633084       44.68102130799913       38.75847738247967
C           63.62223348637351       44.71711699607578       41.22759033814403
C           63.39065543624967       44.02419893489637       42.58429322959952
C           62.02503919988298       44.40872812172452       43.14666663062228
C           64.52715048528059       44.38329790836054       43.54636093961406
C           64.52928876816122       43.70697725136598       44.92437883856755
C           65.73762741990257       44.23522028011082       45.69831088909451
C           64.56110068008485       42.17931677697187       44.78952825762802
C           64.65234685916968       41.38385020581971       46.09967527296318
C           64.89729930360011       39.90873075193317       45.77824214138506
C           63.38492570538045       41.53864531990752       46.95150942160752
C           63.58765283630883       41.34957626532246       48.46375866788383
C           62.22099412912783       41.24129139689580       49.13716691486417
C           64.39877496234131       42.52270623228780       49.02685896420066
C           64.62231629199518       42.57926716794360       50.54484518477375
C           65.49853761527638       43.79781902835251       50.83661188209576
C           65.26937096821926       41.28972246488838       51.06411665238662
C           65.76680175090577       41.32640659287277       52.51703668630234
C           66.48046223384266       40.01018061474987       52.82558884166652
C           64.62136863490129       41.58841954255399       53.50180282190264
C           65.07744406338219       41.85253064850850       54.94830208461686
C           64.84150878820755       40.62543098495694       55.83228135384267
C           64.34634278133201       43.04367365474698       55.58494133119135
C           64.56557145761454       44.42576927306413       54.95199957684079
C           66.04861852754613       44.77116688619601       54.85087055860723
C           63.82581299992106       45.46659267087700       55.80548060122307
C           63.58795749032925       46.83027480325566       55.14038536299514
C           63.27045019945574       47.86440112987977       56.22000324331624
C           62.43762900250400       46.73879807171953       54.13248947405463
C           62.21976631488434       47.98739848036002       53.26968317552021
C           60.80452513669506       47.97475547374238       52.69652231022859
C           63.27469761012385       48.16246328978679       52.16841614134653
C           63.29549128810179       47.08699776005107       51.08508069419825
C           64.29550851912597       47.43827990003710       49.99040218575033
H           72.86698129894316       39.95974689000273       43.88556192187510
H           71.28638886514459       39.20006383674649       44.07728836202369
H           71.98275760077344       39.39508040227950       42.46813261508080
H           64.01807947217647       48.37434428677900       49.51036011913650
H           65.29641714518279       47.54801970206029       50.40338452408484
H           64.32228663984827       46.66218976140297       49.22726032895844
H           63.09649757435858       49.12624121344110       51.68434119162725
H           64.26411373433670       48.21147347281041       52.62956497208980
H           62.59416151769437       45.88061617379416       53.47831479636228
H           61.52036391599071       46.54715439126699       54.69442450345846
H           64.50178027101951       47.13788133243950       54.62335382283920
H           63.23128366846844       48.86936145968777       55.80988592470705
H           62.30653735278437       47.64431042984059       56.67518026346614
H           64.02690355803473       47.84925294562748       57.00198047463032
H           62.85374247158986       45.06049454470646       56.09812666571853
H           64.40183462165193       45.61563785724370       56.72230512672589
H           63.27477845190379       42.82652112578651       55.57762871060360
H           64.65784314165587       43.10214995752558       56.63237005985148
H           62.29283135028601       48.86989307375472       53.91379802733971
H           60.64496556728915       48.84221340511834       52.06337746852692
H           60.62754763793478       47.07729010832924       52.10939601346357