3864
 energy: -5104.091810925992 gnorm: 0.000816088194 xtb: 6.6.1 (8d0f1dd)
C           73.22700712118512       56.05630740650940       52.13629057778284
C           71.98411052574254       56.64748780921733       51.94243981452044
C           71.93818538760310       57.93165441936694       51.41491638477491
C           73.09901509788368       58.60898962024149       51.08557838039142
C           74.33023674447432       58.00913661667780       51.28171332074674
C           74.38942358148348       56.72985751565466       51.80808428522167
C           70.70961490130608       55.93526972295391       52.32640637919893
C           70.63407940565249       54.54377009252879       51.69346635950474
C           70.62303794255061       55.89338699708355       53.86137169182369
C           69.27893999854405       55.38415641219814       54.40116455060421
C           69.40631619741441       54.98348365074637       55.85047815226703
C           69.06360186241353       53.70146839898223       56.26113856468859
C           69.18233642391124       53.31952830366622       57.58615301774395
C           69.64044350855822       54.22349325096430       58.52859446968850
C           69.97319798694920       55.50914230919120       58.13552861084931
C           69.86085053322689       55.88315925743028       56.80840994701424
C           68.16062399917955       56.42666530930441       54.24364249700532
C           66.78511011522090       55.77920775404571       54.44404116770961
C           66.56605039000756       54.69478393593157       53.41736051206512
C           66.30938711444713       53.39109547878769       53.81991999953058
C           66.10253660480028       52.38711381343552       52.89086933777769
C           66.15035055498710       52.67184079024646       51.53797964281284
C           66.41895545506121       53.96594788869631       51.12309380125804
C           66.62298916956702       54.96641266990883       52.05547838683476
C           65.62031950882421       56.77801761591039       54.36290904811295
C           65.68314225203584       57.96220888908110       55.34267782093165
C           64.44269018777139       58.79940039722867       55.14577516595077
C           63.20838027240367       58.40387920970110       55.64693870686094
C           62.08208764494812       59.18183583077682       55.45239305828120
C           62.16621838582764       60.36316683871338       54.73579110879678
C           63.38663737642572       60.76263965486250       54.22018398503889
C           64.51316674422118       59.98626203050510       54.42700525889578
C           65.85077674203656       57.51036675449554       56.79766179263279
C           65.84532979456021       58.68748467111814       57.78617833249770
C           66.86867211450350       59.71513642205341       57.37651365150820
C           66.48105877303115       60.99278579924460       56.99698035364374
C           67.42111134179618       61.93104428759780       56.60697616459849
C           68.76531907311555       61.60294952401573       56.58982979802202
C           69.16396454889554       60.33237843884209       56.97085728237995
C           68.22302408399221       59.39867406942365       57.36351643970750
C           66.10987374100307       58.18616136309138       59.22116013792780
C           64.92955008138094       58.38180148705668       60.18673514175632
C           63.67856899844205       57.72087895887087       59.66844554245903
C           62.57888048887555       58.48819393748873       59.30290741597462
C           61.43304920040374       57.89769979193645       58.79794268907337
C           61.36585232307849       56.52314823768308       58.65628698082478
C           62.45088042934776       55.74531006686330       59.02451075693710
C           63.59621771610125       56.34030911389971       59.52285128555000
C           65.35217166042355       57.83639894116283       61.55641386787523
C           64.29029190169176       57.94584814889208       62.65436688921015
C           63.89402094227667       59.37067067027607       62.94095963216124
C           64.82845218427191       60.31288880425067       63.35561373695866
C           64.44060012344805       61.60025023126477       63.67927222846916
C           63.10784456115699       61.96776006206948       63.60317324527186
C           62.16761045616543       61.04087214065488       63.18883012369607
C           62.56279938843272       59.75784543427219       62.85387518143939
C           64.85022408446851       57.27509663921398       63.92037535432949
C           63.96827051237534       57.43820240823533       65.16427990439203
C           64.76518535891060       57.06797076859863       66.39104811091512
C           65.19237755860155       55.76339282336769       66.61054606725786
C           65.92913665000428       55.44262560612891       67.73623014667636
C           66.25232169550848       56.42110320279661       68.66126123213725
C           65.83423738995982       57.72349938339896       68.45102998335079
C           65.09837520446986       58.04225696045102       67.32337847113932
C           62.68708872784214       56.60505489433229       65.07647026742784
C           61.76578851248262       56.89235689426164       66.27405442972484
C           60.91456739321336       55.68551754764709       66.57391826984522
C           59.94899963512201       55.24611241175469       65.67385218299995
C           59.19916205865937       54.11401322608627       65.93638883670978
C           59.40512781917379       53.39390785456024       67.10092055013789
C           60.36940409687764       53.81516863586009       68.00088700112509
C           61.11504158037613       54.95249622390593       67.73819380321657
C           60.91626026690089       58.14416582140138       66.02071226460812
C           60.49200676196558       58.81714144669748       67.33610257003200
C           61.58309809611342       59.73872335265083       67.81723231737713
C           62.00200126209933       60.81925397402472       67.04850685189973
C           63.02627268709393       61.64106222547339       67.48061250073428
C           63.64627124835511       61.40113690561884       68.69545899063561
C           63.23084732044648       60.33558872763579       69.47451283340102
C           62.20901465361125       59.51180324325284       69.03571697377420
C           59.14975337757861       59.55034341804492       67.17909458193355
C           57.98740688214817       58.54555714519426       67.22915646519030
C           57.77126209660522       58.08552750853254       68.65293753043402
C           58.17578479901049       56.81599543925903       69.04814165171616
C           57.97172898155765       56.37637655863748       70.34408281381914
C           57.35986229040643       57.20082928880648       71.26993883104585
C           56.96913478218923       58.47411588029664       70.89360582756349
C           57.17706988263323       58.91264481622402       69.59873196772864
C           56.67825213808192       59.09961378447067       66.64771699751765
C           56.65564610301719       59.30643542864954       65.12063621000365
C           55.39741979886651       60.06702206981760       64.77531914741451
C           54.14537060081976       59.54103371568877       65.07568178317540
C           52.98895602288121       60.24236634266326       64.79049024285867
C           53.06475077242783       61.49532063183564       64.20586869983974
C           54.30410608881736       62.03148622526940       63.90157263941552
C           55.45958397888102       61.32376037248088       64.18702558517487
C           56.75324141877311       57.98423924230022       64.34031184411414
C           57.38571994939554       58.13995944118292       62.94290231581080
C           58.11017547640235       56.87149651202763       62.56177503876560
C           59.45143998263694       56.90380705941826       62.20267424746840
C           60.14079844040698       55.74199263218510       61.90101402140945
C           59.49378223466305       54.52100297755395       61.96385963974407
C           58.15287893486730       54.47459701590869       62.30526170480057
C           57.46621543851088       55.63929373869581       62.59468290621989
C           56.34180568026247       58.50869930552908       61.87857321529053
C           56.99254377402663       59.01137568232591       60.58001486470172
C           57.65513458713797       60.34927762622245       60.79732988875875
C           59.02842992080680       60.49888847954058       60.65694737824574
C           59.62972651141818       61.73596719062559       60.81613913424240
C           58.86344858027305       62.84333667241581       61.13522587680638
C           57.49303284055808       62.70622243950460       61.28158307224401
C           56.89439961276062       61.47218172259203       61.10639316891866
C           55.96963995742604       59.11460947836170       59.42604512704879
C           56.16989209300110       58.03027908919673       58.35894704009324
C           56.02530455103499       56.64508524340213       58.93396575851322
C           54.86531725905778       56.25468786062386       59.59359987719426
C           54.72965040146555       54.97206696017645       60.09275807336914
C           55.74465894805234       54.04772711848616       59.91713643540412
C           56.90506584341954       54.42492496731648       59.26502699639303
C           57.04543545466783       55.71491500877166       58.78772882061166
C           55.18547269582456       58.22687588241070       57.19477118543541
C           55.51340357912537       57.31413258604883       56.00633526734480
C           56.79761745632230       57.71659904900736       55.32079213090017
C           57.83193059131533       56.80097367409905       55.17140245812258
C           58.99518652186340       57.14534777963726       54.50636387432928
C           59.14181387957395       58.41262647286794       53.96957443280648
C           58.11987251643021       59.33325480565147       54.11563184008268
C           56.95996304399968       58.98742770083311       54.78291906470587
C           54.39688941573201       57.29257518055054       54.94863750037830
C           53.03623250962841       56.74359330775067       55.41755209257261
C           52.13217051919216       56.66180087508517       54.21278379362613
C           51.18392486620638       57.65217439678160       53.98523227545680
C           50.34987704927314       57.59884143028564       52.88274309529027
C           50.45422922577331       56.55046005403142       51.98497785686296
C           51.40997757442523       55.57037292620277       52.19013763339393
C           52.24541216856849       55.62922240339469       53.29040800517550
C           53.20278276715226       55.40548052895819       56.14964032875329
C           51.90389480921370       54.61340298041164       56.39071067471663
C           50.73743253446835       55.50988608569619       56.71716288774090
C           50.72011735489159       56.30168376464653       57.85926547597791
C           49.63687507755596       57.11842728451943       58.13655693866984
C           48.55626265806391       57.16692995317005       57.27205062716365
C           48.56916233912350       56.39360226320744       56.12478905806849
C           49.64871572848359       55.57047089434994       55.85572449462902
C           52.17548608260088       53.59463358504070       57.50814268482543
C           50.99460100708075       52.65765784414252       57.78480594057955
H           69.87048938652795       56.52453313789689       51.94266344961179
H           71.41840765394760       55.24473787733547       54.23617939053594
H           70.81119897324032       56.90008782967580       54.24283937676901
H           69.00162416877542       54.49320200774621       53.83125603459835
H           68.30940076925846       57.22349841391263       54.97326594752388
H           68.20821748181513       56.87499010808423       53.25139722365645
H           66.76888686748542       55.30829719235252       55.43217114856707
H           65.55814680935245       57.18122829832660       53.34901401383109
H           64.69691858705173       56.22275763332039       54.54239719453826
H           66.54589040780638       58.58300645591825       55.08014339818583
H           66.79904093167302       56.97856837893411       56.89287892986314
H           64.85741559733619       59.15673870496158       57.74847333525203
H           66.36954378984248       57.12576329497870       59.19674559735383
H           66.96822092779135       58.71773275194357       59.63756704006457
H           64.73535116212598       59.45598668677152       60.28420323888407
H           65.62695763402108       56.78443037820910       61.45671883697208
H           66.24971698779284       58.36993805083901       61.87437577819397
H           63.39953266131025       57.40119441739822       62.32376600094199
H           65.00897880667233       56.21319121851218       63.72002942148794
H           65.82864310254229       57.70890586135057       64.13904987007216
H           63.69477459138928       58.49483295918066       65.25268004908934
H           62.40547852123681       57.08197652059931       67.14295805051236
H           61.49095321003226       58.85441882334045       65.42427895303618
H           60.03697007313687       57.87262941653833       65.43530310566308
H           60.34885318700443       58.04094005490213       68.09554208768107
H           59.03371625109079       60.27848947838019       67.98480831461073
H           59.14240602441675       60.09482243883487       66.23402826847730
H           58.27931599776137       57.66542134843630       66.64806379658184
H           55.87432590028806       58.41236273612920       66.92025553326805
H           56.45869678253852       60.06338935534539       67.11220940387011
H           57.51421131089356       59.92925185209483       64.84868068623484
H           57.36463344696622       57.28214608919674       64.91036893653424
H           55.76067116990488       57.54317548365184       64.24194766140593
H           58.12358153876139       58.94973535720464       62.98734756716716
H           55.73738080666349       57.62688862998573       61.65642520685119
H           55.68585482962020       59.28363191193816       62.27983867093506
H           57.76308444049692       58.28637643662049       60.29501223681672
H           54.95398788101073       59.06332070663369       59.82213321701757
H           56.07888381427392       60.08517675907792       58.93553454574813
H           57.18527031762518       58.13647571918992       57.95877618966477
H           54.17549858649904       58.01694586974396       57.54854937459405
H           55.21570480872071       59.26903035597289       56.87749834999675
H           55.64682670137123       56.29698951139328       56.38614118487448
H           54.24222190866497       58.30407775368406       54.56547871093541
H           54.74563285864323       56.68052541123183       54.11204243496434
H           52.58811914204274       57.46101894634017       56.11344406575124
H           53.89056945395622       54.76609285278198       55.59185246481448
H           53.66255421056004       55.60894753280497       57.11918498068888
H           73.28868402080785       55.05945537537025       52.54676800321869
H           75.34751713187778       56.25548739376799       51.96517736602967
H           75.23845052654956       58.53510187016879       51.02653529699729
H           73.04193188481153       59.60711682424377       50.67551757851064
H           70.98010362436339       58.40877017260880       51.25981246528050
H           68.69880704679358       52.99117226333729       55.53275321975619
H           68.92953721905619       52.31054367980965       57.87911976686990
H           69.74458980328799       53.92813985092423       59.56231058580357
H           70.33105980282265       56.21989843159107       58.86719592440386
H           70.13982912003806       56.88409989994870       56.51254597112371
H           66.26759216512069       53.15855597932396       54.87271794184270
H           65.90404791415384       51.38184725405240       53.23413888318698
H           65.97685533007839       51.89616071933563       50.80720004147692
H           66.46806622926934       54.19466534672764       50.06970461865473
H           66.82203661414928       55.96992933778643       51.71062001137732
H           63.11959010801161       57.48714829445071       56.21100364711545
H           61.13411967370094       58.86260772139610       55.85991490937916
H           61.28640343191174       60.97030799218187       54.58041704801540
H           63.46047897334052       61.68409451085166       53.66052330597130
H           65.46627969375467       60.31012448442780       54.03237319611661
H           65.05160799958105       56.81972840746239       57.07094859288392
H           65.43177881220367       61.25243305677400       57.00081848381495
H           67.10216713017938       62.92105162815533       56.31447801320412
H           69.50004474641395       62.33294637691171       56.28338078010589
H           70.21290019353664       60.07112243623314       56.96202384172157
H           68.54122785706409       58.41095304592745       57.66505683556434
H           62.62097689711381       59.56299400435666       59.41426022400794
H           60.59325352476930       58.51264922715776       58.50683478287452
H           60.47366705704380       56.05749616686841       58.26342121497311
H           62.40589754786678       54.67124727543046       58.91719922041776
H           64.43381665354489       55.71971392061587       59.80579352089045
H           65.86958402478304       60.03784361495322       63.43728006638358
H           65.18117976495371       62.31859701108681       64.00016746434216
H           62.80344451981067       62.97038800724091       63.86620064956996
H           61.12375737388319       61.31556578420217       63.12838380551525
H           61.82493252322828       59.03989249772989       62.52478561584155
H           64.94965864341715       54.98804639160361       65.89879831834449
H           66.25279335716462       54.42321270742572       67.89300234173066
H           66.82667589397093       56.16902178956330       69.54090224428241
H           66.07859290536916       58.49495576427631       69.16656025002969
H           64.77042739591352       59.06078755597930       67.16859528912039
H           62.15517527491097       56.82494955834343       64.15011965493184
H           62.95338498586063       55.54787085819064       65.06243243551425
H           59.78961092647897       55.77991364224686       64.74838192419176
H           58.45761336209038       53.78890012412256       65.22304635647303
H           58.82304626373450       52.50643142209698       67.29988433868985
H           60.53906490834529       53.25657513055676       68.91056139489183
H           61.86993508719045       55.27551600353566       68.44193941600059
H           61.52904673969378       61.02199049373711       66.09838875751980
H           63.34427797427309       62.46972909863305       66.86437418481898
H           64.44817147687621       62.04196528246155       69.03209848276855
H           63.70606953841109       60.14218273163114       70.42531038060295
H           61.89177873395914       58.67900463893925       69.64805455097994
H           58.65659054635471       56.15931094419037       68.33647975152674
H           58.29008534181293       55.38484500775134       70.62768817057284
H           57.19002174299103       56.85514298034459       72.27873754487318
H           56.49922896851960       59.12973808769207       71.61242073872670
H           56.86893151654299       59.91096167073989       69.32438429884795
H           54.06862702234113       58.57540682537642       65.55294564734606
H           52.02807987302364       59.80999840120771       65.03100527802992
H           52.16387038582237       62.05531080858704       64.00053828975410
H           54.37257185747884       63.00870970804559       63.44510564606674
H           56.42275143904727       61.75289812133086       63.94863767980117
H           59.96485633055497       57.85471179606964       62.16785094562871
H           61.18367876885618       55.79407360235539       61.62068480666095
H           60.03014001695501       53.60668036582107       61.75629356791475
H           57.64542262841290       53.52176849335174       62.34884129838073
H           56.41803530424509       55.59124335953802       62.85331082943088
H           59.63549364960421       59.63875941442970       60.41210075770266
H           60.69808763275432       61.83461959601659       60.68768580759544
H           59.33113904658692       63.80843143448441       61.26506663882592
H           56.88655857771811       63.56550445875811       61.53026924789734
H           55.82258047028004       61.38192708565529       61.20957972527063
H           54.05533370398027       56.95707826954754       59.72699696167970
H           53.82761726226049       54.69965107617674       60.62437233906667
H           55.63186145180190       53.03874643337246       60.28525757078081
H           57.70865831082086       53.71643575876204       59.12483651918644
H           57.95684026253125       56.00508627181614       58.28414224519364
H           57.72349941431175       55.80465783336516       55.57809533625399
H           59.79409840342140       56.42551863166571       54.40794710875694
H           60.04983866367148       58.67776714474982       53.44884362554784
H           58.22308363977567       60.32897777705217       53.70937398340642
H           56.17401938495223       59.72000621984096       54.87938461013282
H           51.08854799519474       58.47277783400845       54.68289394309021
H           49.61439396343894       58.37587607175394       52.73035520567316
H           49.79372976816461       56.49274922177968       51.13175700040365
H           51.50952519459405       54.74818930309208       51.49656960014602
H           52.98224937552378       54.85163907959704       53.42838705142604
H           49.65776359376436       54.97384754846610       54.95486583302903
H           47.73910358718163       56.44288696424370       55.43348413344027
H           47.71798781964484       57.81188269849289       57.49054243729954
H           49.62354882297875       57.72842504997390       59.02900422941207
H           51.56158598753689       56.27631911295877       58.53655598194422
H           69.62607760095422       54.14111566148242       51.75845782303143
H           70.90345056256841       54.60247747217974       50.64088183126029
H           71.30943334407057       53.84586188926683       52.18218889187655
H           51.65049808462104       54.06826287250506       55.47591415315542
H           53.05197778531021       53.00281361901285       57.23361040118264
H           52.42269365877201       54.13693168992496       58.42149502673283
C           51.19957843152947       51.86346062521928       59.08474599637903
C           50.79625756722702       51.67699721421720       56.65696921855431
C           49.66684382876743       51.71741502592016       55.85121342261086
C           49.46867077034110       50.77169617678102       54.85861966811708
C           50.39049671595906       49.75675530064084       54.67396292057280
C           51.53485568010139       49.72339012197505       55.45179785372994
C           51.73866868750086       50.67985462503545       56.42629460900113
H           48.93328970591975       52.49721507976174       55.99982452275681
H           48.59380719073953       50.83505733047268       54.22656691554970
H           50.23012741872137       48.99079015359899       53.93157704030371
H           52.26872048494010       48.94862411706574       55.29496760078924
H           52.64173161190381       50.64747500136671       57.01792378303996
C           51.04131893580195       52.69246234454591       60.36102333162987
H           50.46707859883746       51.05244315647368       59.11505855345742
H           52.19498870702236       51.41426784267404       59.08373164455828
C           51.31006911487592       51.81479704338133       61.54707087761718
C           50.27062751112445       51.16232253792560       62.19775487710437
C           50.52925842111121       50.31055034959748       63.25779924440256
C           51.83085270021029       50.09507155383288       63.67843179208358
C           52.87403339201688       50.73617829910440       63.03177548443041
C           52.61233167460278       51.58855568106680       61.97332787684487
H           49.25507316580121       51.32555214593462       61.86057655979698
H           49.71875956561104       49.81084503996021       63.76885850129283
H           52.02454710621968       49.43437440182842       64.50953081519573
H           53.89265138285542       50.57660382700239       63.35657964562941
H           53.42712524906362       52.09335436478329       61.47336314650394
H           50.09171103967151       53.26791610931188       57.88766302067159
H           51.74155629173588       53.52866936612720       60.35728788767524
H           50.02710088681876       53.09046695403435       60.40772183336691
C           28.77858400765266       54.35902990054527       43.88161730164040
C           28.20065510757379       53.65651533766807       42.83192170567321
C           28.79504477044066       53.73691932542830       41.57796532302272
C           29.92498930208968       54.50698708989756       41.37673928913858
C           30.49541186170093       55.19558588803780       42.43352918482032
C           29.92059651298603       55.11721643970695       43.68925975517568
C           26.96198884344143       52.82288643151455       43.05146012252452
C           25.83328533617012       53.25511588502429       42.11304513243762
C           27.27642326794021       51.33154257395449       42.86764500120791
C           28.19411726967617       50.79805212007181       43.97456699703484
C           27.48678058283646       50.81124678921767       45.30692913523698
C           26.36877844529756       50.01603109096628       45.53187127042774
C           25.73108291846678       50.02209262950215       46.75837617919384
C           26.20185753922572       50.82067788538307       47.78666197036452
C           27.31465901619915       51.61492908022495       47.57598768207905
C           27.95062297152962       51.60721686337247       46.34601622741837
C           28.67400959111345       49.37213083428372       43.65653857318334
C           29.91103211797586       49.31224450706816       42.74335547824931
C           29.99710117256453       47.93292620125528       42.13565923591162
C           29.93062732768444       47.76355759397990       40.75845371052542
C           29.98876421023668       46.50109750844499       40.19357899310500
C           30.11388479084155       45.38321305687658       41.00042778897920
C           30.16483630264807       45.53777657833930       42.37523291941565
C           30.10232410091197       46.80035745835644       42.93652676068091
C           31.18048937552700       49.66685626275741       43.53034907006925
C           32.47567414446399       49.53463497298206       42.71179741709173
C           32.49572510447737       50.50437356220556       41.55710178970131
C           32.46091745086770       50.03121273976483       40.25146311853602
C           32.49987342830819       50.90125108012347       39.17582043774179
C           32.60947947911296       52.26380843856411       39.39056991734414
C           32.64324666554109       52.74933328991451       40.68604831038313
C           32.56079158923540       51.87894918742879       41.75751807352052
C           33.68466949140708       49.71039221856442       43.64605375183829
C           35.02720092130657       49.25155690266590       43.04656582980879
C           35.96269420946684       48.82025325624768       44.15495980072617
C           36.25579574083797       49.68682726753528       45.20490319072835
C           37.10323755517985       49.30537588016392       46.22849934844520
C           37.67878216916748       48.04475641522480       46.22402255020700
C           37.40083671468548       47.17428195579685       45.18525158418151
C           36.55328875648433       47.56322599616374       44.16056830241430
C           35.72190698738201       50.33203159865882       42.18580289797059
C           35.94307400118338       49.93445346625414       40.71801322952012
C           36.53927269636056       51.08897586390955       39.95026366774668
C           35.96073427161129       51.51411291958995       38.76130349589948
C           36.50288932840856       52.56502201319418       38.04339925219264
C           37.62541746495197       53.22410663365518       38.51299381662780
C           38.21864568488429       52.80110960437530       39.68970360618696
C           37.68775417790118       51.73559269407421       40.39425732846731
C           36.84881419412230       48.70198471483213       40.58595891788456
C           36.90393501294650       48.14986724947494       39.15532172614289
C           35.52696144571600       47.93234518710251       38.57456836053391
C           35.20295735310051       48.44076252110553       37.32318212089892
C           33.95747864473894       48.21174581095596       36.76480148994158
C           33.01422574657581       47.46508940431073       37.44914118714824
C           33.32642945746483       46.94819911065078       38.69540797831572
C           34.57186136792941       47.18158747787026       39.24974004224931
C           37.65866341970224       46.80945085237068       39.06396291479172
C           39.15432187506371       46.88533589159221       39.41799808019424
C           39.92179399438462       45.82533840833824       38.66621342728283
C           40.96937371121873       46.15720552931737       37.81918163902763
C           41.68951073751824       45.17337396239942       37.16400481011921