      -----------------------------------------------------------      
     |                   =====================                   |     
     |                           x T B                           |     
     |                   =====================                   |     
     |                         S. Grimme                         |     
     |          Mulliken Center for Theoretical Chemistry        |     
     |                    University of Bonn                     |     
      -----------------------------------------------------------      

   * xtb version 6.6.1 (8d0f1dd) compiled by 'stahn@M-Bot' on 2023-08-01

   xtb is free software: you can redistribute it and/or modify it under
   the terms of the GNU Lesser General Public License as published by
   the Free Software Foundation, either version 3 of the License, or
   (at your option) any later version.
   
   xtb is distributed in the hope that it will be useful,
   but WITHOUT ANY WARRANTY; without even the implied warranty of
   MERCHANTABILITY or FITNESS FOR A PARTICULAR PURPOSE.  See the
   GNU Lesser General Public License for more details.
   
   Cite this work as:
   * C. Bannwarth, E. Caldeweyher, S. Ehlert, A. Hansen, P. Pracht,
     J. Seibert, S. Spicher, S. Grimme, WIREs Comput. Mol. Sci., 2020, 11,
     e01493. DOI: 10.1002/wcms.1493
   
   for GFN2-xTB:
   * C. Bannwarth, S. Ehlert and S. Grimme., J. Chem. Theory Comput., 2019,
     15, 1652-1671. DOI: 10.1021/acs.jctc.8b01176
   for GFN1-xTB:
   * S. Grimme, C. Bannwarth, P. Shushkov, J. Chem. Theory Comput., 2017,
     13, 1989-2009. DOI: 10.1021/acs.jctc.7b00118
   for GFN0-xTB:
   * P. Pracht, E. Caldeweyher, S. Ehlert, S. Grimme, ChemRxiv, 2019, preprint.
     DOI: 10.26434/chemrxiv.8326202.v1
   for GFN-FF:
   * S. Spicher and S. Grimme, Angew. Chem. Int. Ed., 2020, 59, 15665-15673.
     DOI: 10.1002/anie.202004239
   
   for ALPB and GBSA implicit solvation:
   * S. Ehlert, M. Stahn, S. Spicher, S. Grimme, J. Chem. Theory Comput.,
     2021, 17, 4250-4261. DOI: 10.1021/acs.jctc.1c00471
   
   for DFT-D4:
   * E. Caldeweyher, C. Bannwarth and S. Grimme, J. Chem. Phys., 2017,
     147, 034112. DOI: 10.1063/1.4993215
   * E. Caldeweyher, S. Ehlert, A. Hansen, H. Neugebauer, S. Spicher,
     C. Bannwarth and S. Grimme, J. Chem. Phys., 2019, 150, 154122.
     DOI: 10.1063/1.5090222
   * E. Caldeweyher, J.-M. Mewes, S. Ehlert and S. Grimme, Phys. Chem. Chem. Phys.
     2020, 22, 8499-8512. DOI: 10.1039/D0CP00502A
   
   for sTDA-xTB:
   * S. Grimme and C. Bannwarth, J. Chem. Phys., 2016, 145, 054103.
     DOI: 10.1063/1.4959605
   
   in the mass-spec context:
   * V. Asgeirsson, C. Bauer and S. Grimme, Chem. Sci., 2017, 8, 4879.
     DOI: 10.1039/c7sc00601b
   * J. Koopman and S. Grimme, ACS Omega 2019, 4, 12, 15120-15133.
     DOI: 10.1021/acsomega.9b02011
   
   for metadynamics refer to:
   * S. Grimme, J. Chem. Theory Comput., 2019, 155, 2847-2862
     DOI: 10.1021/acs.jctc.9b00143
   
   for SPH calculations refer to:
   * S. Spicher and S. Grimme, J. Chem. Theory Comput., 2021, 17, 1701-1714
     DOI: 10.1021/acs.jctc.0c01306
   
   with help from (in alphabetical order)
   P. Atkinson, C. Bannwarth, F. Bohle, G. Brandenburg, E. Caldeweyher
   M. Checinski, S. Dohm, S. Ehlert, S. Ehrlich, I. Gerasimov, C. Hölzer
   A. Katbashev, J. Koopman, C. Lavigne, S. Lehtola, F. März, M. Müller,
   F. Musil, H. Neugebauer, J. Pisarek, C. Plett, P. Pracht, F. Pultar,
   J. Seibert, P. Shushkov, S. Spicher, M. Stahn, M. Steiner, T. Strunk,
   J. Stückrath, T. Rose, and J. Unsleber
   
 * started run on 2024/06/17 at 15:18:46.213     

           -------------------------------------------------
          |                Calculation Setup                |
           -------------------------------------------------

          program call               : /home/abt-grimme/AK-bin/xtb input.xyz --input input.inp --opt --gbsa water
          hostname                   : boar030.thch.uni-bonn.de
          coordinate file            : input.xyz
          omp threads                :                     8

   ID    Z sym.   atoms
    1    6 C      1-120, 363-482, 725-844, 1087-1206, 1449-1568, 1811-1930,
                  2173-2292, 2535-2654, 2897-3016
    2    1 H      121-362, 483-724, 845-1086, 1207-1448, 1569-1810,
                  1931-2172, 2293-2534, 2655-2896, 3017-3258

molecular fragmentation (1/2 indicates fragments):
111111111111111111111111111111111111111111111111111111111111111111111111
111111111111111111111111111111111111111111111111111111111111111111111111
111111111111111111111111111111111111111111111111111111111111111111111111
111111111111111111111111111111111111111111111111111111111111111111111111
111111111111111111111111111111111111111111111111111111111111111111111111
112222222222222222222222222222222222222222222222222222222222222222222222
222222222222222222222222222222222222222222222222222222222222222222222222
222222222222222222222222222222222222222222222222222222222222222222222222
222222222222222222222222222222222222222222222222222222222222222222222222
222222222222222222222222222222222222222222222222222222222222222222222222
222222222222222222222222222222222222222222222222222222222222222222222222
222222222222222222222222222222222222222222222222222222222222222222222222
222222222222222222222222222222222222222222222222222222222222222222222222
222222222222222222222222222222222222222222222222222222222222222222222222
222222222222222222222222222222222222222222222222222222222222222222222222
222222222222222222222222222222222222222222222222222222222222222222222222
222222222222222222222222222222222222222222222222222222222222222222222222
222222222222222222222222222222222222222222222222222222222222222222222222
222222222222222222222222222222222222222222222222222222222222222222222222
222222222222222222222222222222222222222222222222222222222222222222222222
222222222222222222222222222222222222222222222222222222222222222222222222
222222222222222222222222222222222222222222222222222222222222222222222222
222222222222222222222222222222222222222222222222222222222222222222222222
222222222222222222222222222222222222222222222222222222222222222222222222
222222222222222222222222222222222222222222222222222222222222222222222222
222222222222222222222222222222222222222222222222222222222222222222222222
222222222222222222222222222222222222222222222222222222222222222222222222
222222222222222222222222222222222222222222222222222222222222222222222222
222222222222222222222222222222222222222222222222222222222222222222222222
222222222222222222222222222222222222222222222222222222222222222222222222
222222222222222222222222222222222222222222222222222222222222222222222222
222222222222222222222222222222222222222222222222222222222222222222222222
222222222222222222222222222222222222222222222222222222222222222222222222
222222222222222222222222222222222222222222222222222222222222222222222222
222222222222222222222222222222222222222222222222222222222222222222222222
222222222222222222222222222222222222222222222222222222222222222222222222
222222222222222222222222222222222222222222222222222222222222222222222222
222222222222222222222222222222222222222222222222222222222222222222222222
222222222222222222222222222222222222222222222222222222222222222222222222
222222222222222222222222222222222222222222222222222222222222222222222222
222222222222222222222222222222222222222222222222222222222222222222222222
222222222222222222222222222222222222222222222222222222222222222222222222
222222222222222222222222222222222222222222222222222222222222222222222222
222222222222222222222222222222222222222222222222222222222222222222222222
222222222222222222222222222222222222222222222222222222222222222222222222
222222222222222222
# atoms in fragment 1/2:   362  2896
 fragment masses (1/2) :     1685.21    13481.68
CMA distance (Bohr)    :  14.170
constraining FC (au)   :  0.0500

           -------------------------------------------------
          |                 G F N 2 - x T B                 |
           -------------------------------------------------

        Reference                      10.1021/acs.jctc.8b01176
      * Hamiltonian:
        H0-scaling (s, p, d)           1.850000    2.230000    2.230000
        zeta-weighting                 0.500000
      * Dispersion:
        s8                             2.700000
        a1                             0.520000
        a2                             5.000000
        s9                             5.000000
      * Repulsion:
        kExp                           1.500000    1.000000
        rExp                           1.000000
      * Coulomb:
        alpha                          2.000000
        third order                    shell-resolved
        anisotropic                    true
        a3                             3.000000
        a5                             4.000000
        cn-shift                       1.200000
        cn-exp                         4.000000
        max-rad                        5.000000

      * Solvation model:               GBSA
        Solvent                        water
        Parameter file                 internal GFN2-xTB/GBSA
        Dielectric constant                8.0200E+01
        Reference state                gsolv [1 M gas/solution]
        Free energy shift                  1.8574E-03 Eh       1.1656E+00 kcal/mol
        Temperature                        2.9815E+02 K
        Density                            1.0000E+00 kg/L
        Solvent mass                       1.8000E+01 g/mol
        Interaction kernel             Still
        Born radius scaling (c1)           1.5524E+00
        Born radii integrator          GBOBC
        Born offset                        2.4628E-02 a0       4.6540E-02 AA
        H-bond correction              true
        Ion screening                  false
        Surface tension                    1.0000E-05 Eh       1.5569E+01 dyn/cm
        Grid points                               230 per atom
q/qsh data taken from xtbrestart
CAMM data taken from xtbrestart

          ...................................................
          :                      SETUP                      :
          :.................................................:
          :  # basis functions                6498          :
          :  # atomic orbitals                6498          :
          :  # shells                         4338          :
          :  # electrons                      6498          :
          :  max. iterations                   250          :
          :  Hamiltonian                  GFN2-xTB          :
          :  restarted?                       true          :
          :  GBSA solvation                   true          :
          :  PC potential                    false          :
          :  electronic temp.          300.0000000     K    :
          :  accuracy                    1.0000000          :
          :  -> integral cutoff          0.2500000E+02      :
          :  -> integral neglect         0.1000000E-07      :
          :  -> SCF convergence          0.1000000E-05 Eh   :
          :  -> wf. convergence          0.1000000E-03 e    :
          :  Broyden damping             0.4000000          :
          ...................................................

 iter      E             dE          RMSdq      gap      omega  full diag
   1  -3472.2383076 -0.347224E+04  0.835E-05   10.94       0.0  T
   2  -3472.2383076 -0.500813E-08  0.656E-05   10.94      26.7  T
   3  -3472.2383077 -0.710361E-08  0.341E-05   10.94      51.4  T

   *** convergence criteria satisfied after 3 iterations ***

         #    Occupation            Energy/Eh            Energy/eV
      -------------------------------------------------------------
         1        2.0000           -0.6157368             -16.7550
       ...           ...                  ...                  ...
      3243        2.0000           -0.3861923             -10.5088
      3244        2.0000           -0.3860731             -10.5056
      3245        2.0000           -0.3858467             -10.4994
      3246        2.0000           -0.3854516             -10.4887
      3247        2.0000           -0.3852038             -10.4819
      3248        2.0000           -0.3845787             -10.4649
      3249        2.0000           -0.3833084             -10.4304 (HOMO)
      3250                          0.0186820               0.5084 (LUMO)
      3251                          0.0217278               0.5912
      3252                          0.0220825               0.6009
      3253                          0.0228731               0.6224
      3254                          0.0230721               0.6278
       ...                                ...                  ...
      6498                          0.3809072              10.3650
      -------------------------------------------------------------
                  HL-Gap            0.4019904 Eh           10.9387 eV
             Fermi-level           -0.1823132 Eh           -4.9610 eV

 SCC (total)                   0 d,  0 h,  7 min, 27.136 sec
 SCC setup                      ...        0 min,  1.761 sec (  0.394%)
 Dispersion                     ...        0 min,  3.637 sec (  0.813%)
 classical contributions        ...        0 min,  0.150 sec (  0.034%)
 integral evaluation            ...        0 min,  5.885 sec (  1.316%)
 iterations                     ...        3 min,  3.975 sec ( 41.145%)
 molecular gradient             ...        4 min,  3.231 sec ( 54.397%)
 printout                       ...        0 min,  8.496 sec (  1.900%)

         :::::::::::::::::::::::::::::::::::::::::::::::::::::
         ::                     SUMMARY                     ::
         :::::::::::::::::::::::::::::::::::::::::::::::::::::
         :: total energy           -3426.771236248575 Eh    ::
         :: total w/o Gsasa/hb     -3426.682089639004 Eh    ::
         :: gradient norm              0.633117180826 Eh/a0 ::
         :: HOMO-LUMO gap             10.938715462887 eV    ::
         ::.................................................::
         :: SCC energy             -3472.238307657060 Eh    ::
         :: -> isotropic ES            0.279379140108 Eh    ::
         :: -> anisotropic ES          1.281464874726 Eh    ::
         :: -> anisotropic XC          2.132480063384 Eh    ::
         :: -> dispersion             -4.242962826360 Eh    ::
         :: -> Gsolv                  -0.023635832743 Eh    ::
         ::    -> Gelec                0.065510776830 Eh    ::
         ::    -> Gsasa               -0.087149854724 Eh    ::
         ::    -> Ghb                 -0.003854197975 Eh    ::
         ::    -> Gshift               0.001857443127 Eh    ::
         :: repulsion energy          44.764464951605 Eh    ::
         :: add. restraining           0.000000000000 Eh    ::
         :: total charge              -0.000000000008 e     ::
         :::::::::::::::::::::::::::::::::::::::::::::::::::::

      ----------------------------------------------------------- 
     |              Fast Inertial Relaxation Engine              |
      ----------------------------------------------------------- 

          ...................................................
          :                      SETUP                      :
          :.................................................:
          :   energy convergence        0.5000000E-05 Eh    :
          :   grad. convergence         0.1000000E-02 Eh/a0 :
          :   optimization log               true           :
          :   writing optlog all                1     steps :
          :   Hessian reset                    20     steps :
          :   time step scaling                 5     steps :
          :   maximium step len.        1.0000000     a0    :
          :   initial time step         0.2500000     fs    :
          :   maximum time step         1.2500000     fs    :
          :   power reset thr           0.0000000     au    :
          :   alpha parameter           0.1000000           :
          :   BFGS update                   false           :
          :   preconditioning               false           :
          ...................................................

........................................................................
.............................. CYCLE    1 ..............................
........................................................................

 iter      E             dE          RMSdq      gap      omega  full diag
   1  -3472.4721354 -0.347247E+04  0.743E-03   10.97       0.0  T
   2  -3472.4721795 -0.440603E-04  0.391E-03   10.97       1.0  T
   3  -3472.4721799 -0.421346E-06  0.182E-03   10.97       1.0  T
   4  -3472.4721800 -0.148330E-06  0.221E-04   10.97       7.9  T
   5  -3472.4721801 -0.355963E-07  0.139E-04   10.97      12.6  T
     SCC iter.                  ...        4 min, 56.378 sec
     gradient                   ...        4 min,  5.842 sec
 * total energy  : -3426.8167368 Eh     change    :  -0.4550057E-01 Eh
   gradient norm :     0.5989024 Eh/a0  converged?    E=F G=F D=F
   time step     :     0.2500000 fs     power     :   0.2348045E-05
   step length   :     0.0742000 a0     speed     :   0.7179247E-02

........................................................................
.............................. CYCLE    2 ..............................
........................................................................

 iter      E             dE          RMSdq      gap      omega  full diag
   1  -3472.8167763 -0.347282E+04  0.109E-02   11.02       0.0  T
   2  -3472.8168707 -0.944237E-04  0.571E-03   11.02       1.0  T
   3  -3472.8168717 -0.965843E-06  0.265E-03   11.02       1.0  T
   4  -3472.8168720 -0.360019E-06  0.340E-04   11.02       5.1  T
   5  -3472.8168721 -0.837963E-07  0.221E-04   11.02       7.9  T
     SCC iter.                  ...        4 min, 51.787 sec
     gradient                   ...        4 min,  4.515 sec
 * total energy  : -3426.8793163 Eh     change    :  -0.6257952E-01 Eh
   gradient norm :     0.5502483 Eh/a0  converged?    E=F G=F D=F
   time step     :     0.2500000 fs     power     :   0.3176408E-05
   step length   :     0.1091775 a0     speed     :   0.1056351E-01

........................................................................
.............................. CYCLE    3 ..............................
........................................................................

 iter      E             dE          RMSdq      gap      omega  full diag
   1  -3473.2631156 -0.347326E+04  0.139E-02   11.04       0.0  T
   2  -3473.2632693 -0.153700E-03  0.732E-03   11.03       1.0  T
   3  -3473.2632709 -0.165892E-05  0.338E-03   11.03       1.0  T
   4  -3473.2632715 -0.613956E-06  0.446E-04   11.03       3.9  T
   5  -3473.2632717 -0.139486E-06  0.291E-04   11.03       6.0  T
     SCC iter.                  ...        4 min, 56.708 sec
     gradient                   ...        4 min,  4.737 sec
 * total energy  : -3426.9524595 Eh     change    :  -0.7314317E-01 Eh
   gradient norm :     0.4894837 Eh/a0  converged?    E=F G=F D=F
   time step     :     0.2500000 fs     power     :   0.3641184E-05
   step length   :     0.1413063 a0     speed     :   0.1367214E-01

........................................................................
.............................. CYCLE    4 ..............................
........................................................................

 iter      E             dE          RMSdq      gap      omega  full diag
   1  -3473.7995952 -0.347380E+04  0.165E-02   11.04       0.0  T
   2  -3473.7998071 -0.211894E-03  0.866E-03   11.04       1.0  T
   3  -3473.7998096 -0.245149E-05  0.396E-03   11.04       1.0  T
   4  -3473.7998104 -0.879407E-06  0.539E-04   11.03       3.3  T
   5  -3473.7998106 -0.193580E-06  0.351E-04   11.03       5.0  T
     SCC iter.                  ...        4 min, 52.552 sec
     gradient                   ...        4 min,  4.696 sec
 * total energy  : -3427.0288405 Eh     change    :  -0.7638095E-01 Eh
   gradient norm :     0.4210374 Eh/a0  converged?    E=F G=F D=F
   time step     :     0.2500000 fs     power     :   0.3712595E-05
   step length   :     0.1697269 a0     speed     :   0.1642199E-01

........................................................................
.............................. CYCLE    5 ..............................
........................................................................

 iter      E             dE          RMSdq      gap      omega  full diag
   1  -3474.4123157 -0.347441E+04  0.185E-02   11.04       0.0  T
   2  -3474.4125739 -0.258257E-03  0.969E-03   11.04       1.0  T
   3  -3474.4125772 -0.328989E-05  0.437E-03   11.04       1.0  T
   4  -3474.4125783 -0.112223E-05  0.617E-04   11.03       2.8  T
   5  -3474.4125786 -0.235310E-06  0.400E-04   11.03       4.4  T
   6  -3474.4125787 -0.129074E-06  0.169E-04   11.03      10.4  T
     SCC iter.                  ...        5 min, 56.560 sec
     gradient                   ...        4 min,  3.755 sec
 * total energy  : -3427.1013644 Eh     change    :  -0.7252395E-01 Eh
   gradient norm :     0.3516806 Eh/a0  converged?    E=F G=F D=F
   time step     :     0.2500000 fs     power     :   0.3420134E-05
   step length   :     0.1937041 a0     speed     :   0.1874191E-01

........................................................................
.............................. CYCLE    6 ..............................
........................................................................

 iter      E             dE          RMSdq      gap      omega  full diag
   1  -3475.1584589 -0.347516E+04  0.220E-02   11.04       0.0  T
   2  -3475.1588047 -0.345829E-03  0.115E-02   11.03       1.0  T
   3  -3475.1588097 -0.499513E-05  0.505E-03   11.03       1.0  T
   4  -3475.1588113 -0.153364E-05  0.742E-04   11.03       2.4  T
   5  -3475.1588116 -0.300290E-06  0.470E-04   11.03       3.7  T
   6  -3475.1588117 -0.148368E-06  0.181E-04   11.03       9.7  T
     SCC iter.                  ...        5 min, 53.145 sec
     gradient                   ...        4 min,  2.956 sec
 * total energy  : -3427.1701810 Eh     change    :  -0.6881663E-01 Eh
   gradient norm :     0.2850185 Eh/a0  converged?    E=F G=F D=F
   time step     :     0.2750000 fs     power     :   0.2771476E-05
   step length   :     0.2359856 a0     speed     :   0.2075716E-01

........................................................................
.............................. CYCLE    7 ..............................
........................................................................

 iter      E             dE          RMSdq      gap      omega  full diag
   1  -3476.0324280 -0.347603E+04  0.250E-02   11.03       0.0  T
   2  -3476.0328342 -0.406197E-03  0.131E-02   11.03       1.0  T
   3  -3476.0328415 -0.731885E-05  0.548E-03   11.03       1.0  T
   4  -3476.0328435 -0.199870E-05  0.875E-04   11.03       2.0  T
   5  -3476.0328438 -0.342209E-06  0.543E-04   11.03       3.2  T
   6  -3476.0328440 -0.168507E-06  0.190E-04   11.03       9.2  T
     SCC iter.                  ...        6 min,  2.372 sec
     gradient                   ...        4 min,  4.134 sec
 * total energy  : -3427.2271481 Eh     change    :  -0.5696707E-01 Eh
   gradient norm :     0.2415704 Eh/a0  converged?    E=F G=F D=F
   time step     :     0.3025000 fs     power     :   0.1865525E-05
   step length   :     0.2779403 a0     speed     :   0.2222497E-01

........................................................................
.............................. CYCLE    8 ..............................
........................................................................

 iter      E             dE          RMSdq      gap      omega  full diag
   1  -3476.9974692 -0.347700E+04  0.273E-02   11.03       0.0  T
   2  -3476.9978579 -0.388682E-03  0.145E-02   11.03       1.0  T
   3  -3476.9978679 -0.995172E-05  0.540E-03   11.02       1.0  T
   4  -3476.9978701 -0.225149E-05  0.984E-04   11.02       1.8  T
   5  -3476.9978704 -0.311323E-06  0.592E-04   11.02       3.0  T
   6  -3476.9978706 -0.158987E-06  0.177E-04   11.02       9.9  T
     SCC iter.                  ...        5 min, 55.618 sec
     gradient                   ...        4 min,  5.496 sec
 * total energy  : -3427.2668841 Eh     change    :  -0.3973598E-01 Eh
   gradient norm :     0.2370885 Eh/a0  converged?    E=F G=F D=F
   time step     :     0.3327500 fs     power     :   0.9482965E-06
   step length   :     0.3135399 a0     speed     :   0.2279239E-01

........................................................................
.............................. CYCLE    9 ..............................
........................................................................

 iter      E             dE          RMSdq      gap      omega  full diag
   1  -3477.9768886 -0.347798E+04  0.290E-02   11.02       0.0  T
   2  -3477.9771650 -0.276397E-03  0.158E-02   11.02       1.0  T
   3  -3477.9771771 -0.121849E-04  0.454E-03   11.02       1.0  T
   4  -3477.9771792 -0.200920E-05  0.104E-03   11.02       1.7  T
   5  -3477.9771794 -0.199333E-06  0.588E-04   11.02       3.0  T
   6  -3477.9771795 -0.117361E-06  0.138E-04   11.02      12.7  T
     SCC iter.                  ...        6 min,  1.777 sec
     gradient                   ...        4 min,  3.232 sec
 * total energy  : -3427.2901982 Eh     change    :  -0.2331407E-01 Eh
   gradient norm :     0.2523177 Eh/a0  converged?    E=F G=F D=F
   time step     :     0.3660250 fs     power     :   0.2848093E-06
   step length   :     0.3370306 a0     speed     :   0.2227274E-01

........................................................................
.............................. CYCLE   10 ..............................
........................................................................

 iter      E             dE          RMSdq      gap      omega  full diag
   1  -3478.8769913 -0.347888E+04  0.311E-02   11.02       0.0  T
   2  -3478.8771219 -0.130611E-03  0.176E-02   11.02       1.0  T
   3  -3478.8771352 -0.132884E-04  0.293E-03   11.02       1.0  T
   4  -3478.8771366 -0.142574E-05  0.104E-03   11.02       1.7  T
   5  -3478.8771367 -0.679756E-07  0.514E-04   11.02       3.4  T
   6  -3478.8771367 -0.716027E-07  0.814E-05   11.01      21.5  T
     SCC iter.                  ...        5 min, 55.968 sec
     gradient                   ...        4 min,  3.463 sec
 * total energy  : -3427.3020769 Eh     change    :  -0.1187871E-01 Eh
   gradient norm :     0.2529351 Eh/a0  converged?    E=F G=F D=F
   time step     :     0.4026275 fs     power     :  -0.9257829E-07
   step length   :     0.3497947 a0     speed     :   0.2101478E-01

........................................................................
.............................. CYCLE   11 ..............................
........................................................................
 * reset velocities

 iter      E             dE          RMSdq      gap      omega  full diag
   1  -3478.8599241 -0.347886E+04  0.116E-03   11.01       0.0  T
   2  -3478.8599249 -0.795294E-06  0.669E-04   11.01       2.6  T
   3  -3478.8599249 -0.436694E-08  0.267E-04   11.01       6.6  T
     SCC iter.                  ...        2 min, 59.484 sec
     gradient                   ...        4 min,  4.637 sec
 * total energy  : -3427.3044736 Eh     change    :  -0.2396709E-02 Eh
   gradient norm :     0.2458251 Eh/a0  converged?    E=F G=F D=F
   time step     :     0.2013138 fs     power     :   0.1557279E-06
   step length   :     0.0096109 a0     speed     :   0.1154802E-02

........................................................................
.............................. CYCLE   12 ..............................
........................................................................

 iter      E             dE          RMSdq      gap      omega  full diag
   1  -3478.8259409 -0.347883E+04  0.229E-03   11.01       0.0  T
   2  -3478.8259440 -0.307490E-05  0.132E-03   11.01       1.3  T
   3  -3478.8259440 -0.175010E-07  0.525E-04   11.01       3.3  T
   4  -3478.8259440 -0.821456E-08  0.434E-05   11.01      40.4  T
     SCC iter.                  ...        3 min, 55.794 sec
     gradient                   ...        4 min,  3.661 sec
 * total energy  : -3427.3090002 Eh     change    :  -0.4526648E-02 Eh
   gradient norm :     0.2318917 Eh/a0  converged?    E=F G=F D=F
   time step     :     0.2013138 fs     power     :   0.2896450E-06
   step length   :     0.0189516 a0     speed     :   0.2277132E-02

........................................................................
.............................. CYCLE   13 ..............................
........................................................................

 iter      E             dE          RMSdq      gap      omega  full diag
   1  -3478.7760665 -0.347878E+04  0.335E-03   11.01       0.0  T
   2  -3478.7760732 -0.665843E-05  0.193E-03   11.02       1.0  T
   3  -3478.7760732 -0.434216E-07  0.774E-04   11.02       2.3  T
   4  -3478.7760732 -0.222690E-07  0.723E-05   11.02      24.2  T
     SCC iter.                  ...        3 min, 53.913 sec
     gradient                   ...        4 min,  6.563 sec
 * total energy  : -3427.3151551 Eh     change    :  -0.6154891E-02 Eh
   gradient norm :     0.2115897 Eh/a0  converged?    E=F G=F D=F
   time step     :     0.2013138 fs     power     :   0.3870266E-06
   step length   :     0.0277623 a0     speed     :   0.3335772E-02

........................................................................
.............................. CYCLE   14 ..............................
........................................................................

 iter      E             dE          RMSdq      gap      omega  full diag
   1  -3478.7116183 -0.347871E+04  0.431E-03   11.02       0.0  T
   2  -3478.7116294 -0.110808E-04  0.248E-03   11.02       1.0  T
   3  -3478.7116295 -0.754699E-07  0.100E-03   11.02       1.8  T
   4  -3478.7116295 -0.394102E-07  0.965E-05   11.02      18.2  T
     SCC iter.                  ...        4 min,  4.606 sec
     gradient                   ...        4 min,  5.433 sec
 * total energy  : -3427.3222606 Eh     change    :  -0.7105484E-02 Eh
   gradient norm :     0.1856524 Eh/a0  converged?    E=F G=F D=F
   time step     :     0.2013138 fs     power     :   0.4374556E-06
   step length   :     0.0357989 a0     speed     :   0.4301410E-02

........................................................................
.............................. CYCLE   15 ..............................
........................................................................

 iter      E             dE          RMSdq      gap      omega  full diag
   1  -3478.6343518 -0.347863E+04  0.513E-03   11.02       0.0  T
   2  -3478.6343677 -0.158620E-04  0.295E-03   11.02       1.0  T
   3  -3478.6343678 -0.109846E-06  0.120E-03   11.02       1.5  T
   4  -3478.6343679 -0.577252E-07  0.117E-04   11.02      15.0  T
   5  -3478.6343679 -0.161372E-07  0.784E-05   11.02      22.3  T
     SCC iter.                  ...        5 min,  3.827 sec
     gradient                   ...        4 min,  5.745 sec
 * total energy  : -3427.3295430 Eh     change    :  -0.7282373E-02 Eh
   gradient norm :     0.1550778 Eh/a0  converged?    E=F G=F D=F
   time step     :     0.2013138 fs     power     :   0.4360464E-06
   step length   :     0.0428419 a0     speed     :   0.5147661E-02

........................................................................
.............................. CYCLE   16 ..............................
........................................................................

 iter      E             dE          RMSdq      gap      omega  full diag
   1  -3478.5464806 -0.347855E+04  0.580E-03   11.02       0.0  T
   2  -3478.5465011 -0.204264E-04  0.334E-03   11.02       1.0  T
   3  -3478.5465012 -0.130961E-06  0.136E-03   11.02       1.3  T
   4  -3478.5465013 -0.665045E-07  0.125E-04   11.02      14.0  T
   5  -3478.5465013 -0.189261E-07  0.815E-05   11.02      21.5  T
     SCC iter.                  ...        5 min,  0.530 sec
     gradient                   ...        4 min,  4.600 sec
 * total energy  : -3427.3362255 Eh     change    :  -0.6682537E-02 Eh
   gradient norm :     0.1213173 Eh/a0  converged?    E=F G=F D=F
   time step     :     0.2013138 fs     power     :   0.3842654E-06
   step length   :     0.0486999 a0     speed     :   0.5851534E-02

........................................................................
.............................. CYCLE   17 ..............................
........................................................................

 iter      E             dE          RMSdq      gap      omega  full diag
   1  -3478.4402525 -0.347844E+04  0.695E-03   11.02       0.0  T
   2  -3478.4402823 -0.297498E-04  0.400E-03   11.02       1.0  T
   3  -3478.4402825 -0.185380E-06  0.164E-03   11.02       1.1  T
   4  -3478.4402826 -0.932127E-07  0.149E-04   11.02      11.8  T
   5  -3478.4402826 -0.269506E-07  0.949E-05   11.02      18.5  T
     SCC iter.                  ...        4 min, 49.686 sec
     gradient                   ...        4 min,  6.231 sec
 * total energy  : -3427.3420960 Eh     change    :  -0.5870489E-02 Eh
   gradient norm :     0.0831346 Eh/a0  converged?    E=F G=F D=F
   time step     :     0.2214451 fs     power     :   0.2779653E-06
   step length   :     0.0590293 a0     speed     :   0.6447877E-02

........................................................................
.............................. CYCLE   18 ..............................
........................................................................

 iter      E             dE          RMSdq      gap      omega  full diag
   1  -3478.3174126 -0.347832E+04  0.797E-03   11.02       0.0  T
   2  -3478.3174523 -0.397710E-04  0.460E-03   11.02       1.0  T
   3  -3478.3174526 -0.244988E-06  0.190E-03   11.02       1.0  T
   4  -3478.3174527 -0.120804E-06  0.170E-04   11.02      10.3  T
   5  -3478.3174527 -0.357618E-07  0.107E-04   11.02      16.4  T
     SCC iter.                  ...        5 min, 14.281 sec
     gradient                   ...        4 min,  3.881 sec
 * total energy  : -3427.3459857 Eh     change    :  -0.3889678E-02 Eh
   gradient norm :     0.0498907 Eh/a0  converged?    E=F G=F D=F
   time step     :     0.2435896 fs     power     :   0.1230107E-06
   step length   :     0.0690465 a0     speed     :   0.6856425E-02

........................................................................
.............................. CYCLE   19 ..............................
........................................................................

 iter      E             dE          RMSdq      gap      omega  full diag
   1  -3478.1877833 -0.347819E+04  0.836E-03   11.02       0.0  T
   2  -3478.1878281 -0.447833E-04  0.484E-03   11.02       1.0  T
   3  -3478.1878284 -0.276324E-06  0.202E-03   11.02       1.0  T
   4  -3478.1878285 -0.131272E-06  0.179E-04   11.02       9.8  T
   5  -3478.1878286 -0.401319E-07  0.108E-04   11.02      16.3  T
     SCC iter.                  ...        4 min, 56.564 sec
     gradient                   ...        4 min,  3.145 sec
 * total energy  : -3427.3469446 Eh     change    :  -0.9589535E-03 Eh
   gradient norm :     0.0549564 Eh/a0  converged?    E=F G=F D=F
   time step     :     0.2679486 fs     power     :  -0.4293507E-07
   step length   :     0.0760272 a0     speed     :   0.6863297E-02

........................................................................
.............................. CYCLE   20 ..............................
........................................................................
 * reset velocities

 iter      E             dE          RMSdq      gap      omega  full diag
   1  -3478.1890165 -0.347819E+04  0.117E-04   11.02       0.0  T
   2  -3478.1890165 -0.493674E-08  0.740E-05   11.02      23.7  T
   3  -3478.1890165 -0.270393E-08  0.309E-05   11.02      56.7  T
     SCC iter.                  ...        3 min,  0.181 sec
     gradient                   ...        4 min,  7.306 sec
 * total energy  : -3427.3469953 Eh     change    :  -0.5065386E-04 Eh
   gradient norm :     0.0546075 Eh/a0  converged?    E=F G=F D=T
   time step     :     0.1339743 fs     power     :   0.5002038E-08
   step length   :     0.0009248 a0     speed     :   0.1669799E-03
 * RMSD in coord.:     0.0347625 a0     energy gain  -0.5757590E+00 Eh

........................................................................
.............................. CYCLE   21 ..............................
........................................................................

 iter      E             dE          RMSdq      gap      omega  full diag
   1  -3478.1953038 -0.347820E+04  0.548E-04   11.02       0.0  T
   2  -3478.1953039 -0.818427E-07  0.311E-04   11.02       5.6  T
   3  -3478.1953039 -0.782165E-09  0.825E-05   11.02      21.2  T
     SCC iter.                  ...        2 min, 58.574 sec
     gradient                   ...        4 min,  5.588 sec
 * total energy  : -3427.3472600 Eh     change    :  -0.2647523E-03 Eh
   gradient norm :     0.0529187 Eh/a0  converged?    E=F G=F D=F
   time step     :     0.2500000 fs     power     :   0.1382678E-07
   step length   :     0.0049257 a0     speed     :   0.4765892E-03

........................................................................
.............................. CYCLE   22 ..............................
........................................................................

 iter      E             dE          RMSdq      gap      omega  full diag
   1  -3478.2053679 -0.347821E+04  0.891E-04   11.02       0.0  T
   2  -3478.2053682 -0.209294E-06  0.507E-04   11.02       3.5  T
   3  -3478.2053682 -0.383670E-08  0.133E-04   11.02      13.2  T
     SCC iter.                  ...        2 min, 59.598 sec
     gradient                   ...        4 min,  3.400 sec
 * total energy  : -3427.3476739 Eh     change    :  -0.4138472E-03 Eh
   gradient norm :     0.0503560 Eh/a0  converged?    E=F G=F D=F
   time step     :     0.2500000 fs     power     :   0.2138692E-07
   step length   :     0.0080254 a0     speed     :   0.7765052E-03

........................................................................
.............................. CYCLE   23 ..............................
........................................................................

 iter      E             dE          RMSdq      gap      omega  full diag
   1  -3478.2187224 -0.347822E+04  0.120E-03   11.03       0.0  T
   2  -3478.2187227 -0.366053E-06  0.683E-04   11.03       2.6  T
   3  -3478.2187228 -0.893169E-08  0.176E-04   11.02       9.9  T
     SCC iter.                  ...        2 min, 56.677 sec
     gradient                   ...        4 min,  5.733 sec
 * total energy  : -3427.3482066 Eh     change    :  -0.5327095E-03 Eh
   gradient norm :     0.0472377 Eh/a0  converged?    E=F G=F D=F
   time step     :     0.2500000 fs     power     :   0.2725070E-07
   step length   :     0.0109689 a0     speed     :   0.1061304E-02

........................................................................
.............................. CYCLE   24 ..............................
........................................................................

 iter      E             dE          RMSdq      gap      omega  full diag
   1  -3478.2346845 -0.347823E+04  0.146E-03   11.03       0.0  T
   2  -3478.2346851 -0.515273E-06  0.833E-04   11.03       2.1  T
   3  -3478.2346851 -0.150362E-07  0.209E-04   11.03       8.4  T
     SCC iter.                  ...        2 min, 58.937 sec
     gradient                   ...        4 min,  4.857 sec
 * total energy  : -3427.3488242 Eh     change    :  -0.6175607E-03 Eh
   gradient norm :     0.0440032 Eh/a0  converged?    E=F G=F D=F
   time step     :     0.2500000 fs     power     :   0.3130796E-07
   step length   :     0.0137116 a0     speed     :   0.1326670E-02

........................................................................
.............................. CYCLE   25 ..............................
........................................................................

 iter      E             dE          RMSdq      gap      omega  full diag
   1  -3478.2523794 -0.347825E+04  0.167E-03   11.03       0.0  T
   2  -3478.2523800 -0.618431E-06  0.952E-04   11.03       1.8  T
   3  -3478.2523801 -0.211485E-07  0.228E-04   11.03       7.7  T
     SCC iter.                  ...        2 min, 56.033 sec
     gradient                   ...        4 min,  2.521 sec
 * total energy  : -3427.3494953 Eh     change    :  -0.6711762E-03 Eh
   gradient norm :     0.0411566 Eh/a0  converged?    E=F G=F D=F
   time step     :     0.2500000 fs     power     :   0.3381007E-07
   step length   :     0.0162230 a0     speed     :   0.1569664E-02

........................................................................
.............................. CYCLE   26 ..............................
........................................................................

 iter      E             dE          RMSdq      gap      omega  full diag
   1  -3478.2727591 -0.347827E+04  0.201E-03   11.03       0.0  T
   2  -3478.2727599 -0.789272E-06  0.115E-03   11.03       1.5  T
   3  -3478.2727599 -0.311379E-07  0.254E-04   11.03       6.9  T
   4  -3478.2727600 -0.121972E-07  0.637E-05   11.03      27.5  T
     SCC iter.                  ...        3 min, 55.063 sec
     gradient                   ...        4 min,  3.528 sec
 * total energy  : -3427.3502746 Eh     change    :  -0.7793045E-03 Eh
   gradient norm :     0.0389787 Eh/a0  converged?    E=F G=F D=F
   time step     :     0.2750000 fs     power     :   0.3539898E-07
   step length   :     0.0205956 a0     speed     :   0.1811577E-02

........................................................................
.............................. CYCLE   27 ..............................
........................................................................

 iter      E             dE          RMSdq      gap      omega  full diag
   1  -3478.2946331 -0.347829E+04  0.232E-03   11.03       0.0  T
   2  -3478.2946339 -0.864640E-06  0.133E-03   11.03       1.3  T
   3  -3478.2946340 -0.388623E-07  0.262E-04   11.03       6.7  T
   4  -3478.2946340 -0.157015E-07  0.707E-05   11.03      24.8  T
     SCC iter.                  ...        4 min,  1.158 sec
     gradient                   ...        4 min,  6.058 sec
 * total energy  : -3427.3511661 Eh     change    :  -0.8914307E-03 Eh
   gradient norm :     0.0379929 Eh/a0  converged?    E=F G=F D=F
   time step     :     0.3025000 fs     power     :   0.3673597E-07
   step length   :     0.0256186 a0     speed     :   0.2048541E-02

........................................................................
.............................. CYCLE   28 ..............................
........................................................................

 iter      E             dE          RMSdq      gap      omega  full diag
   1  -3478.3159765 -0.347832E+04  0.257E-03   11.03       0.0  T
   2  -3478.3159772 -0.744400E-06  0.147E-03   11.03       1.2  T
   3  -3478.3159773 -0.483451E-07  0.237E-04   11.03       7.4  T
   4  -3478.3159773 -0.186201E-07  0.776E-05   11.03      22.6  T
     SCC iter.                  ...        3 min, 57.659 sec
     gradient                   ...        4 min,  4.079 sec
 * total energy  : -3427.3521968 Eh     change    :  -0.1030737E-02 Eh
   gradient norm :     0.0381444 Eh/a0  converged?    E=F G=F D=F
   time step     :     0.3327500 fs     power     :   0.3888518E-07
   step length   :     0.0313751 a0     speed     :   0.2280773E-02

........................................................................
.............................. CYCLE   29 ..............................
........................................................................

 iter      E             dE          RMSdq      gap      omega  full diag
   1  -3478.3341331 -0.347833E+04  0.275E-03   11.03       0.0  T
   2  -3478.3341335 -0.473136E-06  0.159E-03   11.03       1.1  T
   3  -3478.3341336 -0.554460E-07  0.188E-04   11.03       9.3  T
   4  -3478.3341336 -0.211030E-07  0.814E-05   11.03      21.5  T
     SCC iter.                  ...        3 min, 53.719 sec
     gradient                   ...        4 min,  4.037 sec
 * total energy  : -3427.3534247 Eh     change    :  -0.1227936E-02 Eh
   gradient norm :     0.0384848 Eh/a0  converged?    E=F G=F D=F
   time step     :     0.3660250 fs     power     :   0.4264270E-07
   step length   :     0.0380897 a0     speed     :   0.2517164E-02

........................................................................
.............................. CYCLE   30 ..............................
........................................................................

 iter      E             dE          RMSdq      gap      omega  full diag
   1  -3478.3463679 -0.347835E+04  0.292E-03   11.03       0.0  T
   2  -3478.3463682 -0.282210E-06  0.171E-03   11.03       1.0  T
   3  -3478.3463682 -0.575674E-07  0.153E-04   11.03      11.4  T
   4  -3478.3463682 -0.245482E-07  0.816E-05   11.03      21.5  T
     SCC iter.                  ...        3 min, 55.843 sec
     gradient                   ...        4 min,  5.207 sec
 * total energy  : -3427.3549224 Eh     change    :  -0.1497626E-02 Eh
   gradient norm :     0.0376020 Eh/a0  converged?    E=F G=F D=F
   time step     :     0.4026275 fs     power     :   0.4762822E-07
   step length   :     0.0461746 a0     speed     :   0.2774053E-02

........................................................................
.............................. CYCLE   31 ..............................
........................................................................

 iter      E             dE          RMSdq      gap      omega  full diag
   1  -3478.3507553 -0.347835E+04  0.320E-03   11.03       0.0  T
   2  -3478.3507558 -0.541116E-06  0.190E-03   11.03       1.0  T
   3  -3478.3507559 -0.554619E-07  0.170E-04   11.03      10.3  T
   4  -3478.3507559 -0.292880E-07  0.763E-05   11.03      23.0  T
     SCC iter.                  ...        3 min, 54.813 sec
     gradient                   ...        4 min,  4.550 sec
 * total energy  : -3427.3567277 Eh     change    :  -0.1805350E-02 Eh
   gradient norm :     0.0345203 Eh/a0  converged?    E=F G=F D=F
   time step     :     0.4428903 fs     power     :   0.5183954E-07
   step length   :     0.0561170 a0     speed     :   0.3064879E-02

........................................................................
.............................. CYCLE   32 ..............................
........................................................................

 iter      E             dE          RMSdq      gap      omega  full diag
   1  -3478.3476909 -0.347835E+04  0.366E-03   11.03       0.0  T
   2  -3478.3476924 -0.143766E-05  0.219E-03   11.03       1.0  T
   3  -3478.3476924 -0.619830E-07  0.259E-04   11.03       6.8  T
   4  -3478.3476925 -0.332798E-07  0.772E-05   11.03      22.7  T
     SCC iter.                  ...        3 min, 58.098 sec
     gradient                   ...        4 min,  4.746 sec
 * total energy  : -3427.3587876 Eh     change    :  -0.2059859E-02 Eh
   gradient norm :     0.0299195 Eh/a0  converged?    E=F G=F D=F
   time step     :     0.4871793 fs     power     :   0.5255571E-07
   step length   :     0.0682393 a0     speed     :   0.3388136E-02

........................................................................
.............................. CYCLE   33 ..............................
........................................................................

 iter      E             dE          RMSdq      gap      omega  full diag
   1  -3478.3421874 -0.347834E+04  0.421E-03   11.03       0.0  T
   2  -3478.3421897 -0.233390E-05  0.254E-03   11.03       1.0  T
   3  -3478.3421898 -0.742830E-07  0.331E-04   11.03       5.3  T
   4  -3478.3421898 -0.366458E-07  0.807E-05   11.03      21.7  T
     SCC iter.                  ...        4 min,  2.224 sec
     gradient                   ...        4 min,  4.100 sec
 * total energy  : -3427.3609678 Eh     change    :  -0.2180215E-02 Eh
   gradient norm :     0.0269930 Eh/a0  converged?    E=F G=F D=F
   time step     :     0.5358972 fs     power     :   0.4915139E-07
   step length   :     0.0824395 a0     speed     :   0.3721080E-02

........................................................................
.............................. CYCLE   34 ..............................
........................................................................

 iter      E             dE          RMSdq      gap      omega  full diag
   1  -3478.3458321 -0.347835E+04  0.475E-03   11.03       0.0  T
   2  -3478.3458339 -0.183773E-05  0.286E-03   11.03       1.0  T
   3  -3478.3458340 -0.933182E-07  0.249E-04   11.03       7.0  T
   4  -3478.3458341 -0.363525E-07  0.853E-05   11.03      20.5  T
     SCC iter.                  ...        4 min,  0.054 sec
     gradient                   ...        4 min,  5.038 sec
 * total energy  : -3427.3632014 Eh     change    :  -0.2233661E-02 Eh
   gradient norm :     0.0275961 Eh/a0  converged?    E=F G=F D=F
   time step     :     0.5894869 fs     power     :   0.4550625E-07
   step length   :     0.0979325 a0     speed     :   0.4018534E-02

........................................................................
.............................. CYCLE   35 ..............................
........................................................................

 iter      E             dE          RMSdq      gap      omega  full diag
   1  -3478.3721606 -0.347837E+04  0.545E-03   11.03       0.0  T
   2  -3478.3721611 -0.486427E-06  0.323E-03   11.03       1.0  T
   3  -3478.3721612 -0.132757E-06  0.167E-04   11.03      10.5  T
   4  -3478.3721612 -0.251262E-07  0.954E-05   11.03      18.4  T
     SCC iter.                  ...        3 min, 56.130 sec
     gradient                   ...        4 min,  4.532 sec
 * total energy  : -3427.3655977 Eh     change    :  -0.2396289E-02 Eh
   gradient norm :     0.0271310 Eh/a0  converged?    E=F G=F D=F
   time step     :     0.6484356 fs     power     :   0.4501108E-07
   step length   :     0.1142147 a0     speed     :   0.4260594E-02

........................................................................
.............................. CYCLE   36 ..............................
........................................................................

 iter      E             dE          RMSdq      gap      omega  full diag
   1  -3478.4272205 -0.347843E+04  0.658E-03   11.04       0.0  T
   2  -3478.4272217 -0.118291E-05  0.381E-03   11.04       1.0  T
   3  -3478.4272218 -0.181476E-06  0.238E-04   11.04       7.4  T
   4  -3478.4272219 -0.226664E-07  0.110E-04   11.04      16.0  T
     SCC iter.                  ...        3 min, 57.420 sec
     gradient                   ...        4 min,  3.733 sec
 * total energy  : -3427.3681972 Eh     change    :  -0.2599429E-02 Eh
   gradient norm :     0.0229858 Eh/a0  converged?    E=F G=F D=F
   time step     :     0.7132792 fs     power     :   0.4347993E-07
   step length   :     0.1326347 a0     speed     :   0.4497929E-02

........................................................................
.............................. CYCLE   37 ..............................
........................................................................

 iter      E             dE          RMSdq      gap      omega  full diag
   1  -3478.4994125 -0.347850E+04  0.749E-03   11.04       0.0  T
   2  -3478.4994154 -0.294653E-05  0.430E-03   11.04       1.0  T
   3  -3478.4994156 -0.200059E-06  0.386E-04   11.04       4.5  T
   4  -3478.4994157 -0.324408E-07  0.114E-04   11.04      15.3  T
     SCC iter.                  ...        3 min, 58.057 sec
     gradient                   ...        4 min,  4.634 sec
 * total energy  : -3427.3707829 Eh     change    :  -0.2585734E-02 Eh
   gradient norm :     0.0224911 Eh/a0  converged?    E=F G=F D=F
   time step     :     0.7846071 fs     power     :   0.3760045E-07
   step length   :     0.1539513 a0     speed     :   0.4746202E-02

........................................................................
.............................. CYCLE   38 ..............................
........................................................................

 iter      E             dE          RMSdq      gap      omega  full diag
   1  -3478.5536422 -0.347855E+04  0.714E-03   11.05       0.0  T
   2  -3478.5536431 -0.868486E-06  0.415E-03   11.05       1.0  T
   3  -3478.5536433 -0.174242E-06  0.200E-04   11.05       8.8  T
   4  -3478.5536433 -0.179957E-07  0.940E-05   11.05      18.6  T
     SCC iter.                  ...        3 min, 58.173 sec
     gradient                   ...        4 min,  5.200 sec
 * total energy  : -3427.3734143 Eh     change    :  -0.2631388E-02 Eh
   gradient norm :     0.0245843 Eh/a0  converged?    E=F G=F D=F
   time step     :     0.8630678 fs     power     :   0.3600279E-07
   step length   :     0.1756455 a0     speed     :   0.4922744E-02

........................................................................
.............................. CYCLE   39 ..............................
........................................................................

 iter      E             dE          RMSdq      gap      omega  full diag
   1  -3478.5658263 -0.347857E+04  0.658E-03   11.05       0.0  T
   2  -3478.5658286 -0.228609E-05  0.394E-03   11.05       1.0  T
   3  -3478.5658288 -0.201907E-06  0.241E-04   11.05       7.3  T
   4  -3478.5658288 -0.279811E-07  0.115E-04   11.05      15.3  T
     SCC iter.                  ...        3 min, 59.119 sec
     gradient                   ...        4 min,  6.083 sec
 * total energy  : -3427.3763604 Eh     change    :  -0.2946131E-02 Eh
   gradient norm :     0.0213690 Eh/a0  converged?    E=F G=F D=F
   time step     :     0.9493746 fs     power     :   0.3654622E-07
   step length   :     0.1992537 a0     speed     :   0.5076728E-02

........................................................................
.............................. CYCLE   40 ..............................
........................................................................

 iter      E             dE          RMSdq      gap      omega  full diag
   1  -3478.5551390 -0.347856E+04  0.663E-03   11.05       0.0  T
   2  -3478.5551442 -0.521853E-05  0.399E-03   11.06       1.0  T
   3  -3478.5551445 -0.290007E-06  0.448E-04   11.06       3.9  T
   4  -3478.5551446 -0.568343E-07  0.159E-04   11.06      11.0  T
     SCC iter.                  ...        4 min,  1.661 sec
     gradient                   ...        4 min,  6.497 sec
 * total energy  : -3427.3794514 Eh     change    :  -0.3090991E-02 Eh
   gradient norm :     0.0236127 Eh/a0  converged?    E=F G=F D=F
   time step     :     1.0443120 fs     power     :   0.3406639E-07
   step length   :     0.2275492 a0     speed     :   0.5270601E-02

........................................................................
.............................. CYCLE   41 ..............................
........................................................................

 iter      E             dE          RMSdq      gap      omega  full diag
   1  -3478.5777442 -0.347858E+04  0.750E-03   11.06       0.0  T
   2  -3478.5777451 -0.892280E-06  0.440E-03   11.06       1.0  T
   3  -3478.5777454 -0.288507E-06  0.244E-04   11.06       7.2  T
   4  -3478.5777455 -0.321875E-07  0.145E-04   11.06      12.1  T
     SCC iter.                  ...        3 min, 55.730 sec
     gradient                   ...        4 min,  7.185 sec
 * total energy  : -3427.3830287 Eh     change    :  -0.3577329E-02 Eh
   gradient norm :     0.0215757 Eh/a0  converged?    E=F G=F D=F
   time step     :     1.1487432 fs     power     :   0.3767685E-07
   step length   :     0.2578728 a0     speed     :   0.5429973E-02

........................................................................
.............................. CYCLE   42 ..............................
........................................................................

 iter      E             dE          RMSdq      gap      omega  full diag
   1  -3478.6290938 -0.347863E+04  0.896E-03   11.07       0.0  T
   2  -3478.6290974 -0.365711E-05  0.519E-03   11.07       1.0  T
   3  -3478.6290977 -0.273899E-06  0.388E-04   11.07       4.5  T
   4  -3478.6290977 -0.422315E-07  0.128E-04   11.07      13.7  T
     SCC iter.                  ...        3 min, 53.819 sec
     gradient                   ...        4 min,  6.462 sec
 * total energy  : -3427.3869290 Eh     change    :  -0.3900270E-02 Eh
   gradient norm :     0.0219345 Eh/a0  converged?    E=F G=F D=F
   time step     :     1.2500000 fs     power     :   0.3563632E-07
   step length   :     0.2927209 a0     speed     :   0.5664464E-02
 * RMSD in coord.:     0.0337321 a0     energy gain  -0.3993373E-01 Eh

........................................................................
.............................. CYCLE   43 ..............................
........................................................................

 iter      E             dE          RMSdq      gap      omega  full diag
   1  -3478.6322469 -0.347863E+04  0.146E-03   11.07       0.0  T
   2  -3478.6322470 -0.436858E-07  0.855E-04   11.07       2.0  T
   3  -3478.6322470 -0.120635E-07  0.540E-05   11.07      32.4  T
     SCC iter.                  ...        2 min, 56.223 sec
     gradient                   ...        4 min,  5.536 sec
 * total energy  : -3427.3876768 Eh     change    :  -0.7478364E-03 Eh
   gradient norm :     0.0217868 Eh/a0  converged?    E=F G=F D=F
   time step     :     0.2500000 fs     power     :   0.3900304E-07
   step length   :     0.0567500 a0     speed     :   0.5490866E-02

........................................................................
.............................. CYCLE   44 ..............................
........................................................................

 iter      E             dE          RMSdq      gap      omega  full diag
   1  -3478.6290598 -0.347863E+04  0.140E-03   11.08       0.0  T
   2  -3478.6290600 -0.186729E-06  0.823E-04   11.08       2.1  T
   3  -3478.6290600 -0.126629E-07  0.892E-05   11.08      19.6  T
     SCC iter.                  ...        3 min,  2.687 sec
     gradient                   ...        4 min,  3.301 sec
 * total energy  : -3427.3884726 Eh     change    :  -0.7957154E-03 Eh
   gradient norm :     0.0201292 Eh/a0  converged?    E=F G=F D=F
   time step     :     0.2500000 fs     power     :   0.4132454E-07
   step length   :     0.0554889 a0     speed     :   0.5368850E-02

........................................................................
.............................. CYCLE   45 ..............................
........................................................................

 iter      E             dE          RMSdq      gap      omega  full diag
   1  -3478.6213783 -0.347862E+04  0.153E-03   11.08       0.0  T
   2  -3478.6213787 -0.425163E-06  0.898E-04   11.08       2.0  T
   3  -3478.6213788 -0.154869E-07  0.160E-04   11.08      11.0  T
     SCC iter.                  ...        3 min,  6.127 sec
     gradient                   ...        4 min,  4.162 sec
 * total energy  : -3427.3892817 Eh     change    :  -0.8090970E-03 Eh
   gradient norm :     0.0180299 Eh/a0  converged?    E=F G=F D=F
   time step     :     0.2500000 fs     power     :   0.4150385E-07
   step length   :     0.0548427 a0     speed     :   0.5306322E-02

........................................................................
.............................. CYCLE   46 ..............................
........................................................................

 iter      E             dE          RMSdq      gap      omega  full diag
   1  -3478.6121605 -0.347861E+04  0.166E-03   11.08       0.0  T
   2  -3478.6121610 -0.532772E-06  0.973E-04   11.08       1.8  T
   3  -3478.6121610 -0.169193E-07  0.183E-04   11.08       9.6  T
     SCC iter.                  ...        2 min, 57.943 sec
     gradient                   ...        4 min,  5.241 sec
 * total energy  : -3427.3900707 Eh     change    :  -0.7889945E-03 Eh
   gradient norm :     0.0169343 Eh/a0  converged?    E=F G=F D=F
   time step     :     0.2500000 fs     power     :   0.4013080E-07
   step length   :     0.0546776 a0     speed     :   0.5290348E-02

........................................................................
.............................. CYCLE   47 ..............................
........................................................................

 iter      E             dE          RMSdq      gap      omega  full diag
   1  -3478.6049926 -0.347860E+04  0.169E-03   11.08       0.0  T
   2  -3478.6049930 -0.389996E-06  0.991E-04   11.08       1.8  T
   3  -3478.6049930 -0.158620E-07  0.143E-04   11.08      12.2  T
     SCC iter.                  ...        3 min,  3.661 sec
     gradient                   ...        4 min,  3.935 sec
 * total energy  : -3427.3908319 Eh     change    :  -0.7612315E-03 Eh
   gradient norm :     0.0171166 Eh/a0  converged?    E=F G=F D=F
   time step     :     0.2500000 fs     power     :   0.3887640E-07
   step length   :     0.0546123 a0     speed     :   0.5284034E-02

........................................................................
.............................. CYCLE   48 ..............................
........................................................................

 iter      E             dE          RMSdq      gap      omega  full diag
   1  -3478.6024064 -0.347860E+04  0.183E-03   11.08       0.0  T
   2  -3478.6024065 -0.184304E-06  0.107E-03   11.08       1.6  T
   3  -3478.6024066 -0.158079E-07  0.811E-05   11.08      21.6  T
   4  -3478.6024066 -0.446880E-08  0.306E-05   11.08      57.3  T
     SCC iter.                  ...        3 min, 59.651 sec
     gradient                   ...        4 min,  4.020 sec
 * total energy  : -3427.3916553 Eh     change    :  -0.8234642E-03 Eh
   gradient norm :     0.0173789 Eh/a0  converged?    E=F G=F D=F
   time step     :     0.2750000 fs     power     :   0.3851708E-07
   step length   :     0.0598924 a0     speed     :   0.5268105E-02

........................................................................
.............................. CYCLE   49 ..............................
........................................................................

 iter      E             dE          RMSdq      gap      omega  full diag
   1  -3478.6067715 -0.347861E+04  0.203E-03   11.08       0.0  T
   2  -3478.6067716 -0.699124E-07  0.118E-03   11.08       1.5  T
   3  -3478.6067716 -0.169875E-07  0.614E-05   11.08      28.5  T
   4  -3478.6067716 -0.477576E-08  0.290E-05   11.08      60.5  T
     SCC iter.                  ...        3 min, 56.754 sec
     gradient                   ...        4 min,  4.177 sec
 * total energy  : -3427.3925591 Eh     change    :  -0.9037335E-03 Eh
   gradient norm :     0.0164747 Eh/a0  converged?    E=F G=F D=F
   time step     :     0.3025000 fs     power     :   0.3847001E-07
   step length   :     0.0657063 a0     speed     :   0.5254084E-02

........................................................................
.............................. CYCLE   50 ..............................
........................................................................

 iter      E             dE          RMSdq      gap      omega  full diag
   1  -3478.6186242 -0.347862E+04  0.231E-03   11.08       0.0  T
   2  -3478.6186244 -0.226054E-06  0.135E-03   11.08       1.3  T
   3  -3478.6186245 -0.229857E-07  0.941E-05   11.08      18.6  T
   4  -3478.6186245 -0.494902E-08  0.356E-05   11.08      49.3  T
     SCC iter.                  ...        3 min, 55.410 sec
     gradient                   ...        4 min,  3.761 sec
 * total energy  : -3427.3935337 Eh     change    :  -0.9746041E-03 Eh
   gradient norm :     0.0144766 Eh/a0  converged?    E=F G=F D=F
   time step     :     0.3327500 fs     power     :   0.3725467E-07
   step length   :     0.0725012 a0     speed     :   0.5270385E-02

........................................................................
.............................. CYCLE   51 ..............................
........................................................................

 iter      E             dE          RMSdq      gap      omega  full diag
   1  -3478.6352598 -0.347864E+04  0.257E-03   11.09       0.0  T
   2  -3478.6352603 -0.489662E-06  0.150E-03   11.09       1.2  T
   3  -3478.6352603 -0.295890E-07  0.149E-04   11.09      11.8  T
   4  -3478.6352603 -0.614864E-08  0.431E-05   11.09      40.6  T
     SCC iter.                  ...        4 min,  0.430 sec
     gradient                   ...        4 min,  4.301 sec
 * total energy  : -3427.3945422 Eh     change    :  -0.1008469E-02 Eh
   gradient norm :     0.0134347 Eh/a0  converged?    E=F G=F D=F
   time step     :     0.3660250 fs     power     :   0.3445910E-07
   step length   :     0.0806371 a0     speed     :   0.5328921E-02

........................................................................
.............................. CYCLE   52 ..............................
........................................................................

 iter      E             dE          RMSdq      gap      omega  full diag
   1  -3478.6493372 -0.347865E+04  0.259E-03   11.09       0.0  T
   2  -3478.6493375 -0.355415E-06  0.151E-03   11.09       1.2  T
   3  -3478.6493375 -0.320069E-07  0.117E-04   11.09      14.9  T
   4  -3478.6493375 -0.577438E-08  0.425E-05   11.09      41.2  T
     SCC iter.                  ...        3 min, 56.256 sec
     gradient                   ...        4 min,  4.146 sec
 * total energy  : -3427.3955729 Eh     change    :  -0.1030724E-02 Eh
   gradient norm :     0.0142289 Eh/a0  converged?    E=F G=F D=F
   time step     :     0.4026275 fs     power     :   0.3210708E-07
   step length   :     0.0895912 a0     speed     :   0.5382414E-02

........................................................................
.............................. CYCLE   53 ..............................
........................................................................

 iter      E             dE          RMSdq      gap      omega  full diag
   1  -3478.6533875 -0.347865E+04  0.250E-03   11.09       0.0  T
   2  -3478.6533877 -0.112568E-06  0.147E-03   11.09       1.2  T
   3  -3478.6533877 -0.336822E-07  0.778E-05   11.09      22.5  T
   4  -3478.6533877 -0.498767E-08  0.420E-05   11.09      41.7  T
     SCC iter.                  ...        3 min, 54.732 sec
     gradient                   ...        4 min,  3.986 sec
 * total energy  : -3427.3966650 Eh     change    :  -0.1092162E-02 Eh
   gradient norm :     0.0140636 Eh/a0  converged?    E=F G=F D=F
   time step     :     0.4428903 fs     power     :   0.3127795E-07
   step length   :     0.0986438 a0     speed     :   0.5387519E-02

........................................................................
.............................. CYCLE   54 ..............................
........................................................................

 iter      E             dE          RMSdq      gap      omega  full diag
   1  -3478.6451184 -0.347865E+04  0.260E-03   11.09       0.0  T
   2  -3478.6451189 -0.502345E-06  0.153E-03   11.09       1.1  T
   3  -3478.6451190 -0.443565E-07  0.137E-04   11.09      12.8  T
   4  -3478.6451190 -0.731416E-08  0.540E-05   11.09      32.4  T
     SCC iter.                  ...        3 min, 54.975 sec
     gradient                   ...        4 min,  4.036 sec
 * total energy  : -3427.3978291 Eh     change    :  -0.1164096E-02 Eh
   gradient norm :     0.0124666 Eh/a0  converged?    E=F G=F D=F
   time step     :     0.4871793 fs     power     :   0.2996673E-07
   step length   :     0.1086908 a0     speed     :   0.5396587E-02

........................................................................
.............................. CYCLE   55 ..............................
........................................................................

 iter      E             dE          RMSdq      gap      omega  full diag
   1  -3478.6313124 -0.347863E+04  0.268E-03   11.09       0.0  T
   2  -3478.6313133 -0.910035E-06  0.158E-03   11.09       1.1  T
   3  -3478.6313133 -0.572218E-07  0.213E-04   11.09       8.2  T
   4  -3478.6313133 -0.106020E-07  0.682E-05   11.09      25.7  T
     SCC iter.                  ...        4 min,  4.297 sec
     gradient                   ...        4 min,  3.782 sec
 * total energy  : -3427.3990296 Eh     change    :  -0.1200423E-02 Eh
   gradient norm :     0.0129133 Eh/a0  converged?    E=F G=F D=F
   time step     :     0.5358972 fs     power     :   0.2779278E-07
   step length   :     0.1204876 a0     speed     :   0.5438460E-02

........................................................................
.............................. CYCLE   56 ..............................
........................................................................

 iter      E             dE          RMSdq      gap      omega  full diag
   1  -3478.6272319 -0.347863E+04  0.258E-03   11.10       0.0  T
   2  -3478.6272323 -0.331200E-06  0.152E-03   11.10       1.2  T
   3  -3478.6272323 -0.546552E-07  0.127E-04   11.10      13.7  T
   4  -3478.6272323 -0.918635E-08  0.661E-05   11.10      26.5  T
     SCC iter.                  ...        3 min, 53.406 sec
     gradient                   ...        4 min,  4.019 sec
 * total energy  : -3427.4003046 Eh     change    :  -0.1275065E-02 Eh
   gradient norm :     0.0135114 Eh/a0  converged?    E=F G=F D=F
   time step     :     0.5894869 fs     power     :   0.2739082E-07
   step length   :     0.1326536 a0     speed     :   0.5443269E-02

........................................................................
.............................. CYCLE   57 ..............................
........................................................................

 iter      E             dE          RMSdq      gap      omega  full diag
   1  -3478.6410244 -0.347864E+04  0.296E-03   11.10       0.0  T
   2  -3478.6410248 -0.390400E-06  0.172E-03   11.10       1.0  T
   3  -3478.6410249 -0.449209E-07  0.154E-04   11.10      11.4  T
   4  -3478.6410249 -0.120531E-07  0.599E-05   11.10      29.2  T
     SCC iter.                  ...        3 min, 56.973 sec
     gradient                   ...        4 min,  4.629 sec
 * total energy  : -3427.4016997 Eh     change    :  -0.1395029E-02 Eh
   gradient norm :     0.0119825 Eh/a0  converged?    E=F G=F D=F
   time step     :     0.6484356 fs     power     :   0.2705454E-07
   step length   :     0.1458993 a0     speed     :   0.5442536E-02

........................................................................
.............................. CYCLE   58 ..............................
........................................................................

 iter      E             dE          RMSdq      gap      omega  full diag
   1  -3478.6646695 -0.347866E+04  0.334E-03   11.11       0.0  T
   2  -3478.6646701 -0.662616E-06  0.194E-03   11.11       1.0  T
   3  -3478.6646702 -0.459963E-07  0.194E-04   11.11       9.0  T
   4  -3478.6646702 -0.120313E-07  0.604E-05   11.11      29.0  T
     SCC iter.                  ...        4 min,  2.764 sec
     gradient                   ...        4 min,  5.952 sec
 * total energy  : -3427.4031749 Eh     change    :  -0.1475199E-02 Eh
   gradient norm :     0.0127205 Eh/a0  converged?    E=F G=F D=F
   time step     :     0.7132792 fs     power     :   0.2577282E-07
   step length   :     0.1618157 a0     speed     :   0.5487521E-02

........................................................................
.............................. CYCLE   59 ..............................
........................................................................

 iter      E             dE          RMSdq      gap      omega  full diag
   1  -3478.6774864 -0.347868E+04  0.322E-03   11.11       0.0  T
   2  -3478.6774867 -0.259695E-06  0.191E-03   11.11       1.0  T
   3  -3478.6774867 -0.576633E-07  0.124E-04   11.11      14.1  T
   4  -3478.6774867 -0.104833E-07  0.715E-05   11.11      24.5  T
     SCC iter.                  ...        3 min, 56.379 sec
     gradient                   ...        4 min,  5.204 sec
 * total energy  : -3427.4047859 Eh     change    :  -0.1611092E-02 Eh
   gradient norm :     0.0119641 Eh/a0  converged?    E=F G=F D=F
   time step     :     0.7846071 fs     power     :   0.2602759E-07
   step length   :     0.1785601 a0     speed     :   0.5504874E-02

........................................................................
.............................. CYCLE   60 ..............................
........................................................................

 iter      E             dE          RMSdq      gap      omega  full diag
   1  -3478.6785263 -0.347868E+04  0.348E-03   11.12       0.0  T
   2  -3478.6785277 -0.139447E-05  0.211E-03   11.12       1.0  T
   3  -3478.6785278 -0.705272E-07  0.238E-04   11.12       7.4  T
   4  -3478.6785278 -0.188411E-07  0.828E-05   11.12      21.2  T
     SCC iter.                  ...        3 min, 54.892 sec
     gradient                   ...        4 min,  4.675 sec
 * total energy  : -3427.4065120 Eh     change    :  -0.1726070E-02 Eh
   gradient norm :     0.0113072 Eh/a0  converged?    E=F G=F D=F
   time step     :     0.8630678 fs     power     :   0.2462191E-07
   step length   :     0.1983739 a0     speed     :   0.5559744E-02

........................................................................
.............................. CYCLE   61 ..............................
........................................................................

 iter      E             dE          RMSdq      gap      omega  full diag
   1  -3478.6993247 -0.347870E+04  0.412E-03   11.12       0.0  T
   2  -3478.6993250 -0.302251E-06  0.244E-03   11.13       1.0  T
   3  -3478.6993251 -0.621380E-07  0.128E-04   11.13      13.7  T
   4  -3478.6993251 -0.111236E-07  0.661E-05   11.13      26.5  T
     SCC iter.                  ...        3 min, 54.486 sec
     gradient                   ...        4 min,  5.435 sec
 * total energy  : -3427.4083348 Eh     change    :  -0.1822784E-02 Eh
   gradient norm :     0.0105830 Eh/a0  converged?    E=F G=F D=F
   time step     :     0.9493746 fs     power     :   0.2396094E-07
   step length   :     0.2204740 a0     speed     :   0.5617393E-02

........................................................................
.............................. CYCLE   62 ..............................
........................................................................

 iter      E             dE          RMSdq      gap      omega  full diag
   1  -3478.7445160 -0.347874E+04  0.559E-03   11.13       0.0  T
   2  -3478.7445173 -0.130174E-05  0.323E-03   11.13       1.0  T
   3  -3478.7445174 -0.888385E-07  0.254E-04   11.13       6.9  T
   4  -3478.7445174 -0.173100E-07  0.767E-05   11.13      22.9  T
     SCC iter.                  ...        3 min, 58.544 sec
     gradient                   ...        4 min,  4.413 sec
 * total energy  : -3427.4102043 Eh     change    :  -0.1869550E-02 Eh
   gradient norm :     0.0104225 Eh/a0  converged?    E=F G=F D=F
   time step     :     1.0443120 fs     power     :   0.2134391E-07
   step length   :     0.2458364 a0     speed     :   0.5694177E-02

........................................................................
.............................. CYCLE   63 ..............................
........................................................................

 iter      E             dE          RMSdq      gap      omega  full diag
   1  -3478.7556959 -0.347876E+04  0.515E-03   11.14       0.0  T
   2  -3478.7556971 -0.112925E-05  0.306E-03   11.14       1.0  T
   3  -3478.7556971 -0.704858E-07  0.193E-04   11.14       9.1  T
   4  -3478.7556972 -0.320165E-07  0.732E-05   11.14      23.9  T
     SCC iter.                  ...        3 min, 54.593 sec
     gradient                   ...        4 min,  5.295 sec
 * total energy  : -3427.4120869 Eh     change    :  -0.1882580E-02 Eh
   gradient norm :     0.0086440 Eh/a0  converged?    E=F G=F D=F
   time step     :     1.1487432 fs     power     :   0.1963394E-07
   step length   :     0.2722360 a0     speed     :   0.5732415E-02

........................................................................
.............................. CYCLE   64 ..............................
........................................................................

 iter      E             dE          RMSdq      gap      omega  full diag
   1  -3478.7573431 -0.347876E+04  0.532E-03   11.15       0.0  T
   2  -3478.7573444 -0.129821E-05  0.317E-03   11.15       1.0  T
   3  -3478.7573445 -0.769091E-07  0.196E-04   11.15       8.9  T
   4  -3478.7573445 -0.286627E-07  0.773E-05   11.15      22.7  T
     SCC iter.                  ...        4 min,  0.472 sec
     gradient                   ...        4 min,  4.942 sec
 * total energy  : -3427.4139053 Eh     change    :  -0.1818367E-02 Eh
   gradient norm :     0.0100337 Eh/a0  converged?    E=F G=F D=F
   time step     :     1.2500000 fs     power     :   0.1716656E-07
   step length   :     0.2995227 a0     speed     :   0.5796085E-02

........................................................................
.............................. CYCLE   65 ..............................
........................................................................

 iter      E             dE          RMSdq      gap      omega  full diag
   1  -3478.7975586 -0.347880E+04  0.609E-03   11.16       0.0  T
   2  -3478.7975605 -0.186772E-05  0.353E-03   11.16       1.0  T
   3  -3478.7975606 -0.759742E-07  0.303E-04   11.16       5.8  T
   4  -3478.7975606 -0.309874E-07  0.771E-05   11.16      22.7  T
     SCC iter.                  ...        3 min, 59.172 sec
     gradient                   ...        4 min,  4.962 sec
 * total energy  : -3427.4155575 Eh     change    :  -0.1652209E-02 Eh
   gradient norm :     0.0103698 Eh/a0  converged?    E=F G=F D=F
   time step     :     1.2500000 fs     power     :   0.1510549E-07
   step length   :     0.2976799 a0     speed     :   0.5760425E-02

........................................................................
.............................. CYCLE   66 ..............................
........................................................................

 iter      E             dE          RMSdq      gap      omega  full diag
   1  -3478.7941149 -0.347879E+04  0.457E-03   11.17       0.0  T
   2  -3478.7941165 -0.163098E-05  0.273E-03   11.17       1.0  T
   3  -3478.7941166 -0.835053E-07  0.241E-04   11.17       7.3  T
   4  -3478.7941166 -0.253272E-07  0.895E-05   11.18      19.6  T
     SCC iter.                  ...        3 min, 53.260 sec
     gradient                   ...        4 min,  4.194 sec
 * total energy  : -3427.4171070 Eh     change    :  -0.1549463E-02 Eh
   gradient norm :     0.0086118 Eh/a0  converged?    E=F G=F D=F
   time step     :     1.2500000 fs     power     :   0.1464150E-07
[...]
  3011   6 C     3012   6 C                                       1.5272380
  3012   6 C     3013   6 C                                       1.5304796
  3013   6 C     3014   6 C                                       1.5297378
  3014   6 C     3015   6 C                                       1.5255500
  3015   6 C     3016   6 C                                       1.5231759
  3015   6 C     3017   1 H                                       1.0904660
  3015   6 C     3018   1 H                                       1.0921573
  3014   6 C     3019   1 H                                       1.0939430
  3014   6 C     3020   1 H                                       1.0921677
  3013   6 C     3021   1 H                                       1.0924262
  3013   6 C     3022   1 H                                       1.0938296
  3012   6 C     3023   1 H                                       1.0920329
  3012   6 C     3024   1 H                                       1.0939572
  3011   6 C     3025   1 H                                       1.0932965
  3011   6 C     3026   1 H                                       1.0916178
  3010   6 C     3027   1 H                                       1.0928154
  3010   6 C     3028   1 H                                       1.0932047
  3009   6 C     3029   1 H                                       1.0932210
  3009   6 C     3030   1 H                                       1.0931454
  3008   6 C     3031   1 H                                       1.0927469
  3008   6 C     3032   1 H                                       1.0924159
  3007   6 C     3033   1 H                                       1.0928953
  3007   6 C     3034   1 H                                       1.0922692
  3006   6 C     3035   1 H                                       1.0933290
  3006   6 C     3036   1 H                                       1.0929928
  3005   6 C     3037   1 H                                       1.0928978
  3005   6 C     3038   1 H                                       1.0916940
  3004   6 C     3039   1 H                                       1.0924428
  3004   6 C     3040   1 H                                       1.0918422
  3003   6 C     3041   1 H                                       1.0928157
  3003   6 C     3042   1 H                                       1.0929214
  3002   6 C     3043   1 H                                       1.0927803
  3002   6 C     3044   1 H                                       1.0903663
  3001   6 C     3045   1 H                                       1.0913789
  3001   6 C     3046   1 H                                       1.0926894
  3000   6 C     3047   1 H                                       1.0927874
  3000   6 C     3048   1 H                                       1.0928575
  2999   6 C     3049   1 H                                       1.0896885
  2999   6 C     3050   1 H                                       1.0929700
  2998   6 C     3051   1 H                                       1.0932802
  2998   6 C     3052   1 H                                       1.0933551
  2997   6 C     3053   1 H                                       1.0929421
  2997   6 C     3054   1 H                                       1.0933908
  2996   6 C     3055   1 H                                       1.0923152
  2996   6 C     3056   1 H                                       1.0906726
  2995   6 C     3057   1 H                                       1.0928867
  2995   6 C     3058   1 H                                       1.0930969
  2994   6 C     3059   1 H                                       1.0926294
  2994   6 C     3060   1 H                                       1.0934666
  2993   6 C     3061   1 H                                       1.0913862
  2993   6 C     3062   1 H                                       1.0927006
  2992   6 C     3063   1 H                                       1.0939777
  2992   6 C     3064   1 H                                       1.0912174
  2991   6 C     3065   1 H                                       1.0923733
  2991   6 C     3066   1 H                                       1.0935791
  2990   6 C     3067   1 H                                       1.0909952
  2990   6 C     3068   1 H                                       1.0913646
  2989   6 C     3069   1 H                                       1.0936102
  2989   6 C     3070   1 H                                       1.0921334
  2988   6 C     3071   1 H                                       1.0927135
  2988   6 C     3072   1 H                                       1.0924423
  2987   6 C     3073   1 H                                       1.0921849
  2987   6 C     3074   1 H                                       1.0935534
  2986   6 C     3075   1 H                                       1.0923228
  2986   6 C     3076   1 H                                       1.0929131
  2985   6 C     3077   1 H                                       1.0933450
  2985   6 C     3078   1 H                                       1.0935590
  2984   6 C     3079   1 H                                       1.0919615
  2984   6 C     3080   1 H                                       1.0931465
  2983   6 C     3081   1 H                                       1.0929241
  2983   6 C     3082   1 H                                       1.0935212
  2982   6 C     3083   1 H                                       1.0920043
  2982   6 C     3084   1 H                                       1.0914432
  2981   6 C     3085   1 H                                       1.0927898
  2981   6 C     3086   1 H                                       1.0934489
  2980   6 C     3087   1 H                                       1.0919147
  2980   6 C     3088   1 H                                       1.0933928
  2979   6 C     3089   1 H                                       1.0929917
  2979   6 C     3090   1 H                                       1.0934722
  2978   6 C     3091   1 H                                       1.0913901
  2978   6 C     3092   1 H                                       1.0912693
  2977   6 C     3093   1 H                                       1.0911424
  2977   6 C     3094   1 H                                       1.0941670
  2976   6 C     3095   1 H                                       1.0926492
  2976   6 C     3096   1 H                                       1.0930562
  2975   6 C     3097   1 H                                       1.0943677
  2975   6 C     3098   1 H                                       1.0925051
  2974   6 C     3099   1 H                                       1.0944927
  2974   6 C     3100   1 H                                       1.0914747
  2973   6 C     3101   1 H                                       1.0899301
  2973   6 C     3102   1 H                                       1.0916428
  2972   6 C     3103   1 H                                       1.0941141
  2972   6 C     3104   1 H                                       1.0931037
  2971   6 C     3105   1 H                                       1.0944103
  2971   6 C     3106   1 H                                       1.0939478
  2970   6 C     3107   1 H                                       1.0910619
  2970   6 C     3108   1 H                                       1.0905437
  2969   6 C     3109   1 H                                       1.0940711
  2969   6 C     3110   1 H                                       1.0912884
  2968   6 C     3111   1 H                                       1.0926953
  2968   6 C     3112   1 H                                       1.0927562
  2967   6 C     3113   1 H                                       1.0934325
  2967   6 C     3114   1 H                                       1.0900892
  2966   6 C     3115   1 H                                       1.0925962
  2966   6 C     3116   1 H                                       1.0936982
  2965   6 C     3117   1 H                                       1.0941555
  2965   6 C     3118   1 H                                       1.0935260
  2964   6 C     3119   1 H                                       1.0899125
  2964   6 C     3120   1 H                                       1.0934285
  2963   6 C     3121   1 H                                       1.0936000
  2963   6 C     3122   1 H                                       1.0920333
  2962   6 C     3123   1 H                                       1.0925055
  2962   6 C     3124   1 H                                       1.0933129
  2961   6 C     3125   1 H                                       1.0935705
  2961   6 C     3126   1 H                                       1.0910537
  2960   6 C     3127   1 H                                       1.0929024
  2960   6 C     3128   1 H                                       1.0930716
  2959   6 C     3129   1 H                                       1.0920087
  2959   6 C     3130   1 H                                       1.0921014
  2958   6 C     3131   1 H                                       1.0914220
  2958   6 C     3132   1 H                                       1.0933010
  2957   6 C     3133   1 H                                       1.0937646
  2957   6 C     3134   1 H                                       1.0913788
  2956   6 C     3135   1 H                                       1.0925856
  2956   6 C     3136   1 H                                       1.0914703
  2955   6 C     3137   1 H                                       1.0923659
  2955   6 C     3138   1 H                                       1.0936390
  2954   6 C     3139   1 H                                       1.0924137
  2954   6 C     3140   1 H                                       1.0920060
  2953   6 C     3141   1 H                                       1.0919674
  2953   6 C     3142   1 H                                       1.0929844
  2952   6 C     3143   1 H                                       1.0924369
  2952   6 C     3144   1 H                                       1.0931129
  2951   6 C     3145   1 H                                       1.0933195
  2951   6 C     3146   1 H                                       1.0940600
  2950   6 C     3147   1 H                                       1.0902010
  2950   6 C     3148   1 H                                       1.0914788
  2949   6 C     3149   1 H                                       1.0906554
  2949   6 C     3150   1 H                                       1.0922616
  2948   6 C     3151   1 H                                       1.0939673
  2948   6 C     3152   1 H                                       1.0937407
  2947   6 C     3153   1 H                                       1.0929057
  2947   6 C     3154   1 H                                       1.0923125
  2946   6 C     3155   1 H                                       1.0917666
  2946   6 C     3156   1 H                                       1.0921213
  2945   6 C     3157   1 H                                       1.0934778
  2945   6 C     3158   1 H                                       1.0922788
  2944   6 C     3159   1 H                                       1.0928226
  2944   6 C     3160   1 H                                       1.0938830
  2943   6 C     3161   1 H                                       1.0932831
  2943   6 C     3162   1 H                                       1.0914426
  2942   6 C     3163   1 H                                       1.0913485
  2942   6 C     3164   1 H                                       1.0935135
  2941   6 C     3165   1 H                                       1.0926408
  2941   6 C     3166   1 H                                       1.0940357
  2940   6 C     3167   1 H                                       1.0942780
  2940   6 C     3168   1 H                                       1.0921199
  2939   6 C     3169   1 H                                       1.0931766
  2939   6 C     3170   1 H                                       1.0905348
  2938   6 C     3171   1 H                                       1.0922280
  2938   6 C     3172   1 H                                       1.0939710
  2937   6 C     3173   1 H                                       1.0941818
  2937   6 C     3174   1 H                                       1.0937846
  2936   6 C     3175   1 H                                       1.0903059
  2936   6 C     3176   1 H                                       1.0924225
  2935   6 C     3177   1 H                                       1.0930835
  2935   6 C     3178   1 H                                       1.0932838
  2934   6 C     3179   1 H                                       1.0930541
  2934   6 C     3180   1 H                                       1.0934435
  2933   6 C     3181   1 H                                       1.0926745
  2933   6 C     3182   1 H                                       1.0926611
  2932   6 C     3183   1 H                                       1.0922237
  2932   6 C     3184   1 H                                       1.0914738
  2931   6 C     3185   1 H                                       1.0931780
  2931   6 C     3186   1 H                                       1.0935391
  2930   6 C     3187   1 H                                       1.0944511
  2930   6 C     3188   1 H                                       1.0922824
  2929   6 C     3189   1 H                                       1.0919943
  2929   6 C     3190   1 H                                       1.0933152
  2928   6 C     3191   1 H                                       1.0919142
  2928   6 C     3192   1 H                                       1.0933574
  2927   6 C     3193   1 H                                       1.0936880
  2927   6 C     3194   1 H                                       1.0927699
  2926   6 C     3195   1 H                                       1.0920350
  2926   6 C     3196   1 H                                       1.0935442
  2925   6 C     3197   1 H                                       1.0935348
  2925   6 C     3198   1 H                                       1.0916578
  2924   6 C     3199   1 H                                       1.0933429
  2924   6 C     3200   1 H                                       1.0918045
  2923   6 C     3201   1 H                                       1.0935114
  2923   6 C     3202   1 H                                       1.0916776
  2922   6 C     3203   1 H                                       1.0930283
  2922   6 C     3204   1 H                                       1.0931435
  2921   6 C     3205   1 H                                       1.0921173
  2921   6 C     3206   1 H                                       1.0930198
  2920   6 C     3207   1 H                                       1.0938682
  2920   6 C     3208   1 H                                       1.0902522
  2919   6 C     3209   1 H                                       1.0920739
  2919   6 C     3210   1 H                                       1.0933649
  2918   6 C     3211   1 H                                       1.0935118
  2918   6 C     3212   1 H                                       1.0916803
  2917   6 C     3213   1 H                                       1.0920659
  2917   6 C     3214   1 H                                       1.0929771
  2916   6 C     3215   1 H                                       1.0929172
  2916   6 C     3216   1 H                                       1.0932197
  2915   6 C     3217   1 H                                       1.0931530
  2915   6 C     3218   1 H                                       1.0934698
  2914   6 C     3219   1 H                                       1.0916635
  2914   6 C     3220   1 H                                       1.0932217
  2913   6 C     3221   1 H                                       1.0931909
  2913   6 C     3222   1 H                                       1.0928636
  2912   6 C     3223   1 H                                       1.0905808
  2912   6 C     3224   1 H                                       1.0933662
  2911   6 C     3225   1 H                                       1.0941308
  2911   6 C     3226   1 H                                       1.0900715
  2910   6 C     3227   1 H                                       1.0934292
  2910   6 C     3228   1 H                                       1.0929491
  2909   6 C     3229   1 H                                       1.0905928
  2909   6 C     3230   1 H                                       1.0929077
  2908   6 C     3231   1 H                                       1.0939995
  2908   6 C     3232   1 H                                       1.0914473
  2907   6 C     3233   1 H                                       1.0928051
  2907   6 C     3234   1 H                                       1.0929898
  2906   6 C     3235   1 H                                       1.0926780
  2906   6 C     3236   1 H                                       1.0921218
  2905   6 C     3237   1 H                                       1.0929587
  2905   6 C     3238   1 H                                       1.0924948
  2904   6 C     3239   1 H                                       1.0917902
  2904   6 C     3240   1 H                                       1.0939612
  2903   6 C     3241   1 H                                       1.0917684
  2903   6 C     3242   1 H                                       1.0921427
  2902   6 C     3243   1 H                                       1.0939647
  2902   6 C     3244   1 H                                       1.0920493
  2901   6 C     3245   1 H                                       1.0933838
  2901   6 C     3246   1 H                                       1.0937645
  2900   6 C     3247   1 H                                       1.0913762
  2900   6 C     3248   1 H                                       1.0937079
  2899   6 C     3249   1 H                                       1.0932233
  2899   6 C     3250   1 H                                       1.0914345
  2898   6 C     3251   1 H                                       1.0926260
  2898   6 C     3252   1 H                                       1.0932285
  2897   6 C     3253   1 H                                       1.0880511
  2897   6 C     3254   1 H                                       1.0875185
  2897   6 C     3255   1 H                                       1.0876863
  3016   6 C     3256   1 H                                       1.0881681
  3016   6 C     3257   1 H                                       1.0884488
  3016   6 C     3258   1 H                                       1.0879294

 * 2 distinct bonds (by element types)

   Z      Z             #   av. dist./Å        max./Å        min./Å
   1 H    6 C        2178     1.0925469     1.0947714     1.0858136
   6 C    6 C        1071     1.5273591     1.5359396     1.5216413


optimized geometry written to: xtbopt.xyz


           -------------------------------------------------
          | TOTAL ENERGY            -3427.489781463327 Eh   |
          | GRADIENT NORM               0.000703028119 Eh/α |
          | HOMO-LUMO GAP              11.416771710153 eV   |
           -------------------------------------------------

------------------------------------------------------------------------
 * finished run on 2024/06/21 at 04:08:36.007     
------------------------------------------------------------------------
 total:
 * wall-time:     3 d, 12 h, 49 min, 49.792 sec
 *  cpu-time:    17 d, 23 h, 51 min, 27.780 sec
 * ratio c/w:     5.091 speedup
 SCF:
 * wall-time:     0 d,  0 h,  7 min, 27.278 sec
 *  cpu-time:     0 d,  0 h, 37 min, 50.424 sec
 * ratio c/w:     5.076 speedup
 ANC optimizer:
 * wall-time:     3 d, 12 h, 41 min, 40.354 sec
 *  cpu-time:    17 d, 23 h, 12 min, 39.220 sec
 * ratio c/w:     5.091 speedup

