3258
 energy: -3427.468963246272 gnorm: 0.000713125490 xtb: 6.6.1 (8d0f1dd)
C          118.35349359822905      118.29032509477591      125.72515308993937
C          117.19958978437009      117.90963405510172      124.80546610345557
C          117.62800458633366      116.89862248228533      123.74555631039932
C          116.48915817462355      116.54180175190865      122.79455349154854
C          116.93733300260651      115.55874631816859      121.71596826541952
C          115.78635292407751      115.00233836771626      120.87942029417793
C          115.08466241349591      116.01968900320814      119.97894589988714
C          115.90711933607048      116.46306971664288      118.76970261339420
C          115.10674776944670      117.42945035005984      117.89820237204502
C          115.76017718330121      117.76293541545833      116.55735217823994
C          117.09247815073569      118.50122491874309      116.68360962118533
C          117.49564686625892      119.15982759700968      115.36531910286264
C          118.90716585752457      119.74240169868473      115.39593516571979
C          119.23351253611960      120.48165972060200      114.09941611068399
C          120.64419080138268      121.07224116215180      114.04575193696307
C          121.77459644958637      120.05873552106489      114.22605215525154
C          121.81451368256842      118.98970892239373      113.13748189670663
C          122.76702343916503      117.85445887909079      113.49564315287509
C          122.76388879122734      116.74384300315383      112.44994594474950
C          123.52199798121217      115.50819063247343      112.92498731900551
C          123.26234833650192      114.28764647836195      112.04736512003861
C          124.02168699990054      113.06586887954029      112.55611872745752
C          123.61188390517306      111.76119360789852      111.87652928107681
C          123.93308651401416      111.71910113674925      110.38647340054263
C          123.58975363535015      110.36737120036960      109.76628679961087
C          123.87256465699750      110.32819692201153      108.26686691035820
C          123.50142525071139      108.98271973463545      107.64846702044834
C          123.85564715490899      108.91689531040529      106.16456734537594
C          123.44655792517098      107.60321142678514      105.49688723599152
C          124.11751692291988      106.38905337746283      106.13691891674837
C          124.08303014214887      105.13218626663586      105.26971357579282
C          122.67554874188873      104.59579282773588      105.00831175571166
C          122.71858399981282      103.13430756774376      104.56835035381567
C          121.34134853493241      102.53918241278065      104.28603366281015
C          121.42926309074740      101.02948113765311      104.07578022469106
C          120.08577024305428      100.38786209492248      103.74182107513640
C          120.19423762331300       98.86520763090462      103.69571911637900
C          118.88091219344510       98.17305910815986      103.32565570307153
C          118.54945670663841       98.19693230589270      101.83221451238376
C          119.47344864304762       97.30327151910785      101.00630087675836
C          119.09301083364547       97.24453389974346       99.52506724847139
C          117.92491016607946       96.30244619466478       99.24743645445579
C          117.45552441303583       96.36538010189975       97.79676906783929
C          116.29641443944995       95.40563444540655       97.53646863278328
C          115.76956795737708       95.46520212243756       96.10169107386938
C          114.95761431010435       96.72533530962906       95.80651253182711
C          114.44370482446296       96.73790696952670       94.36877620929128
C          113.48037742849971       97.88652427875830       94.06539604031633
C          114.11382198386588       99.27319795442369       94.17474683722884
C          113.21032614057876      100.34925562362824       93.57553405928260
C          113.80065522637834      101.75413722145531       93.68759816362819
C          112.95681934825575      102.77326187773183       92.92424908462552
C          113.53472860858392      104.18969700991018       92.93060465073408
C          113.42494547061762      104.88545789762745       94.28502002090237
C          113.85282155945357      106.35018039030120       94.21263759897766
C          113.71194218715046      107.05880886071469       95.55759007058420
C          114.13979716422698      108.52230562812827       95.49681548741263
C          114.07360357411238      109.19547611500087       96.86588392100055
C          114.42295847804826      110.67945219123698       96.78988453639961
C          114.39794414701529      111.35724521533028       98.15749675359764
C          114.74558672722301      112.84144297549921       98.06605649259332
C          114.76213577809924      113.51807193387255       99.43411276751148
C          115.20453356605347      114.97823916535779       99.35725936394815
C          115.25673664435699      115.61704931432804      100.74401777274365
C          115.83439745842459      117.03734202536273      100.77559387412279
C          114.79306968737923      118.15631393142813      100.72760448578623
C          114.06223711183738      118.28247028723565       99.39354042837047
C          113.15004301204119      119.50747861022438       99.37512406339022
C          112.46621304242238      119.75054266881106       98.02908759504967
C          111.50664220335855      118.63372939887981       97.62458363081750
C          110.64561137938608      119.01333858656399       96.42132050414070
C          109.68643143953540      117.88571852176453       96.05051961743507
C          108.71684203556502      118.25641647928970       94.93173020244447
C          107.75884239076484      117.10693878367410       94.62279894194856
C          106.70057199755199      117.49243015926328       93.59241433116301
C          105.76197462643336      116.33956835016380       93.22974637763062
C          104.79271296092459      115.96133509923530       94.34864381247451
C          103.83230258118238      114.85606700050469       93.91390017445838
C          102.82085754025208      114.50355261275408       95.00183719505067
C          101.86706945932170      113.39383041971678       94.56554749459590
C          100.83399023870638      113.07132884171844       95.64280069608758
C           99.90825634307294      111.92379506536156       95.24406131537073
C           98.78597416141614      111.72235462786001       96.26033589601401
C           97.90586743717765      110.52066659336585       95.91898651547443
C           96.57775891992061      110.50673237797686       96.67924847732083
C           96.70582498275655      110.47138864801013       98.20277717928469
C           97.29973319401313      109.17138841366909       98.73784465689307
C           97.40937807983786      109.19022451967307      100.26005190530391
C           97.95043125708109      107.87732139006152      100.81977456082384
C           98.25221545701004      107.97497952062415      102.31271717902474
C           98.65668469092770      106.63206044891432      102.91341510636761
C           99.12164862377155      106.76305219820676      104.36061092734391
C           99.49468365238405      105.41425536789728      104.96556911757830
C          100.06242619338578      105.53839979148712      106.37651799099923
C          100.42174424123748      104.17443311471483      106.95716639143792
C          101.00595945063702      104.25795739475717      108.36546180299713
C          101.29141391038966      102.87968382843567      108.96463567515998
C          100.02061852651758      102.14474147511399      109.38497497498838
C          100.29979786497285      100.71027425364692      109.82530002831155
C           99.02768493274046       99.92666442047715      110.14917781709036
C           98.17999702271401       99.61727939287348      108.91611809318219
C           96.97384134826095       98.74823017798813      109.26384114525860
C           96.00381239699408       98.55240290740768      108.09833189626653
C           96.59285955095110       97.77452673743520      106.92236463474879
C           95.52981324729632       97.49468806556314      105.86196934216663
C           96.04969153234626       96.72534964410117      104.64598396241132
C           97.00782508749039       97.54130750112000      103.77978657996624
C           97.25278352542290       96.89846578953525      102.41647067993561
C           98.13955828730778       97.76910404501415      101.52869589716882
C           98.30470915692436       97.18119393061460      100.12973038399721
C           99.25394752127728       97.98427933037775       99.23959566956277
C           98.69914661968720       99.33793978269642       98.79953668985635
C           99.61671033812485      100.00638450763822       97.77743584022463
C           99.09560324419880      101.36808891427539       97.32387096584404
C           99.87456258041303      101.94567319413954       96.14082782924235
C          101.35886344635752      102.15532441515907       96.43301979268510
C          102.05179821849242      102.97159525941574       95.34346565484563
C          103.55435930045279      103.09340527516224       95.58625323409169
C          104.22628013774649      104.08295199790487       94.63844019133872
C          105.70120476177919      104.26802982640048       94.97361120562523
H          104.12509303218393      103.72812870200652       93.60950424029203
H          103.71629784846431      105.04626202720173       94.70569900761133
H          103.72344695467720      103.42239552474555       96.61455524810602
H          104.02323687484066      102.11301774354123       95.47334565094292
H          101.87670715427508      102.50781115968553       94.36872343935677
H          101.61305135649181      103.97210565472784       95.31530539408118
H          101.46539779450603      102.67496464642835       97.38671205255596
H          101.85132756353330      101.18513986048688       96.52255001234637
H           99.76588619290195      101.28193039924888       95.27876038850050
H           99.42840807234764      102.90632308304200       95.86801458130137
H           98.04599273719256      101.26769039233520       97.03192738479564
H           99.13569974594091      102.06974848970114       98.16113929518519
H          100.60816066641324      100.12336811204975       98.21717891667673
H           99.71485219770970       99.35345253667332       96.90616922207610
H           97.70757503002426       99.19753805628878       98.36069594359707
H           98.58674619505302       99.99458511111844       99.66487103062128
H          100.19795038920378       98.13848342138589       99.76656522380308
H           99.47183806863573       97.39442281542696       98.34544280694811
H           98.68953466120615       96.16189107932414      100.22182403539928
H           97.32604130868610       97.11662501422266       99.64715380644398
H           97.69450404261113       98.76276122151043      101.45678518122028
H           99.12300815491571       97.87627212831862      101.99332545178946
H           97.71752925510464       95.91853831696923      102.55090300939035
H           96.29362447753648       96.74153873115660      101.91555865745615
H           96.58723571524358       98.53811399373481      103.62604227600825
H           97.96291165264037       97.65815942480847      104.29348735227333
H           96.54407482216456       95.80896882468288      104.97677022697448
H           95.19119378031992       96.43261480146209      104.03506015827611
H           94.72211460176642       96.91783745927698      106.32129990217699
H           95.10146621182069       98.44290810689063      105.52599973890044
H           97.40639908719164       98.34780409817691      106.47780592028805
H           97.00366570624885       96.82705209744917      107.28014846720433
H           95.12340916312657       98.01740125173473      108.46585077722986
H           95.66579376559775       99.52964270373494      107.74309888676954
H           97.31522063984211       97.77179727837546      109.61717844798846
H           96.43032687072981       99.21973100324811      110.08765598453022
H           97.82306991497009      100.54595786678846      108.46644855668627
H           98.80216452880398       99.10700959014468      108.17850044139144
H           99.30593478568363       98.98191772299224      110.62332664175513
H           98.42909299904977      100.49438624816422      110.86714696973485
H          100.84251134252210      100.18786643358943      109.03369469843624
H          100.94425965216159      100.72724207050722      110.70840406318747
H           99.54183153679057      102.68746479123921      110.20422359451685
H           99.32151039956057      102.12910453488868      108.54898674132153
H          101.83021563711051      102.28100483583243      108.22599122316225
H          101.94043038602710      102.98893728586305      109.83669016051975
H          101.93772174529673      104.82825778655629      108.32432842445461
H          100.31770517911717      104.80091265909898      109.01888481543403
H           99.52279182778443      103.55574650753175      106.96760687503568
H          101.14569631313805      103.68537602995509      106.30200965560860
H          100.95406252678769      106.16961261421760      106.35126881542061
H           99.32954912956947      106.02912907918832      107.02145356265636
H           98.60836065154753      104.77662869928579      104.98503994334520
H          100.23513331995672      104.92708706162860      104.32693101347760
H           99.98561297162968      107.42890957351746      104.39744920401652
H           98.32993489395182      107.22118076414225      104.95872699472591
H           97.81227650633923      105.94045702308739      102.86113992196648
H           99.46631963650782      106.19982884309789      102.31951142431062
H           99.05653706794762      108.69611107412734      102.46746755949675
H           97.37102412126256      108.35380482804131      102.83383843217301
H           97.22240026696774      107.08258915299186      100.64192970024286
H           98.86514669535548      107.60667813180997      100.28528630216022
H           98.06642299080521      110.01027309243354      100.55866952059085
H           96.42564885677467      109.38764914988202      100.69390053715443
H           96.67251025217683      108.33239077659951       98.42737391878154
H           98.29319208000192      109.01739839487499       98.31276368127747
H           97.31436973364323      111.31306610901144       98.53800078520342
H           95.70870292336052      110.60209002997520       98.63314255039697
H           96.01206369721359      111.40045281223766       96.40091251037386
H           95.99619776912927      109.63962936469882       96.35367753656189
H           97.67868138164417      110.54279502101198       94.84917002951428
H           98.45714909680221      109.59943393759983       96.11405430769234
H           99.22681820949141      111.58702977916857       97.24935129185819
H           98.16849051780291      112.62416497159595       96.29023130134948
H           99.47312141422681      112.13270080410965       94.26301646612275
H          100.48843678592982      111.00206293111601       95.15694106296844
H          101.34843008787017      112.81020286815178       96.57008197964886
H          100.23497576449374      113.96457860902471       95.83949494422201
H          101.35186619878351      113.69841106842900       93.65070117183906
H          102.44325752511723      112.49513793651916       94.33119646602226
H          103.35196328700238      114.18812116567071       95.90256342548251
H          102.24302541788666      115.39472682759312       95.25912209276305
H          103.29667005751500      115.17653206786382       93.01630388039099
H          104.40610767557040      113.96344528682123       93.65182299493152
H          105.34871130927718      115.62305214921771       95.22421477329165
H          104.21732161575477      116.84395645323420       94.63937537267809
H          105.17969678784918      116.62732621613290       92.35016264490724
H          106.35696336751667      115.46472425899532       92.95624161728841
H          106.11084621590689      118.32902521576726       93.97585338281719
H          107.20299956788372      117.83524951696228       92.68387569833996
H          108.32960948800640      116.25200287852437       94.25209836961587
H          107.26836618728066      116.80281343769140       95.54745037880859
H          108.13998918719392      119.13565246267751       95.23079040119846
H          109.27563477423020      118.52269000162063       94.03097642648896
H          110.26206945868779      117.00614116298415       95.75219683940917
H          109.10779874667151      117.61887228711039       96.93676147293712
H          110.07117425944537      119.91319124543740       96.65731845845065
H          111.28741400613305      119.24902609495554       95.56863680273555
H          112.07164954523336      117.73115267462714       97.38323926175464
H          110.85130465987100      118.40283279881335       98.46699241398190
H          111.90549628426295      120.68738970698116       98.09270683985453
H          113.22539255804352      119.87705877405344       97.25287290240944
H          112.38665463551992      119.39634029594899      100.14844869625584
H          113.74235180300811      120.39159670473126       99.62760260389302
H          114.79392153379357      118.36335068496771       98.58551058951532
H          113.46750492781344      117.38566294996059       99.22166225022806
H          114.06220458684740      117.99502047992952      101.52441497477730
H          115.29952677864601      119.10360578763728      100.93664987417785
H          116.39667026280480      117.16107632570296      101.70533104933675
H          116.54128129116526      117.16491890265500       99.95204174137609
H          114.25660832433203      115.62308500919396      101.18087953191028
H          115.87765663983645      114.97741983819849      101.37422461397280
H          116.19858074253139      115.02564403707322       98.90294006999113
H          114.52243282728051      115.52776139752746       98.70718095281484
H          113.76537592317959      113.46454257146763       99.87797669354255
H          115.44249368189962      112.97330734922730      100.09258896671248
H          115.72923564173560      112.94991122362883       97.59995439210169
H          114.02142120783303      113.34495911225596       97.42010953342795
H          113.40694739894866      111.24127855056989       98.60179748685587
H          115.11114083551119      110.86034236217098       98.81931142338588
H          115.41803788531286      110.79315655294084       96.35004660467393
H          113.71497894343207      111.18219434351502       96.12519914347928
H          113.06875455593327      109.07953934295743       97.27584607665935
H          114.76483944102135      108.69518171038229       97.54868204884698
H          115.16101008669287      108.58584988357295       95.11059325760486
H          113.49285071387101      109.05867132510208       94.79755558111265
H          112.67089892683245      107.00493938802869       95.88544012705331
H          114.32136397320059      106.54135897981948       96.30301341425596
H          114.89262716529382      106.40720900184921       93.87947081449141
H          113.24221867009183      106.86821376385009       93.46816638484803
H          112.38977220376709      104.83102899347878       94.62851551100009
H          114.04657227965404      104.36606552657865       95.01590153503200
H          114.58236979028545      104.15546066722256       92.62142866874919
H          112.99459531002557      104.78607616734476       92.18995921770654
H          112.86878585101098      102.43945243822444       91.88658962575909
H          111.94953501431696      102.79523771270873       93.34687074591120
H          113.86164528961423      102.03621112304346       94.73932077191860
H          114.81546387152386      101.75325377751219       93.28083065947868
H          113.03867236915286      100.11795260365962       92.52051806442137
H          112.24100865675709      100.32628766459689       94.07843050433350
H          114.30775676735668       99.50866736211395       95.22241328448413
H          115.07237937699881       99.27570459634391       93.64918104597248
H          113.10462566544166       97.75497897439398       93.04687676862281
H          112.62329989451271       97.82825144617848       94.74000853739135
H          115.29434104454535       96.79144367784539       93.68423074590491
H          113.92610350903173       95.79451615315746       94.17296635094908
H          114.10776221742906       96.76949140126401       96.49217512381553
H          115.57475022545630       97.60710859590914       95.97837509263761
H          116.60976276742521       95.40444418368500       95.40512673461939
H          115.13404652057714       94.59327381441700       95.92330876119503
H          116.63404029291183       94.38750618108485       97.74766577779113
H          115.48003665555586       95.62966812014506       98.22637989538362
H          117.14554534466586       97.38674928538087       97.56782176843552
H          118.28767054420197       96.11594422063227       97.13290603891949
H          118.22210032208906       95.27852658021737       99.48793477857745
H          117.08708702774588       96.56258910439021       99.89572022644791
H          118.83997033055944       98.25084242093364       99.18044001560733
H          119.95572210746631       96.90546279967656       98.94551186467719
H          120.49263186988446       97.68216787619127      101.08460123635486
H          119.46485790030825       96.29124695662807      101.42022012141240
H          117.51763533079603       97.86361702031257      101.70796011545428
H          118.60915905642845       99.21983567647682      101.45508107698701
H          118.92396418653489       97.13063404521348      103.65190343905601
H          118.06776285368434       98.65115450493548      103.87829168801977
H          120.97597895976293       98.57958636810261      102.98935918253514
H          120.50943320628252       98.51475026397415      104.68170665821783
H          119.35141393891828      100.67192643252602      104.49979211183771
H          119.72951364032171      100.76888415953795      102.78231998488320
H          122.14158115830416      100.81652659401296      103.27378825192943
H          121.81986179163515      100.57010801877361      104.98810540777659
H          120.67384293248006      102.74750171243856      105.12693721212736
H          120.91129338403412      103.01095392134751      103.40074007497303
H          123.34027796916922      103.04447866622334      103.67418174469927
H          123.19909599453123      102.54723653822469      105.35575107445672
H          122.08488000071355      104.67699176000660      105.92422324349286
H          122.17985125579681      105.19726987375739      104.24325301816903
H          124.58057468338771      105.33416458491050      104.31747978961843
H          124.65982011706713      104.35442317464944      105.77828685921848
H          125.16246554892766      106.63750115649479      106.33635233931584
H          123.63896638886008      106.16691684945327      107.09345130026520
H          122.36096689645915      107.49465946910038      105.54562447010221
H          123.72621506325046      107.65154093148351      104.44086282832065
H          123.36908197727165      109.74607869172218      105.64334749546883
H          124.93515433485655      109.05297878228073      106.05134129436708
H          124.03065577027138      108.19295119837734      108.18506584264465
H          122.42974021067110      108.80869025005086      107.77570435614187
H          123.31229908907582      111.12399813636520      107.76910504056715
H          124.93439590063852      110.52541679426503      108.09613417187566
H          124.17018982444239      109.58385534770713      110.26115497878406
H          122.53158256905685      110.15043751977684      109.93692541821073
H          123.36640088674200      112.49673998766032      109.87464879140462
H          124.99489970422393      111.93071193008976      110.23732676837312
H          124.13258892926829      110.93763049652129      112.37076681827382
H          122.53765800134096      111.60944152472803      112.01457624242157
H          125.09280763723763      113.22990757388085      112.41705835192029
H          123.84077953016936      112.96502098368782      113.63020452902109
H          122.19053106308667      114.07344440600377      112.04580735940684
H          123.56071823986161      114.50764920885605      111.02139988216787
H          124.59351856292102      115.72196927694314      112.94685008040059
H          123.21333007489000      115.27461884413221      113.94798826032354
H          121.73112036291541      116.45876068955585      112.23976714845449
H          123.19831940962020      117.11323097310553      111.51797213377043
H          123.77925839788875      118.24277509549557      113.62120140339906
H          122.45848937681916      117.43511059844218      114.45730383877986
H          120.81724607870130      118.56893052562073      113.00379053341702
H          122.11164712557346      119.44070657006515      112.18726910571436
H          122.72733806464332      120.59523658342705      114.23360807274598
H          121.67402238067906      119.57484365447807      115.19972144675322
H          120.76910746309970      121.57878214451128      113.08423385948832
H          120.73409951077167      121.82907981149570      114.82727241991579
H          119.08105468934316      119.80783238270426      113.25399066279579
H          118.52494020146219      121.30575441080521      113.97801357710210
H          119.00602794109979      120.43072290748138      116.24006792729263
H          119.61634064128209      118.92800449775351      115.55079566816379
H          117.43681555292156      118.42071290201676      114.56120011427170
H          116.78080877641378      119.95448871194617      115.13387866255916
H          117.00450719549711      119.26966128277653      117.45435591190372
H          117.87501361556444      117.80656135090111      116.99699771834956
H          115.90622718297708      116.84275007204150      115.98512989678369
H          115.06745189929028      118.39167476500890      115.98998748264471
H          114.12768885331826      116.98448837435646      117.70032483825761
H          114.93555152587845      118.35581042516442      118.45351857192159
H          116.82794901650799      116.94450791408246      119.10228828990915
H          116.18498036747054      115.58604916299799      118.17903992085084
H          114.15875859961605      115.56692467284338      119.61375786212758
H          114.80656031206506      116.89867535999350      120.56461118480189
H          116.17048294929441      114.19075852213579      120.25769756270117
H          115.04743312603911      114.56828525597199      121.55829375692109
H          117.66866309572434      116.03972316557432      121.06518195387008
H          117.44164510734802      114.71892843351972      122.20206041882683
H          115.66794132486430      116.10124067071398      123.36559463227024
H          116.11469557684934      117.45835013643679      122.33397936581069
H          118.46107945521982      117.31253219152934      123.17291021314739
H          117.98658387063365      115.99135065785360      124.23908382483053
H          116.38489356019255      117.48850941517746      125.39991571053515
H          116.81736857055644      118.80816482717371      124.31396236485013
H          118.74666561508634      117.40961849921328      126.22948736630836
H          119.16297965606346      118.74280505354861      125.15562489096493
H          118.02720575214619      119.00113774462825      126.48137856946072
H          105.81431785233910      104.64101672969095       95.98960644877694
H          106.23366203584833      103.32207670575627       94.89580059749892
H          106.16556040702896      104.97931149154009       94.29459185271890
C          107.04072375973240      128.38724767595744      115.99069296997071
C          107.78371474474167      127.31092271777872      115.20813600156210
C          106.85515797829005      126.28136478650241      114.56336425806319
C          106.04161649720602      125.43539855835306      115.54403016228771
C          106.90784190111717      124.50757404160034      116.38977333531341
C          106.08818829142704      123.59703903618575      117.30113715935354
C          106.99363606166774      122.65128201604679      118.08461839096371
C          106.23400755596155      121.69103914835068      118.99459465915955
C          107.18778025727575      120.72678972561782      119.69540374167782
C          106.46814483787058      119.69887036942036      120.56363188965666
C          107.44538798464626      118.69883786290875      121.17609409013595
C          106.74866698263908      117.60432811658175      121.98109820787015
C          107.74486273338954      116.56411529093150      122.48715327060341
C          107.07722377798071      115.36983283189774      123.16550060665364
C          108.09508992706255      114.27658709030331      123.48349135086548
C          107.45950877256425      112.99844507059063      124.02838616786013
C          108.47898766698455      111.86299488119695      124.09318832262380
C          107.87899590713637      110.52885456388915      124.53537688486414
C          108.88865152235665      109.39470976122983      124.37022676200776
C          108.35070900879390      108.03147297429206      124.79928290050955
C          109.38592087939692      106.93118917799859      124.57012817464927