      -----------------------------------------------------------      
     |                   =====================                   |     
     |                           x T B                           |     
     |                   =====================                   |     
     |                         S. Grimme                         |     
     |          Mulliken Center for Theoretical Chemistry        |     
     |                    University of Bonn                     |     
      -----------------------------------------------------------      

   * xtb version 6.6.1 (8d0f1dd) compiled by 'stahn@M-Bot' on 2023-08-01

   xtb is free software: you can redistribute it and/or modify it under
   the terms of the GNU Lesser General Public License as published by
   the Free Software Foundation, either version 3 of the License, or
   (at your option) any later version.
   
   xtb is distributed in the hope that it will be useful,
   but WITHOUT ANY WARRANTY; without even the implied warranty of
   MERCHANTABILITY or FITNESS FOR A PARTICULAR PURPOSE.  See the
   GNU Lesser General Public License for more details.
   
   Cite this work as:
   * C. Bannwarth, E. Caldeweyher, S. Ehlert, A. Hansen, P. Pracht,
     J. Seibert, S. Spicher, S. Grimme, WIREs Comput. Mol. Sci., 2020, 11,
     e01493. DOI: 10.1002/wcms.1493
   
   for GFN2-xTB:
   * C. Bannwarth, S. Ehlert and S. Grimme., J. Chem. Theory Comput., 2019,
     15, 1652-1671. DOI: 10.1021/acs.jctc.8b01176
   for GFN1-xTB:
   * S. Grimme, C. Bannwarth, P. Shushkov, J. Chem. Theory Comput., 2017,
     13, 1989-2009. DOI: 10.1021/acs.jctc.7b00118
   for GFN0-xTB:
   * P. Pracht, E. Caldeweyher, S. Ehlert, S. Grimme, ChemRxiv, 2019, preprint.
     DOI: 10.26434/chemrxiv.8326202.v1
   for GFN-FF:
   * S. Spicher and S. Grimme, Angew. Chem. Int. Ed., 2020, 59, 15665-15673.
     DOI: 10.1002/anie.202004239
   
   for ALPB and GBSA implicit solvation:
   * S. Ehlert, M. Stahn, S. Spicher, S. Grimme, J. Chem. Theory Comput.,
     2021, 17, 4250-4261. DOI: 10.1021/acs.jctc.1c00471
   
   for DFT-D4:
   * E. Caldeweyher, C. Bannwarth and S. Grimme, J. Chem. Phys., 2017,
     147, 034112. DOI: 10.1063/1.4993215
   * E. Caldeweyher, S. Ehlert, A. Hansen, H. Neugebauer, S. Spicher,
     C. Bannwarth and S. Grimme, J. Chem. Phys., 2019, 150, 154122.
     DOI: 10.1063/1.5090222
   * E. Caldeweyher, J.-M. Mewes, S. Ehlert and S. Grimme, Phys. Chem. Chem. Phys.
     2020, 22, 8499-8512. DOI: 10.1039/D0CP00502A
   
   for sTDA-xTB:
   * S. Grimme and C. Bannwarth, J. Chem. Phys., 2016, 145, 054103.
     DOI: 10.1063/1.4959605
   
   in the mass-spec context:
   * V. Asgeirsson, C. Bauer and S. Grimme, Chem. Sci., 2017, 8, 4879.
     DOI: 10.1039/c7sc00601b
   * J. Koopman and S. Grimme, ACS Omega 2019, 4, 12, 15120-15133.
     DOI: 10.1021/acsomega.9b02011
   
   for metadynamics refer to:
   * S. Grimme, J. Chem. Theory Comput., 2019, 155, 2847-2862
     DOI: 10.1021/acs.jctc.9b00143
   
   for SPH calculations refer to:
   * S. Spicher and S. Grimme, J. Chem. Theory Comput., 2021, 17, 1701-1714
     DOI: 10.1021/acs.jctc.0c01306
   
   with help from (in alphabetical order)
   P. Atkinson, C. Bannwarth, F. Bohle, G. Brandenburg, E. Caldeweyher
   M. Checinski, S. Dohm, S. Ehlert, S. Ehrlich, I. Gerasimov, C. Hölzer
   A. Katbashev, J. Koopman, C. Lavigne, S. Lehtola, F. März, M. Müller,
   F. Musil, H. Neugebauer, J. Pisarek, C. Plett, P. Pracht, F. Pultar,
   J. Seibert, P. Shushkov, S. Spicher, M. Stahn, M. Steiner, T. Strunk,
   J. Stückrath, T. Rose, and J. Unsleber
   
 * started run on 2024/10/04 at 03:16:12.182     

           -------------------------------------------------
          |                Calculation Setup                |
           -------------------------------------------------

          program call               : /home/abt-grimme/AK-bin/xtb input.xyz --input input.inp --opt
          hostname                   : boar077.thch.uni-bonn.de
          coordinate file            : input.xyz
          omp threads                :                     8

   ID    Z sym.   atoms
    1    6 C      1-120, 363-482, 725-844, 1087-1206, 1449-1568, 1811-1930,
                  2173-2292, 2535-2654, 2897-3016
    2    1 H      121-362, 483-724, 845-1086, 1207-1448, 1569-1810,
                  1931-2172, 2293-2534, 2655-2896, 3017-3258

molecular fragmentation (1/2 indicates fragments):
111111111111111111111111111111111111111111111111111111111111111111111111
111111111111111111111111111111111111111111111111111111111111111111111111
111111111111111111111111111111111111111111111111111111111111111111111111
111111111111111111111111111111111111111111111111111111111111111111111111
111111111111111111111111111111111111111111111111111111111111111111111111
112222222222222222222222222222222222222222222222222222222222222222222222
222222222222222222222222222222222222222222222222222222222222222222222222
222222222222222222222222222222222222222222222222222222222222222222222222
222222222222222222222222222222222222222222222222222222222222222222222222
222222222222222222222222222222222222222222222222222222222222222222222222
222222222222222222222222222222222222222222222222222222222222222222222222
222222222222222222222222222222222222222222222222222222222222222222222222
222222222222222222222222222222222222222222222222222222222222222222222222
222222222222222222222222222222222222222222222222222222222222222222222222
222222222222222222222222222222222222222222222222222222222222222222222222
222222222222222222222222222222222222222222222222222222222222222222222222
222222222222222222222222222222222222222222222222222222222222222222222222
222222222222222222222222222222222222222222222222222222222222222222222222
222222222222222222222222222222222222222222222222222222222222222222222222
222222222222222222222222222222222222222222222222222222222222222222222222
222222222222222222222222222222222222222222222222222222222222222222222222
222222222222222222222222222222222222222222222222222222222222222222222222
222222222222222222222222222222222222222222222222222222222222222222222222
222222222222222222222222222222222222222222222222222222222222222222222222
222222222222222222222222222222222222222222222222222222222222222222222222
222222222222222222222222222222222222222222222222222222222222222222222222
222222222222222222222222222222222222222222222222222222222222222222222222
222222222222222222222222222222222222222222222222222222222222222222222222
222222222222222222222222222222222222222222222222222222222222222222222222
222222222222222222222222222222222222222222222222222222222222222222222222
222222222222222222222222222222222222222222222222222222222222222222222222
222222222222222222222222222222222222222222222222222222222222222222222222
222222222222222222222222222222222222222222222222222222222222222222222222
222222222222222222222222222222222222222222222222222222222222222222222222
222222222222222222222222222222222222222222222222222222222222222222222222
222222222222222222222222222222222222222222222222222222222222222222222222
222222222222222222222222222222222222222222222222222222222222222222222222
222222222222222222222222222222222222222222222222222222222222222222222222
222222222222222222222222222222222222222222222222222222222222222222222222
222222222222222222222222222222222222222222222222222222222222222222222222
222222222222222222222222222222222222222222222222222222222222222222222222
222222222222222222222222222222222222222222222222222222222222222222222222
222222222222222222222222222222222222222222222222222222222222222222222222
222222222222222222222222222222222222222222222222222222222222222222222222
222222222222222222222222222222222222222222222222222222222222222222222222
222222222222222222
# atoms in fragment 1/2:   362  2896
 fragment masses (1/2) :     1685.21    13481.68
CMA distance (Bohr)    :  12.944
constraining FC (au)   :  0.0500

           -------------------------------------------------
          |                 G F N 2 - x T B                 |
           -------------------------------------------------

        Reference                      10.1021/acs.jctc.8b01176
      * Hamiltonian:
        H0-scaling (s, p, d)           1.850000    2.230000    2.230000
        zeta-weighting                 0.500000
      * Dispersion:
        s8                             2.700000
        a1                             0.520000
        a2                             5.000000
        s9                             5.000000
      * Repulsion:
        kExp                           1.500000    1.000000
        rExp                           1.000000
      * Coulomb:
        alpha                          2.000000
        third order                    shell-resolved
        anisotropic                    true
        a3                             3.000000
        a5                             4.000000
        cn-shift                       1.200000
        cn-exp                         4.000000
        max-rad                        5.000000


          ...................................................
          :                      SETUP                      :
          :.................................................:
          :  # basis functions                6498          :
          :  # atomic orbitals                6498          :
          :  # shells                         4338          :
          :  # electrons                      6498          :
          :  max. iterations                   250          :
          :  Hamiltonian                  GFN2-xTB          :
          :  restarted?                      false          :
          :  GBSA solvation                  false          :
          :  PC potential                    false          :
          :  electronic temp.          300.0000000     K    :
          :  accuracy                    1.0000000          :
          :  -> integral cutoff          0.2500000E+02      :
          :  -> integral neglect         0.1000000E-07      :
          :  -> SCF convergence          0.1000000E-05 Eh   :
          :  -> wf. convergence          0.1000000E-03 e    :
          :  Broyden damping             0.4000000          :
          ...................................................

 iter      E             dE          RMSdq      gap      omega  full diag
   1  -3473.3002507 -0.347330E+04  0.244E+00   11.44       0.0  T
   2  -3478.4596825 -0.515943E+01  0.135E+00   11.50       1.0  T
   3  -3478.6614072 -0.201725E+00  0.599E-01   11.46       1.0  T
   4  -3478.6819658 -0.205586E-01  0.752E-02   11.47       1.0  T
   5  -3478.6828339 -0.868103E-03  0.387E-02   11.48       1.0  T
   6  -3478.6830370 -0.203062E-03  0.607E-03   11.49       1.0  T
   7  -3478.6830525 -0.154930E-04  0.123E-03   11.49       1.4  T
   8  -3478.6830535 -0.100925E-05  0.377E-04   11.49       4.6  T
   9  -3478.6830535 -0.592518E-07  0.140E-04   11.49      12.5  T
  10  -3478.6830535 -0.367891E-08  0.403E-05   11.49      43.5  T

   *** convergence criteria satisfied after 10 iterations ***

         #    Occupation            Energy/Eh            Energy/eV
      -------------------------------------------------------------
         1        2.0000           -0.6253866             -17.0176
       ...           ...                  ...                  ...
      3243        2.0000           -0.4025591             -10.9542
      3244        2.0000           -0.4024934             -10.9524
      3245        2.0000           -0.4023711             -10.9491
      3246        2.0000           -0.4021967             -10.9443
      3247        2.0000           -0.4021124             -10.9420
      3248        2.0000           -0.4016304             -10.9289
      3249        2.0000           -0.3999699             -10.8837 (HOMO)
      3250                          0.0221057               0.6015 (LUMO)
      3251                          0.0231976               0.6312
      3252                          0.0243792               0.6634
      3253                          0.0249871               0.6799
      3254                          0.0266589               0.7254
       ...                                ...                  ...
      6498                          0.3823608              10.4046
      -------------------------------------------------------------
                  HL-Gap            0.4220755 Eh           11.4853 eV
             Fermi-level           -0.1889321 Eh           -5.1411 eV

 SCC (total)                   0 d,  0 h, 14 min,  2.447 sec
 SCC setup                      ...        0 min,  0.484 sec (  0.057%)
 Dispersion                     ...        0 min,  3.573 sec (  0.424%)
 classical contributions        ...        0 min,  0.158 sec (  0.019%)
 integral evaluation            ...        0 min,  5.993 sec (  0.711%)
 iterations                     ...       10 min,  3.114 sec ( 71.591%)
 molecular gradient             ...        3 min, 40.691 sec ( 26.196%)
 printout                       ...        0 min,  8.433 sec (  1.001%)

         :::::::::::::::::::::::::::::::::::::::::::::::::::::
         ::                     SUMMARY                     ::
         :::::::::::::::::::::::::::::::::::::::::::::::::::::
         :: total energy           -3427.458167664463 Eh    ::
         :: gradient norm              0.017995876492 Eh/a0 ::
         :: HOMO-LUMO gap             11.485260204006 eV    ::
         ::.................................................::
         :: SCC energy             -3478.683053534003 Eh    ::
         :: -> isotropic ES            0.422920318778 Eh    ::
         :: -> anisotropic ES          1.112429858896 Eh    ::
         :: -> anisotropic XC          1.947091396254 Eh    ::
         :: -> dispersion             -3.997442988096 Eh    ::
         :: repulsion energy          50.604681987871 Eh    ::
         :: add. restraining           0.000000000000 Eh    ::
         :: total charge              -0.000000000015 e     ::
         :::::::::::::::::::::::::::::::::::::::::::::::::::::

      ----------------------------------------------------------- 
     |              Fast Inertial Relaxation Engine              |
      ----------------------------------------------------------- 

          ...................................................
          :                      SETUP                      :
          :.................................................:
          :   energy convergence        0.5000000E-05 Eh    :
          :   grad. convergence         0.1000000E-02 Eh/a0 :
          :   optimization log               true           :
          :   writing optlog all                1     steps :
          :   Hessian reset                    20     steps :
          :   time step scaling                 5     steps :
          :   maximium step len.        1.0000000     a0    :
          :   initial time step         0.2500000     fs    :
          :   maximum time step         1.2500000     fs    :
          :   power reset thr           0.0000000     au    :
          :   alpha parameter           0.1000000           :
          :   BFGS update                   false           :
          :   preconditioning               false           :
          ...................................................

........................................................................
.............................. CYCLE    1 ..............................
........................................................................

 iter      E             dE          RMSdq      gap      omega  full diag
   1  -3478.6865566 -0.347869E+04  0.258E-04   11.49       0.0  T
   2  -3478.6865566 -0.271611E-07  0.147E-04   11.49      11.9  T
   3  -3478.6865566 -0.608907E-09  0.478E-05   11.49      36.6  T
     SCC iter.                  ...        3 min,  0.678 sec
     gradient                   ...        3 min, 40.688 sec
 * total energy  : -3427.4582041 Eh     change    :  -0.3644016E-04 Eh
   gradient norm :     0.0165586 Eh/a0  converged?    E=F G=F D=F
   time step     :     0.2500000 fs     power     :   0.1853190E-08
   step length   :     0.0021091 a0     speed     :   0.2040647E-03

........................................................................
.............................. CYCLE    2 ..............................
........................................................................

 iter      E             dE          RMSdq      gap      omega  full diag
   1  -3478.6916554 -0.347869E+04  0.373E-04   11.49       0.0  T
   2  -3478.6916555 -0.569312E-07  0.213E-04   11.49       8.2  T
   3  -3478.6916555 -0.116233E-08  0.692E-05   11.49      25.3  T
     SCC iter.                  ...        2 min, 59.163 sec
     gradient                   ...        3 min, 40.176 sec
 * total energy  : -3427.4582519 Eh     change    :  -0.4779310E-04 Eh
   gradient norm :     0.0144911 Eh/a0  converged?    E=F G=F D=F
   time step     :     0.2500000 fs     power     :   0.2364984E-08
   step length   :     0.0030792 a0     speed     :   0.2979299E-03

........................................................................
.............................. CYCLE    3 ..............................
........................................................................

 iter      E             dE          RMSdq      gap      omega  full diag
   1  -3478.6981263 -0.347870E+04  0.475E-04   11.49       0.0  T
   2  -3478.6981264 -0.914965E-07  0.271E-04   11.48       6.5  T
   3  -3478.6981264 -0.193177E-08  0.877E-05   11.48      20.0  T
     SCC iter.                  ...        2 min, 57.196 sec
     gradient                   ...        3 min, 39.446 sec
 * total energy  : -3427.4583036 Eh     change    :  -0.5173292E-04 Eh
   gradient norm :     0.0119108 Eh/a0  converged?    E=F G=F D=F
   time step     :     0.2500000 fs     power     :   0.2468627E-08
   step length   :     0.0039272 a0     speed     :   0.3799770E-03

........................................................................
.............................. CYCLE    4 ..............................
........................................................................

 iter      E             dE          RMSdq      gap      omega  full diag
   1  -3478.7056797 -0.347871E+04  0.557E-04   11.48       0.0  T
   2  -3478.7056798 -0.124196E-06  0.318E-04   11.48       5.5  T
   3  -3478.7056798 -0.271757E-08  0.102E-04   11.48      17.2  T
     SCC iter.                  ...        2 min, 54.872 sec
     gradient                   ...        3 min, 40.997 sec
 * total energy  : -3427.4583514 Eh     change    :  -0.4780830E-04 Eh
   gradient norm :     0.0090049 Eh/a0  converged?    E=F G=F D=F
   time step     :     0.2500000 fs     power     :   0.2160887E-08
   step length   :     0.0046204 a0     speed     :   0.4470485E-03

........................................................................
.............................. CYCLE    5 ..............................
........................................................................

 iter      E             dE          RMSdq      gap      omega  full diag
   1  -3478.7139578 -0.347871E+04  0.616E-04   11.48       0.0  T
   2  -3478.7139579 -0.148341E-06  0.352E-04   11.48       5.0  T
   3  -3478.7139579 -0.326418E-08  0.111E-04   11.48      15.8  T
     SCC iter.                  ...        2 min, 57.118 sec
     gradient                   ...        3 min, 39.538 sec
 * total energy  : -3427.4583885 Eh     change    :  -0.3707685E-04 Eh
   gradient norm :     0.0061200 Eh/a0  converged?    E=F G=F D=F
   time step     :     0.2500000 fs     power     :   0.1514458E-08
   step length   :     0.0051309 a0     speed     :   0.4964378E-03

........................................................................
.............................. CYCLE    6 ..............................
........................................................................

 iter      E             dE          RMSdq      gap      omega  full diag
   1  -3478.7233900 -0.347872E+04  0.715E-04   11.48       0.0  T
   2  -3478.7233902 -0.190424E-06  0.410E-04   11.48       4.3  T
   3  -3478.7233902 -0.429873E-08  0.124E-04   11.48      14.1  T
     SCC iter.                  ...        2 min, 59.232 sec
     gradient                   ...        3 min, 40.820 sec
 * total energy  : -3427.4584118 Eh     change    :  -0.2331141E-04 Eh
   gradient norm :     0.0040522 Eh/a0  converged?    E=F G=F D=F
   time step     :     0.2750000 fs     power     :   0.5859376E-09
   step length   :     0.0060012 a0     speed     :   0.5278608E-03

........................................................................
.............................. CYCLE    7 ..............................
........................................................................

 iter      E             dE          RMSdq      gap      omega  full diag
   1  -3478.7329824 -0.347873E+04  0.766E-04   11.48       0.0  T
   2  -3478.7329826 -0.192172E-06  0.440E-04   11.48       4.0  T
   3  -3478.7329826 -0.445743E-08  0.122E-04   11.48      14.4  T
     SCC iter.                  ...        2 min, 59.117 sec
     gradient                   ...        3 min, 40.128 sec
 * total energy  : -3427.4584162 Eh     change    :  -0.4410063E-05 Eh
   gradient norm :     0.0049831 Eh/a0  converged?    E=T G=F D=F
   time step     :     0.3025000 fs     power     :  -0.3201801E-09
   step length   :     0.0065058 a0     speed     :   0.5202239E-03

........................................................................
.............................. CYCLE    8 ..............................
........................................................................
 * reset velocities

 iter      E             dE          RMSdq      gap      omega  full diag
   1  -3478.7328652 -0.347873E+04  0.132E-05   11.48       0.0  T
   2  -3478.7328652 -0.161435E-09  0.703E-06   11.48     249.2  T
   3  -3478.7328652 -0.318323E-10  0.315E-06   11.48     555.5  T
     SCC iter.                  ...        2 min, 59.181 sec
     gradient                   ...        3 min, 39.804 sec
 * total energy  : -3427.4584168 Eh     change    :  -0.5309976E-06 Eh
   gradient norm :     0.0049252 Eh/a0  converged?    E=T G=F D=T
   time step     :     0.1512500 fs     power     :   0.4618169E-10
   step length   :     0.0001069 a0     speed     :   0.1709305E-04

........................................................................
.............................. CYCLE    9 ..............................
........................................................................

 iter      E             dE          RMSdq      gap      omega  full diag
   1  -3478.7326326 -0.347873E+04  0.263E-05   11.48       0.0  T
   2  -3478.7326326 -0.173259E-09  0.154E-05   11.48     114.1  T
   3  -3478.7326326  0.909495E-12  0.375E-06   11.48     467.1  T
     SCC iter.                  ...        2 min, 55.034 sec
     gradient                   ...        3 min, 40.750 sec
 * total energy  : -3427.4584178 Eh     change    :  -0.1035174E-05 Eh
   gradient norm :     0.0048165 Eh/a0  converged?    E=T G=F D=T
   time step     :     0.1512500 fs     power     :   0.8978804E-10
   step length   :     0.0002125 a0     speed     :   0.3398723E-04

........................................................................
.............................. CYCLE   10 ..............................
........................................................................

 iter      E             dE          RMSdq      gap      omega  full diag
   1  -3478.7322897 -0.347873E+04  0.387E-05   11.48       0.0  T
   2  -3478.7322897 -0.390173E-09  0.226E-05   11.48      77.7  T
   3  -3478.7322897  0.136424E-11  0.553E-06   11.48     317.0  T
     SCC iter.                  ...        2 min, 55.001 sec
     gradient                   ...        3 min, 39.961 sec
 * total energy  : -3427.4584193 Eh     change    :  -0.1484440E-05 Eh
   gradient norm :     0.0046581 Eh/a0  converged?    E=T G=F D=T
   time step     :     0.1512500 fs     power     :   0.1289940E-09
   step length   :     0.0003158 a0     speed     :   0.5050690E-04

........................................................................
.............................. CYCLE   11 ..............................
........................................................................

 iter      E             dE          RMSdq      gap      omega  full diag
   1  -3478.7318443 -0.347873E+04  0.507E-05   11.48       0.0  T
   2  -3478.7318443 -0.637101E-09  0.296E-05   11.48      59.1  T
   3  -3478.7318443 -0.268301E-10  0.721E-06   11.48     243.1  T
     SCC iter.                  ...        2 min, 53.366 sec
     gradient                   ...        3 min, 40.189 sec
 * total energy  : -3427.4584212 Eh     change    :  -0.1893043E-05 Eh
   gradient norm :     0.0044549 Eh/a0  converged?    E=T G=F D=T
   time step     :     0.1512500 fs     power     :   0.1622293E-09
   step length   :     0.0004157 a0     speed     :   0.6647754E-04

........................................................................
.............................. CYCLE   12 ..............................
........................................................................

 iter      E             dE          RMSdq      gap      omega  full diag
   1  -3478.7313066 -0.347873E+04  0.621E-05   11.48       0.0  T
   2  -3478.7313066 -0.934961E-09  0.363E-05   11.48      48.3  T
   3  -3478.7313066 -0.609361E-10  0.872E-06   11.48     200.9  T
     SCC iter.                  ...        2 min, 53.108 sec
     gradient                   ...        3 min, 39.653 sec
 * total energy  : -3427.4584234 Eh     change    :  -0.2204222E-05 Eh
   gradient norm :     0.0042138 Eh/a0  converged?    E=T G=F D=T
   time step     :     0.1512500 fs     power     :   0.1883226E-09
   step length   :     0.0005111 a0     speed     :   0.8173574E-04

........................................................................
.............................. CYCLE   13 ..............................
........................................................................

 iter      E             dE          RMSdq      gap      omega  full diag
   1  -3478.7306900 -0.347873E+04  0.728E-05   11.48       0.0  T
   2  -3478.7306900 -0.125056E-08  0.425E-05   11.48      41.2  T
   3  -3478.7306900 -0.309228E-10  0.100E-05   11.48     174.4  T
     SCC iter.                  ...        2 min, 58.817 sec
     gradient                   ...        3 min, 39.511 sec
 * total energy  : -3427.4584258 Eh     change    :  -0.2443284E-05 Eh
   gradient norm :     0.0039438 Eh/a0  converged?    E=T G=F D=T
   time step     :     0.1512500 fs     power     :   0.2065901E-09
   step length   :     0.0006011 a0     speed     :   0.9613333E-04

........................................................................
.............................. CYCLE   14 ..............................
........................................................................

 iter      E             dE          RMSdq      gap      omega  full diag
   1  -3478.7299350 -0.347873E+04  0.917E-05   11.48       0.0  T
   2  -3478.7299350 -0.195814E-08  0.536E-05   11.48      32.7  T
   3  -3478.7299350 -0.104592E-10  0.124E-05   11.48     141.0  T
     SCC iter.                  ...        2 min, 57.197 sec
     gradient                   ...        3 min, 39.155 sec
 * total energy  : -3427.4584287 Eh     change    :  -0.2864389E-05 Eh
   gradient norm :     0.0036252 Eh/a0  converged?    E=T G=F D=T
   time step     :     0.1663750 fs     power     :   0.2174352E-09
   step length   :     0.0007627 a0     speed     :   0.1108862E-03

........................................................................
.............................. CYCLE   15 ..............................
........................................................................

 iter      E             dE          RMSdq      gap      omega  full diag
   1  -3478.7290411 -0.347873E+04  0.113E-04   11.48       0.0  T
   2  -3478.7290411 -0.283853E-08  0.663E-05   11.48      26.4  T
   3  -3478.7290411 -0.745786E-10  0.149E-05   11.48     117.8  T
     SCC iter.                  ...        3 min,  0.834 sec
     gradient                   ...        3 min, 41.423 sec
 * total energy  : -3427.4584319 Eh     change    :  -0.3235288E-05 Eh
   gradient norm :     0.0032716 Eh/a0  converged?    E=T G=F D=T
   time step     :     0.1830125 fs     power     :   0.2187994E-09
   step length   :     0.0009506 a0     speed     :   0.1256435E-03

........................................................................
.............................. CYCLE   16 ..............................
........................................................................

 iter      E             dE          RMSdq      gap      omega  full diag
   1  -3478.7280267 -0.347873E+04  0.137E-04   11.48       0.0  T
   2  -3478.7280267 -0.383534E-08  0.803E-05   11.48      21.8  T
   3  -3478.7280267 -0.673026E-10  0.172E-05   11.48     102.1  T
     SCC iter.                  ...        2 min, 58.571 sec
     gradient                   ...        3 min, 39.069 sec
 * total energy  : -3427.4584354 Eh     change    :  -0.3463235E-05 Eh
   gradient norm :     0.0029151 Eh/a0  converged?    E=T G=F D=F
   time step     :     0.2013138 fs     power     :   0.2096355E-09
   step length   :     0.0011645 a0     speed     :   0.1399264E-03

........................................................................
.............................. CYCLE   17 ..............................
........................................................................

 iter      E             dE          RMSdq      gap      omega  full diag
   1  -3478.7269425 -0.347873E+04  0.162E-04   11.48       0.0  T
   2  -3478.7269425 -0.473119E-08  0.950E-05   11.48      18.4  T
   3  -3478.7269425 -0.231921E-10  0.189E-05   11.48      92.8  T
     SCC iter.                  ...        2 min, 59.531 sec
     gradient                   ...        3 min, 39.650 sec
 * total energy  : -3427.4584390 Eh     change    :  -0.3609793E-05 Eh
   gradient norm :     0.0026140 Eh/a0  converged?    E=T G=F D=F
   time step     :     0.2214451 fs     power     :   0.1910782E-09
   step length   :     0.0014016 a0     speed     :   0.1531029E-03

........................................................................
.............................. CYCLE   18 ..............................
........................................................................

 iter      E             dE          RMSdq      gap      omega  full diag
   1  -3478.7258882 -0.347873E+04  0.186E-04   11.48       0.0  T
   2  -3478.7258883 -0.534919E-08  0.110E-04   11.48      16.0  T
   3  -3478.7258883 -0.120508E-09  0.194E-05   11.48      90.2  T
     SCC iter.                  ...        2 min, 56.881 sec
     gradient                   ...        3 min, 39.805 sec
 * total energy  : -3427.4584425 Eh     change    :  -0.3513183E-05 Eh
   gradient norm :     0.0024408 Eh/a0  converged?    E=T G=F D=F
   time step     :     0.2435896 fs     power     :   0.1676642E-09
   step length   :     0.0016555 a0     speed     :   0.1643920E-03

........................................................................
.............................. CYCLE   19 ..............................
........................................................................

 iter      E             dE          RMSdq      gap      omega  full diag
   1  -3478.7250212 -0.347873E+04  0.208E-04   11.48       0.0  T
   2  -3478.7250212 -0.510499E-08  0.123E-04   11.48      14.3  T
   3  -3478.7250212 -0.813998E-10  0.183E-05   11.48      95.9  T
     SCC iter.                  ...        3 min,  2.089 sec
     gradient                   ...        3 min, 39.802 sec
 * total energy  : -3427.4584459 Eh     change    :  -0.3434633E-05 Eh
   gradient norm :     0.0024265 Eh/a0  converged?    E=T G=F D=F
   time step     :     0.2679486 fs     power     :   0.1471960E-09
   step length   :     0.0019174 a0     speed     :   0.1730937E-03

........................................................................
.............................. CYCLE   20 ..............................
........................................................................

 iter      E             dE          RMSdq      gap      omega  full diag
   1  -3478.7245390 -0.347872E+04  0.226E-04   11.48       0.0  T
   2  -3478.7245390 -0.400587E-08  0.134E-04   11.48      13.1  T
   3  -3478.7245390 -0.623004E-10  0.159E-05   11.48     110.5  T
     SCC iter.                  ...        2 min, 59.691 sec
     gradient                   ...        3 min, 40.159 sec
 * total energy  : -3427.4584494 Eh     change    :  -0.3486623E-05 Eh
   gradient norm :     0.0025031 Eh/a0  converged?    E=T G=F D=F
   time step     :     0.2947435 fs     power     :   0.1373183E-09
   step length   :     0.0021851 a0     speed     :   0.1793236E-03
 * RMSD in coord.:     0.0005508 a0     energy gain  -0.2817711E-03 Eh

........................................................................
.............................. CYCLE   21 ..............................
........................................................................

 iter      E             dE          RMSdq      gap      omega  full diag
   1  -3478.7245845 -0.347872E+04  0.186E-04   11.48       0.0  T
   2  -3478.7245845 -0.165892E-08  0.110E-04   11.48      16.0  T
   3  -3478.7245845 -0.109139E-10  0.106E-05   11.48     164.8  T
     SCC iter.                  ...        2 min, 59.707 sec
     gradient                   ...        3 min, 40.715 sec
 * total energy  : -3427.4584524 Eh     change    :  -0.2924135E-05 Eh
   gradient norm :     0.0025297 Eh/a0  converged?    E=T G=F D=F
   time step     :     0.2500000 fs     power     :   0.1427372E-09
   step length   :     0.0018736 a0     speed     :   0.1812777E-03

........................................................................
.............................. CYCLE   22 ..............................
........................................................................

 iter      E             dE          RMSdq      gap      omega  full diag
   1  -3478.7250802 -0.347873E+04  0.182E-04   11.48       0.0  T
   2  -3478.7250802 -0.123646E-08  0.107E-04   11.48      16.4  T
   3  -3478.7250802 -0.686668E-10  0.104E-05   11.48     169.1  T
     SCC iter.                  ...        2 min, 57.401 sec
     gradient                   ...        3 min, 39.753 sec
 * total energy  : -3427.4584554 Eh     change    :  -0.3074541E-05 Eh
   gradient norm :     0.0024514 Eh/a0  converged?    E=T G=F D=F
   time step     :     0.2500000 fs     power     :   0.1525390E-09
   step length   :     0.0018969 a0     speed     :   0.1835316E-03

........................................................................
.............................. CYCLE   23 ..............................
........................................................................

 iter      E             dE          RMSdq      gap      omega  full diag
   1  -3478.7259872 -0.347873E+04  0.182E-04   11.48       0.0  T
   2  -3478.7259872 -0.162481E-08  0.106E-04   11.48      16.5  T
   3  -3478.7259872 -0.623004E-10  0.113E-05   11.48     154.5  T
     SCC iter.                  ...        2 min, 59.481 sec
     gradient                   ...        3 min, 41.238 sec
 * total energy  : -3427.4584586 Eh     change    :  -0.3201428E-05 Eh
   gradient norm :     0.0022537 Eh/a0  converged?    E=T G=F D=F
   time step     :     0.2500000 fs     power     :   0.1589625E-09
   step length   :     0.0019311 a0     speed     :   0.1868398E-03

........................................................................
.............................. CYCLE   24 ..............................
........................................................................

 iter      E             dE          RMSdq      gap      omega  full diag
   1  -3478.7272397 -0.347873E+04  0.184E-04   11.48       0.0  T
   2  -3478.7272397 -0.251657E-08  0.107E-04   11.48      16.4  T
   3  -3478.7272397 -0.327418E-10  0.131E-05   11.48     133.3  T
     SCC iter.                  ...        2 min, 57.262 sec
     gradient                   ...        3 min, 40.954 sec
 * total energy  : -3427.4584618 Eh     change    :  -0.3160022E-05 Eh
   gradient norm :     0.0019577 Eh/a0  converged?    E=T G=F D=F
   time step     :     0.2500000 fs     power     :   0.1561091E-09
   step length   :     0.0019759 a0     speed     :   0.1911746E-03

........................................................................
.............................. CYCLE   25 ..............................
........................................................................

 iter      E             dE          RMSdq      gap      omega  full diag
   1  -3478.7287457 -0.347873E+04  0.186E-04   11.48       0.0  T
   2  -3478.7287457 -0.348200E-08  0.107E-04   11.48      16.3  T
   3  -3478.7287457 -0.102318E-09  0.152E-05   11.48     115.2  T
     SCC iter.                  ...        2 min, 57.556 sec
     gradient                   ...        3 min, 39.966 sec
 * total energy  : -3427.4584648 Eh     change    :  -0.2966801E-05 Eh
   gradient norm :     0.0016224 Eh/a0  converged?    E=T G=F D=F
   time step     :     0.2500000 fs     power     :   0.1417197E-09
   step length   :     0.0020259 a0     speed     :   0.1960175E-03

........................................................................
.............................. CYCLE   26 ..............................
........................................................................

 iter      E             dE          RMSdq      gap      omega  full diag
   1  -3478.7305514 -0.347873E+04  0.206E-04   11.48       0.0  T
   2  -3478.7305514 -0.504815E-08  0.118E-04   11.48      14.8  T
   3  -3478.7305514 -0.189630E-09  0.185E-05   11.48      94.6  T
     SCC iter.                  ...        2 min, 59.887 sec
     gradient                   ...        3 min, 40.070 sec
 * total energy  : -3427.4584675 Eh     change    :  -0.2778734E-05 Eh
   gradient norm :     0.0013374 Eh/a0  converged?    E=T G=F D=F
   time step     :     0.2750000 fs     power     :   0.1152484E-09
   step length   :     0.0022886 a0     speed     :   0.2013066E-03

........................................................................
.............................. CYCLE   27 ..............................
........................................................................

 iter      E             dE          RMSdq      gap      omega  full diag
   1  -3478.7324555 -0.347873E+04  0.218E-04   11.48       0.0  T
   2  -3478.7324555 -0.589853E-08  0.125E-04   11.48      14.0  T
   3  -3478.7324555 -0.158252E-09  0.196E-05   11.48      89.2  T
     SCC iter.                  ...        3 min,  0.529 sec
     gradient                   ...        3 min, 41.061 sec
 * total energy  : -3427.4584699 Eh     change    :  -0.2363749E-05 Eh
   gradient norm :     0.0013044 Eh/a0  converged?    E=T G=F D=F
   time step     :     0.3025000 fs     power     :   0.8464501E-10
   step length   :     0.0025624 a0     speed     :   0.2048982E-03

........................................................................
.............................. CYCLE   28 ..............................
........................................................................

 iter      E             dE          RMSdq      gap      omega  full diag
   1  -3478.7341095 -0.347873E+04  0.217E-04   11.48       0.0  T
   2  -3478.7341095 -0.458931E-08  0.124E-04   11.48      14.1  T
   3  -3478.7341095 -0.144610E-09  0.168E-05   11.48     104.2  T
     SCC iter.                  ...        2 min, 57.035 sec
     gradient                   ...        3 min, 40.261 sec
 * total energy  : -3427.4584719 Eh     change    :  -0.2031062E-05 Eh
   gradient norm :     0.0015134 Eh/a0  converged?    E=T G=F D=F
   time step     :     0.3327500 fs     power     :   0.6531279E-10
   step length   :     0.0028003 a0     speed     :   0.2035644E-03

........................................................................
.............................. CYCLE   29 ..............................
........................................................................

 iter      E             dE          RMSdq      gap      omega  full diag
   1  -3478.7351948 -0.347874E+04  0.204E-04   11.48       0.0  T
   2  -3478.7351948 -0.214004E-08  0.118E-04   11.48      14.8  T
   3  -3478.7351948 -0.195996E-09  0.116E-05   11.48     151.1  T
     SCC iter.                  ...        2 min, 57.799 sec
     gradient                   ...        3 min, 40.671 sec
 * total energy  : -3427.4584740 Eh     change    :  -0.2082621E-05 Eh
   gradient norm :     0.0017075 Eh/a0  converged?    E=T G=F D=F
   time step     :     0.3660250 fs     power     :   0.6490307E-10
   step length   :     0.0030045 a0     speed     :   0.1985506E-03

........................................................................
.............................. CYCLE   30 ..............................
........................................................................

 iter      E             dE          RMSdq      gap      omega  full diag
   1  -3478.7355035 -0.347874E+04  0.193E-04   11.48       0.0  T
   2  -3478.7355035 -0.998625E-09  0.112E-04   11.48      15.6  T
   3  -3478.7355035 -0.144155E-09  0.876E-06   11.48     200.1  T
     SCC iter.                  ...        2 min, 57.296 sec
     gradient                   ...        3 min, 44.192 sec
 * total energy  : -3427.4584766 Eh     change    :  -0.2532509E-05 Eh
   gradient norm :     0.0017093 Eh/a0  converged?    E=T G=F D=F
   time step     :     0.4026275 fs     power     :   0.7640361E-10
   step length   :     0.0032343 a0     speed     :   0.1943095E-03

........................................................................
.............................. CYCLE   31 ..............................
........................................................................

 iter      E             dE          RMSdq      gap      omega  full diag
   1  -3478.7349513 -0.347873E+04  0.192E-04   11.48       0.0  T
   2  -3478.7349513 -0.238924E-08  0.113E-04   11.48      15.5  T
   3  -3478.7349513 -0.146883E-09  0.113E-05   11.48     155.6  T
     SCC iter.                  ...        3 min,  2.547 sec
     gradient                   ...        3 min, 40.843 sec
 * total energy  : -3427.4584797 Eh     change    :  -0.3122727E-05 Eh
   gradient norm :     0.0014932 Eh/a0  converged?    E=T G=F D=F
   time step     :     0.4428903 fs     power     :   0.8467857E-10
   step length   :     0.0035430 a0     speed     :   0.1935044E-03

........................................................................
.............................. CYCLE   32 ..............................
........................................................................

 iter      E             dE          RMSdq      gap      omega  full diag
   1  -3478.7336640 -0.347873E+04  0.201E-04   11.48       0.0  T
   2  -3478.7336640 -0.568980E-08  0.119E-04   11.48      14.7  T
   3  -3478.7336640 -0.217369E-09  0.182E-05   11.48      96.5  T
     SCC iter.                  ...        2 min, 57.512 sec
     gradient                   ...        3 min, 42.359 sec
 * total energy  : -3427.4584830 Eh     change    :  -0.3369138E-05 Eh
   gradient norm :     0.0012512 Eh/a0  converged?    E=T G=F D=F
   time step     :     0.4871793 fs     power     :   0.7847505E-10
   step length   :     0.0039484 a0     speed     :   0.1960414E-03

........................................................................
.............................. CYCLE   33 ..............................
........................................................................

 iter      E             dE          RMSdq      gap      omega  full diag
   1  -3478.7321705 -0.347873E+04  0.201E-04   11.48       0.0  T
   2  -3478.7321705 -0.702767E-08  0.119E-04   11.48      14.7  T
   3  -3478.7321705 -0.182808E-09  0.207E-05   11.48      84.6  T
     SCC iter.                  ...        2 min, 55.757 sec
     gradient                   ...        3 min, 41.995 sec
 * total energy  : -3427.4584863 Eh     change    :  -0.3267998E-05 Eh
   gradient norm :     0.0013278 Eh/a0  converged?    E=T G=F D=F
   time step     :     0.5358972 fs     power     :   0.6581672E-10
   step length   :     0.0044123 a0     speed     :   0.1991596E-03

........................................................................
.............................. CYCLE   34 ..............................
........................................................................

 iter      E             dE          RMSdq      gap      omega  full diag
   1  -3478.7313429 -0.347873E+04  0.187E-04   11.48       0.0  T
   2  -3478.7313429 -0.317641E-08  0.111E-04   11.48      15.7  T
   3  -3478.7313429 -0.836735E-10  0.115E-05   11.48     151.8  T
     SCC iter.                  ...        2 min, 59.041 sec
     gradient                   ...        3 min, 39.925 sec
 * total energy  : -3427.4584897 Eh     change    :  -0.3428898E-05 Eh
   gradient norm :     0.0015248 Eh/a0  converged?    E=T G=F D=F
   time step     :     0.5894869 fs     power     :   0.6843409E-10
   step length   :     0.0048688 a0     speed     :   0.1997851E-03

........................................................................
.............................. CYCLE   35 ..............................
........................................................................

 iter      E             dE          RMSdq      gap      omega  full diag
   1  -3478.7318262 -0.347873E+04  0.203E-04   11.48       0.0  T
   2  -3478.7318262 -0.109821E-08  0.119E-04   11.48      14.7  T
   3  -3478.7318262  0.773070E-11  0.728E-06   11.48     240.5  T
     SCC iter.                  ...        3 min,  3.519 sec
     gradient                   ...        3 min, 40.181 sec
 * total energy  : -3427.4584942 Eh     change    :  -0.4411772E-05 Eh
   gradient norm :     0.0014247 Eh/a0  converged?    E=T G=F D=F
   time step     :     0.6484356 fs     power     :   0.8336065E-10
   step length   :     0.0054053 a0     speed     :   0.2016345E-03

........................................................................
.............................. CYCLE   36 ..............................
........................................................................

 iter      E             dE          RMSdq      gap      omega  full diag
   1  -3478.7337363 -0.347873E+04  0.260E-04   11.48       0.0  T
   2  -3478.7337363 -0.689533E-08  0.150E-04   11.48      11.7  T
   3  -3478.7337363 -0.149612E-09  0.209E-05   11.48      83.8  T
     SCC iter.                  ...        2 min, 59.441 sec
     gradient                   ...        3 min, 40.780 sec
 * total energy  : -3427.4584993 Eh     change    :  -0.5173675E-05 Eh
   gradient norm :     0.0011053 Eh/a0  converged?    E=F G=F D=F
   time step     :     0.7132792 fs     power     :   0.8395020E-10
   step length   :     0.0061395 a0     speed     :   0.2082049E-03

........................................................................
.............................. CYCLE   37 ..............................
........................................................................

 iter      E             dE          RMSdq      gap      omega  full diag
   1  -3478.7361454 -0.347874E+04  0.288E-04   11.48       0.0  T
   2  -3478.7361455 -0.114696E-07  0.167E-04   11.48      10.5  T
   3  -3478.7361455 -0.358341E-09  0.284E-05   11.48      61.7  T
     SCC iter.                  ...        3 min, 10.912 sec
     gradient                   ...        3 min, 42.417 sec
 * total energy  : -3427.4585044 Eh     change    :  -0.5051301E-05 Eh
   gradient norm :     0.0012176 Eh/a0  converged?    E=F G=F D=F
   time step     :     0.7846071 fs     power     :   0.7012185E-10
   step length   :     0.0070366 a0     speed     :   0.2169333E-03

........................................................................
.............................. CYCLE   38 ..............................
........................................................................

 iter      E             dE          RMSdq      gap      omega  full diag
   1  -3478.7371972 -0.347874E+04  0.257E-04   11.48       0.0  T
   2  -3478.7371972 -0.512773E-08  0.151E-04   11.48      11.6  T
   3  -3478.7371972 -0.234650E-09  0.202E-05   11.48      86.9  T
     SCC iter.                  ...        3 min,  6.710 sec
     gradient                   ...        3 min, 44.018 sec
 * total energy  : -3427.4585099 Eh     change    :  -0.5492826E-05 Eh
   gradient norm :     0.0013115 Eh/a0  converged?    E=F G=F D=F
   time step     :     0.8630678 fs     power     :   0.7644545E-10
   step length   :     0.0079128 a0     speed     :   0.2217685E-03

........................................................................
.............................. CYCLE   39 ..............................
........................................................................

 iter      E             dE          RMSdq      gap      omega  full diag
   1  -3478.7361683 -0.347874E+04  0.282E-04   11.48       0.0  T
   2  -3478.7361683 -0.866612E-08  0.164E-04   11.48      10.7  T
   3  -3478.7361683 -0.294222E-09  0.268E-05   11.48      65.4  T
     SCC iter.                  ...        2 min, 58.693 sec
     gradient                   ...        3 min, 39.867 sec
 * total energy  : -3427.4585165 Eh     change    :  -0.6619663E-05 Eh
   gradient norm :     0.0010461 Eh/a0  converged?    E=F G=F D=F
   time step     :     0.9493746 fs     power     :   0.8070804E-10
   step length   :     0.0089887 a0     speed     :   0.2290205E-03

........................................................................
.............................. CYCLE   40 ..............................
........................................................................

 iter      E             dE          RMSdq      gap      omega  full diag
   1  -3478.7347166 -0.347873E+04  0.309E-04   11.48       0.0  T
   2  -3478.7347167 -0.952150E-08  0.180E-04   11.48       9.8  T
   3  -3478.7347167 -0.279670E-09  0.247E-05   11.48      70.8  T
     SCC iter.                  ...        2 min, 56.577 sec
     gradient                   ...        3 min, 38.779 sec
 * total energy  : -3427.4585233 Eh     change    :  -0.6768730E-05 Eh
   gradient norm :     0.0012502 Eh/a0  converged?    E=F G=F D=F
   time step     :     1.0443120 fs     power     :   0.7329647E-10
   step length   :     0.0103257 a0     speed     :   0.2391698E-03

........................................................................
.............................. CYCLE   41 ..............................
........................................................................

 iter      E             dE          RMSdq      gap      omega  full diag
   1  -3478.7357240 -0.347874E+04  0.325E-04   11.48       0.0  T
   2  -3478.7357240 -0.477121E-08  0.190E-04   11.48       9.2  T
   3  -3478.7357240 -0.356977E-09  0.140E-05   11.48     125.2  T
     SCC iter.                  ...        2 min, 56.886 sec
     gradient                   ...        3 min, 39.325 sec
 * total energy  : -3427.4585315 Eh     change    :  -0.8270954E-05 Eh
   gradient norm :     0.0011069 Eh/a0  converged?    E=F G=F D=F
   time step     :     1.1487432 fs     power     :   0.8731971E-10
   step length   :     0.0117285 a0     speed     :   0.2469644E-03

........................................................................
.............................. CYCLE   42 ..............................
........................................................................

 iter      E             dE          RMSdq      gap      omega  full diag
   1  -3478.7380938 -0.347874E+04  0.389E-04   11.49       0.0  T
   2  -3478.7380939 -0.171958E-07  0.227E-04   11.49       7.7  T
   3  -3478.7380939 -0.604814E-09  0.310E-05   11.49      56.5  T
     SCC iter.                  ...        2 min, 58.273 sec
     gradient                   ...        3 min, 40.118 sec
 * total energy  : -3427.4585407 Eh     change    :  -0.9134466E-05 Eh
   gradient norm :     0.0011751 Eh/a0  converged?    E=F G=F D=F
   time step     :     1.2500000 fs     power     :   0.8124260E-10
   step length   :     0.0134343 a0     speed     :   0.2599672E-03
 * RMSD in coord.:     0.0017101 a0     energy gain  -0.9122775E-04 Eh

........................................................................
.............................. CYCLE   43 ..............................
........................................................................

 iter      E             dE          RMSdq      gap      omega  full diag
   1  -3478.7381298 -0.347874E+04  0.616E-05   11.49       0.0  T
   2  -3478.7381298 -0.143700E-09  0.363E-05   11.49      48.3  T
   3  -3478.7381298 -0.659384E-10  0.206E-06   11.49     849.9  T
     SCC iter.                  ...        2 min, 57.240 sec
     gradient                   ...        3 min, 39.927 sec
 * total energy  : -3427.4585424 Eh     change    :  -0.1753057E-05 Eh
   gradient norm :     0.0011890 Eh/a0  converged?    E=T G=F D=F
   time step     :     0.2500000 fs     power     :   0.9160642E-10
   step length   :     0.0025986 a0     speed     :   0.2514315E-03

........................................................................
.............................. CYCLE   44 ..............................
........................................................................

 iter      E             dE          RMSdq      gap      omega  full diag
   1  -3478.7377721 -0.347874E+04  0.618E-05   11.49       0.0  T
   2  -3478.7377721 -0.363798E-09  0.361E-05   11.49      48.6  T
   3  -3478.7377721 -0.100044E-10  0.467E-06   11.49     375.5  T
     SCC iter.                  ...        3 min,  3.315 sec
     gradient                   ...        3 min, 39.400 sec
 * total energy  : -3427.4585443 Eh     change    :  -0.1912843E-05 Eh
   gradient norm :     0.0011018 Eh/a0  converged?    E=T G=F D=F
   time step     :     0.2500000 fs     power     :   0.9979658E-10
   step length   :     0.0025376 a0     speed     :   0.2455270E-03

........................................................................
.............................. CYCLE   45 ..............................
........................................................................

 iter      E             dE          RMSdq      gap      omega  full diag
   1  -3478.7371160 -0.347874E+04  0.716E-05   11.49       0.0  T
   2  -3478.7371160 -0.880846E-09  0.417E-05   11.49      42.1  T
   3  -3478.7371160  0.154614E-10  0.804E-06   11.49     217.8  T
     SCC iter.                  ...        2 min, 57.153 sec
     gradient                   ...        3 min, 40.878 sec
 * total energy  : -3427.4585463 Eh     change    :  -0.1982481E-05 Eh
   gradient norm :     0.0009695 Eh/a0  converged?    E=T G=T D=F
   time step     :     0.2500000 fs     power     :   0.1017784E-09
   step length   :     0.0025090 a0     speed     :   0.2427589E-03

   *** GEOMETRY OPTIMIZATION CONVERGED AFTER 45 CYCLES ***

------------------------------------------------------------------------
 total energy gain   :        -0.0003786 Eh       -0.2376 kcal/mol
 total RMSD          :         0.0020621 a0        0.0011 Å
 total power (kW/mol):        -0.0220920 (step)   -0.0001 (real)
------------------------------------------------------------------------

 FIRE (total)                  0 d,  5 h, 13 min, 27.766 sec
 setup                          ...        0 min,  0.116 sec (  0.001%)
 velocities                     ...        0 min,  0.003 sec (  0.000%)
 propagation                    ...        0 min,  0.004 sec (  0.000%)
 singlepoint calculation        ...      313 min, 26.896 sec ( 99.995%)
 log and printout               ...        0 min,  0.693 sec (  0.004%)
 preconditioner                 ...        0 min,  0.000 sec (  0.000%)
 model hessian                  ...        0 min,  0.000 sec (  0.000%)
 hessian update                 ...        0 min,  0.000 sec (  0.000%)

================
 final structure:
================
3258
 xtb: 6.6.1 (8d0f1dd)
C          118.35397795472556      118.28853999929269      125.72478935922219
C          117.19942477443038      117.90894138934809      124.80577146068858
C          117.62831534750912      116.89806827539475      123.74575084945145
C          116.48896847219889      116.54181739839608      122.79472615043025
C          116.93762423574952      115.55869328662106      121.71608329024791
C          115.78692699608051      115.00148726561706      120.87914764320654
C          115.08485571763066      116.01898375269326      119.97858993786667
C          115.90767986301134      116.46252034294189      118.76922730862582
C          115.10689591083172      117.42987292077740      117.89858183551695
C          115.75998875630431      117.76332718398616      116.55713786541217
C          117.09288318803063      118.50116927080309      116.68368815010689
C          117.49571693560148      119.15956654510634      115.36476104446855
C          118.90776129078353      119.74178749613992      115.39569748088398
C          119.23392233740347      120.48130197465477      114.09884036764736
C          120.64487767262075      121.07202314480094      114.04590415413531
C          121.77516598177888      120.05818686452882      114.22623704530888
C          121.81448759343083      118.98923835074314      113.13713489259847
C          122.76737547455458      117.85411071767705      113.49599703998170
C          122.76408328359314      116.74349858142834      112.44985556485848
C          123.52195757954699      115.50758596848441      112.92551338536933
C          123.26211055448270      114.28740522129817      112.04693226947684
C          124.02177603819065      113.06567315866496      112.55604348989455
C          123.61149092940656      111.76094073216817      111.87625235039316
C          123.93297202806136      111.71958200970101      110.38587390027624
C          123.58988938075008      110.36738447391494      109.76576008749709
C          123.87295650849084      110.32863772542004      108.26607248116517
C          123.50147843246313      108.98254455197666      107.64838338315791
C          123.85636451710357      108.91684777179923      106.16433154538990
C          123.44693111952559      107.60293907390614      105.49674034010299
C          124.11796724778358      106.38874397818441      106.13729422410539
C          124.08341207700177      105.13201151983749      105.26946601039326
C          122.67553679496086      104.59577368118394      105.00805535508353
C          122.71935538376668      103.13402860360638      104.56788512894661
C          121.34155948877816      102.53929790057703      104.28568955642150
C          121.42984282579648      101.02927157633762      104.07551685252525
C          120.08566961942601      100.38833855352101      103.74144497264243
C          120.19407661732241       98.86541753595370      103.69515138530602
C          118.88022052426700       98.17385645097022      103.32488499538258
C          118.54910643591610       98.19810913005146      101.83108087104962
C          119.47334090338765       97.30407526983554      101.00540297735643
C          119.09256224388025       97.24502350451854       99.52411271043312
C          117.92438404632007       96.30245002664668       99.24717168201350
C          117.45514710519282       96.36569769340799       97.79633934436832
C          116.29609677837399       95.40564648780330       97.53634774939164
C          115.76932607531367       95.46628250608578       96.10164865580192
C          114.95772629679918       96.72683980305361       95.80694202419879
C          114.44361288081207       96.73888670136522       94.36916767332885
C          113.48016007716876       97.88726759151844       94.06586288666620
C          114.11387480079944       99.27387529676642       94.17529863698805
C          113.21033794639986      100.34984868722574       93.57582754211472
C          113.80118297787203      101.75456963859511       93.68837274264719
C          112.95743532302639      102.77369642484918       92.92479012664626
C          113.53548774595961      104.18993599492968       92.93098142687400
C          113.42484499813935      104.88595387530337       94.28528185612791
C          113.85355812151541      106.35050805009431       94.21254547590043
C          113.71173071861212      107.05926199762452       95.55750165831229
C          114.14031195132050      108.52273355905837       95.49645142255396
C          114.07310595751360      109.19603183158708       96.86564275370353
C          114.42349736123326      110.67997843924130       96.78933170949442
C          114.39674773607166      111.35805349523686       98.15703676535229
C          114.74585178153076      112.84215021483034       98.06533268584336
C          114.76047382538327      113.51895451676850       99.43359468679097
C          115.20465536428178      114.97884623077617       99.35687464430819
C          115.25490441994567      115.61766058656875      100.74400016191970
C          115.83338268558734      117.03792808250971      100.77563770432025
C          114.79217917887568      118.15709133794566      100.72769376851515
C          114.06132221610180      118.28260056556664       99.39345135770112
C          113.14921653104822      119.50788569486389       99.37533086320393
C          112.46582450562454      119.75060550875993       98.02900634223697
C          111.50613765919242      118.63366944824490       97.62465268626188
C          110.64502346786981      119.01378532589446       96.42145704469267
C          109.68583598470637      117.88595079481487       96.05090928692245
C          108.71621673074908      118.25675664875925       94.93207025243714
C          107.75841756797195      117.10694424137310       94.62346403929288
C          106.70015449277230      117.49262710425080       93.59303616309019
C          105.76203537484686      116.33962621986373       93.23020439949244
C          104.79249989603353      115.96153244526562       94.34898789875531
C          103.83280710975231      114.85562286209948       93.91396816253508
C          102.82100468189117      114.50342502582484       95.00184252353309
C          101.86776136972769      113.39313882651597       94.56529290181177
C          100.83462216162505      113.07062068882057       95.64266847394440
C           99.90904272527081      111.92298435081130       95.24331542747400
C           98.78717798138665      111.72154582968484       96.26021894471945
C           97.90747762248027      110.51942834096937       95.91895410784116
C           96.57939630252255      110.50604327031503       96.67917459855995
C           96.70702081331230      110.47157419988159       98.20266828173928
C           97.30090168630386      109.17123917493564       98.73724821416263
C           97.40943574503655      109.19050998751999      100.25967783085352
C           97.95061522516249      107.87724336724879      100.81905157368355
C           98.25214381478399      107.97511476515221      102.31231368154300
C           98.65724182436956      106.63179940333158      102.91256697600060
C           99.12203659628695      106.76330280340864      104.36011515936154
C           99.49520186991974      105.41405451034754      104.96483063492826
C          100.06285860108501      105.53870581746126      106.37614842239020
C          100.42187294927864      104.17415135207116      106.95653385046430
C          101.00599095554722      104.25797514085328      108.36518398340813
C          101.29151850236470      102.87918616848907      108.96407687326227
C          100.02044294566208      102.14405155147685      109.38426880003972
C          100.30011873845062      100.70946015945961      109.82501559764286
C           99.02725363611152       99.92671058649560      110.14922470917007
C           98.17959712437928       99.61715654303359      108.91590423727915
C           96.97318757915768       98.74820180448037      109.26437143692159
C           96.00381961799242       98.55270204320030      108.09822717576137
C           96.59355984142098       97.77439528208377      106.92268814596092
C           95.53042783362345       97.49450253004382      105.86218181696044
C           96.05083640456466       96.72485420455817      104.64675475693960
C           97.00850208591049       97.54111569902152      103.78016882325259
C           97.25325906354938       96.89751047764500      102.41703500748849
C           98.13956930546975       97.76866533978762      101.52909422226762
C           98.30443070194035       97.18060922171495      100.13002232380248
C           99.25373342687419       97.98358846371315       99.23978216649130
C           98.69874184106507       99.33750239042099       98.80013957067854
C           99.61637704677713      100.00578536986212       97.77773829164541
C           99.09475371308137      101.36757796870609       97.32437588168128
C           99.87351209676505      101.94491832565740       96.14099171300113
C          101.35802231358247      102.15469041224407       96.43312207054542
C          102.05060373891439      102.97139423726921       95.34337203569044
C          103.55340563284523      103.09301279915655       95.58633894906954
C          104.22505783689991      104.08328978131851       94.63871108225912
C          105.70017576957503      104.26859044585083       94.97402982547470
H          104.12454641311618      103.72776152525071       93.61068054445261
H          103.71479335249279      105.04632387874960       94.70603919867439
H          103.72299369847187      103.42097073373532       96.61516591630426
H          104.02207691494459      102.11305153210665       95.47226809131958
H          101.87609733170687      102.50695136733430       94.36971659082019
H          101.61179272378035      103.97170774696424       95.31549304540586
H          101.46524928725353      102.67372740769417       97.38733621936176
H          101.85061678831970      101.18476454557275       96.52207702805927
H           99.76587970343955      101.28046409811537       95.28023440630078
H           99.42749092904941      102.90529327322506       95.86813290501844
H           98.04581699404861      101.26621645719953       97.03234560563989
H           99.13435874469110      102.06933848084790       98.16177025147064
H          100.60829443344730      100.12251807499327       98.21686046937921
H           99.71341221353313       99.35335686126520       96.90663374744682
H           97.70800607916613       99.19675579564081       98.36100453239999
H           98.58620711099989       99.99417045489906       99.66549365438937
H          100.19827469479613       98.13745154929475       99.76620670287971
H           99.47059111060523       97.39436843343779       98.34543986757424
H           98.68935254244884       96.16167571936816      100.22221006042156
H           97.32602896113126       97.11722791840621       99.64801090350680
H           97.69403980195138       98.76209206047615      101.45730700456521
H           99.12320668948276       97.87675177613863      101.99356027295529
H           97.71861435040033       95.91826882526806      102.55169876806964
H           96.29444730081717       96.74126533703333      101.91652416573153
H           96.58748806776786       98.53764845880363      103.62596723284454
H           97.96383169451265       97.65889269181216      104.29352098624234
H           96.54611629856406       95.80934910283696      104.97774623763179
H           95.19291182497871       96.43237953943050      104.03578949532088
H           94.72403977343041       96.91724074256844      106.32206208594810
H           95.10195863093148       98.44257376926519      105.52641022982718
H           97.40775826170724       98.34734764779957      106.47855096382514
H           97.00369253552802       96.82716834891735      107.28111308009970
H           95.12424982515415       98.01753687060942      108.46572072528762
H           95.66633723640550       99.53005229851210      107.74335935371880
H           97.31524513492586       97.77243198618783      109.61768907206348
H           96.43041214170395       99.22117762741061      110.08731425813197
H           97.82320136626547      100.54592151555457      108.46623633237078
H           98.80251969969902       99.10711800624928      108.17889991353205
H           99.30649518169103       98.98262866602674      110.62318190199738
H           98.42977570465089      100.49562870508663      110.86646304268378
H          100.84267071949849      100.18711958781645      109.03339522786965
H          100.94499953797231      100.72749074672497      110.70759835031512
H           99.54276016126484      102.68708018407773      110.20333565877205
H           99.32199686716899      102.12841447572669      108.54813828676508
H          101.83112638675584      102.28164233496173      108.22524499121812
H          101.94030113232940      102.98886890875939      109.83606581505065
H          101.93780843546296      104.82801570308453      108.32405819242804
H          100.31743156120399      104.80037805978840      109.01802100844583
H           99.52288330181538      103.55629948171524      106.96752779259609
H          101.14586887104328      103.68490186771055      106.30182563512908
H          100.95462921548135      106.16958798947611      106.35151972855144
H           99.32978605839260      106.02842829716440      107.02084303213839
H           98.60911023848297      104.77695417010857      104.98514673378338
H          100.23584014938233      104.92681777869298      104.32676345241758
H           99.98596185744636      107.42901845940912      104.39758474741292
H           98.33021109603685      107.22013998275300      104.95804543149761
H           97.81332934229800      105.94034232760541      102.86118969408840
H           99.46718676290121      106.19970991996604      102.31926183803957
H           99.05612230468003      108.69636279818509      102.46802470547736
H           97.37074478861364      108.35215644944971      102.83335187352453
H           97.22275516395787      107.08275401413854      100.64222456094912
H           98.86554235432425      107.60618918920534      100.28523910462283
H           98.06617400161815      110.01032789880183      100.55924255171755
H           96.42571051453422      109.38632720418147      100.69280967498466
H           96.67368494787637      108.33248549393174       98.42749055458904
H           98.29471008479338      109.01689597748276       98.31298935913487
H           97.31544139989890      111.31295715646586       98.53870605666648
H           95.71027967559867      110.60097686542115       98.63307238731724
H           96.01463153732246      111.39974133675631       96.40089423108304
H           95.99819374471446      109.63883899594022       96.35437401424670
H           97.68038387087799      110.54222932573376       94.84959371662819
H           98.45923252828554      109.59842920915467       96.11387779510747
H           99.22810856796868      111.58689996960561       97.24945495884647
H           98.16952603196223      112.62272676455642       96.28933497853873
H           99.47333240314168      112.13352006913780       94.26354408071821
H          100.48902385723690      111.00122948788245       95.15468391958548
H          101.34864550249929      112.80992178498067       96.57052494900429
H          100.23535357242498      113.96340609045372       95.83874522494396
H          101.35231171508360      113.69839410849464       93.65157770657636
H          102.44410050305710      112.49470643241268       94.33058385120997
H          103.35165523750209      114.18895129995215       95.90342206402347
H          102.24257783012928      115.39422806956459       95.25801310487445
H          103.29713828089211      115.17605197873078       93.01706539415166
H          104.40693401167731      113.96315421603488       93.65264277772565
H          105.34814252842260      115.62381798320470       95.22520397057576
H          104.21650368791619      116.84380843698092       94.63891311973023
H          105.17956453618255      116.62725265013252       92.35121476607225
H          106.35704577881494      115.46481758453498       92.95729652464382
H          106.11049069099019      118.32911327003379       93.97642318281932
H          107.20319506905214      117.83462542376637       92.68506351730667
H          108.32916193389200      116.25211836641373       94.25284741508021
H          107.26822949293613      116.80229005158996       95.54827523017723
H          108.13935064560314      119.13583233332513       95.23086846081112
H          109.27534042299618      118.52172415279807       94.03183734149455
H          110.26144455486238      117.00658263627177       95.75244779194588
H          109.10743231753555      117.61845890791319       96.93739497601611
H          110.07080009040146      119.91343307707238       96.65744261136714
H          111.28691766177742      119.24806487651691       95.56925516752057
H          112.07103145530310      117.73130230118690       97.38277388720957
H          110.85103390002425      118.40200747581844       98.46728063462653
H          111.90536892002325      120.68722952072213       98.09240574792216
H          113.22511026369138      119.87553959716270       97.25345516013860
H          112.38608352513505      119.39687496144123      100.14904465362585
H          113.74190588038547      120.39129867414735       99.62758530633135
H          114.79323455362722      118.36400756562766       98.58649562820536
H          113.46690181561982      117.38559058995489       99.22166588738862
H          114.06187372396930      117.99672210907767      101.52537354376129
H          115.29934018128881      119.10368413035455      100.93561250997539
H          116.39563202395460      117.16112870369618      101.70522653256970
H          116.53908769401632      117.16436048971029       99.95172322729299
H          114.25426538419059      115.62389310144054      101.17985857137536
H          115.87445073900929      114.97769692995674      101.37522809661675
H          116.19939733539815      115.02442817789920       98.90568139775765
H          114.52403170019114      115.52863112536257       98.70629211412026
H          113.76302317417026      113.46625300457924       99.87621347143471
H          115.43894721877713      112.97368004179732      100.09360968304557
H          115.73027445965982      112.94895247944588       97.60221623440789
H          114.02284890968946      113.34561270283632       97.41892878734171
H          113.40506989928521      111.24281845372278       98.60023489895107
H          115.10824903829490      110.86076730036849       98.82041036040329
H          115.41912175669830      110.79224733953073       96.35213558583341
H          113.71642281795060      111.18249499035718       96.12446048384736
H          113.06793998742556      109.08037015334277       97.27518774251263
H          114.76321220989375      108.69552421510100       97.54950704961537
H          115.16165277721335      108.58547039036659       95.11212437866838
H          113.49360526801934      109.05870886577438       94.79758594661230
H          112.67036276350450      107.00584553239366       95.88463700016918
H          114.32007889480279      106.54174698295975       96.30396534075744
H          114.89340469449333      106.40689394335875       93.88093808109143
H          113.24315943330090      106.86850307396054       93.46861945150259
H          112.38934073951386      104.83228322737450       94.62809095669635
H          114.04545214427621      104.36656704566965       95.01712356009928
H          114.58318006905965      104.15571454543017       92.62324446258350
H          112.99554891330267      104.78627200525733       92.19073774958747
H          112.87050686956701      102.43986004021993       91.88754656664551
H          111.94997817496900      102.79571239179742       93.34689962751209
H          113.86254938685612      102.03661954159048       94.74022988390502
H          114.81555435409743      101.75334312463883       93.28141996063349
H          113.04020228339168      100.11899675109750       92.52100865190268
H          112.24067613843093      100.32692074737932       94.07793780425060
H          114.30839607164752       99.50958035140619       95.22291710932399
H          115.07182457927546       99.27618829181037       93.64935230579422
H          113.10542545880303       97.75627485151399       93.04734743002908
H          112.62277633905484       97.82886412396462       94.73999523100416
H          115.29414412369036       96.79277465200046       93.68515788364616
H          113.92603427650944       95.79567463402213       94.17425084194227
H          114.10814097372942       96.77131025067435       96.49296747882578
H          115.57518447167416       97.60848562849766       95.97847866624269
H          116.60954674391117       95.40603198297249       95.40582263469345
H          115.13344229847979       94.59504283338528       95.92356871201767
H          116.63480784183200       94.38799349667023       97.74694472544824
H          115.47991583745382       95.62851306928997       98.22706181106187
H          117.14584456928753       97.38720514958840       97.56746768553116
H          118.28729038628171       96.11534211392799       97.13378012837001
H          118.22198845536849       95.27899761385825       99.48750225220220
H          117.08690868660916       96.56242646566145       99.89617931289146
H          118.83951101370850       98.25125541862128       99.17986605209722
H          119.95501484325369       96.90532034535498       98.94551434612092
H          120.49213236387648       97.68328901691953      101.08410577615446
H          119.46390188023349       96.29266080317741      101.42024639789439
H          117.51712169994933       97.86527976763331      101.70732739178627
H          118.60847306247433       99.22116197987900      101.45462973679280
H          118.92344373573819       97.13157838283318      103.65060218632064
H          118.06689026723558       98.65197094947153      103.87723003988980
H          120.97500535098868       98.58014688818487      102.98843795770907
H          120.50863098506412       98.51498129815337      104.68098593973357
H          119.35149132275771      100.67227706317787      104.49950850961925
H          119.72932693109098      100.76921622470741      102.78223722939643
H          122.14155096960769      100.81667464309380      103.27362535159770
H          121.81939981421345      100.57012483135003      104.98792778614933
H          120.67413973647051      102.74791948969404      105.12650338991490
H          120.91172770251856      103.01079176492480      103.40042757705670
H          123.34020934757132      103.04493331783243      103.67368288850268
H          123.19929226082905      102.54715727975434      105.35527526264370
H          122.08459478752602      104.67700678582267      105.92368134765395
H          122.18006976675447      105.19689392473259      104.24294067595520
H          124.58009684856269      105.33485926291614      104.31750437386286
H          124.65956356570803      104.35424870277232      105.77795753103825
H          125.16265166790080      106.63727219641939      106.33605202698786
H          123.63917342360145      106.16686100854274      107.09358648967017
[...]
  3011   6 C     3012   6 C                                       1.5283232
  3012   6 C     3013   6 C                                       1.5271545
  3013   6 C     3014   6 C                                       1.5274687
  3014   6 C     3015   6 C                                       1.5268505
  3015   6 C     3016   6 C                                       1.5238873
  3015   6 C     3017   1 H                                       1.0925888
  3015   6 C     3018   1 H                                       1.0926624
  3014   6 C     3019   1 H                                       1.0930297
  3014   6 C     3020   1 H                                       1.0930637
  3013   6 C     3021   1 H                                       1.0929230
  3013   6 C     3022   1 H                                       1.0931038
  3012   6 C     3023   1 H                                       1.0932395
  3012   6 C     3024   1 H                                       1.0932605
  3011   6 C     3025   1 H                                       1.0916375
  3011   6 C     3026   1 H                                       1.0928063
  3010   6 C     3027   1 H                                       1.0931975
  3010   6 C     3028   1 H                                       1.0920796
  3009   6 C     3029   1 H                                       1.0920476
  3009   6 C     3030   1 H                                       1.0925439
  3008   6 C     3031   1 H                                       1.0924425
  3008   6 C     3032   1 H                                       1.0911766
  3007   6 C     3033   1 H                                       1.0915108
  3007   6 C     3034   1 H                                       1.0932607
  3006   6 C     3035   1 H                                       1.0925211
  3006   6 C     3036   1 H                                       1.0930812
  3005   6 C     3037   1 H                                       1.0929905
  3005   6 C     3038   1 H                                       1.0929932
  3004   6 C     3039   1 H                                       1.0908653
  3004   6 C     3040   1 H                                       1.0914362
  3003   6 C     3041   1 H                                       1.0931048
  3003   6 C     3042   1 H                                       1.0928522
  3002   6 C     3043   1 H                                       1.0927610
  3002   6 C     3044   1 H                                       1.0930233
  3001   6 C     3045   1 H                                       1.0912115
  3001   6 C     3046   1 H                                       1.0908715
  3000   6 C     3047   1 H                                       1.0930754
  3000   6 C     3048   1 H                                       1.0923134
  2999   6 C     3049   1 H                                       1.0931932
  2999   6 C     3050   1 H                                       1.0927087
  2998   6 C     3051   1 H                                       1.0923020
  2998   6 C     3052   1 H                                       1.0906660
  2997   6 C     3053   1 H                                       1.0930419
  2997   6 C     3054   1 H                                       1.0922713
  2996   6 C     3055   1 H                                       1.0922612
  2996   6 C     3056   1 H                                       1.0927180
  2995   6 C     3057   1 H                                       1.0935140
  2995   6 C     3058   1 H                                       1.0912801
  2994   6 C     3059   1 H                                       1.0919771
  2994   6 C     3060   1 H                                       1.0931195
  2993   6 C     3061   1 H                                       1.0928991
  2993   6 C     3062   1 H                                       1.0933103
  2992   6 C     3063   1 H                                       1.0915154
  2992   6 C     3064   1 H                                       1.0927639
  2991   6 C     3065   1 H                                       1.0918310
  2991   6 C     3066   1 H                                       1.0919687
  2990   6 C     3067   1 H                                       1.0932048
  2990   6 C     3068   1 H                                       1.0923287
  2989   6 C     3069   1 H                                       1.0931350
  2989   6 C     3070   1 H                                       1.0929271
  2988   6 C     3071   1 H                                       1.0924268
  2988   6 C     3072   1 H                                       1.0908938
  2987   6 C     3073   1 H                                       1.0910977
  2987   6 C     3074   1 H                                       1.0924685
  2986   6 C     3075   1 H                                       1.0926266
  2986   6 C     3076   1 H                                       1.0924072
  2985   6 C     3077   1 H                                       1.0926565
  2985   6 C     3078   1 H                                       1.0923269
  2984   6 C     3079   1 H                                       1.0920806
  2984   6 C     3080   1 H                                       1.0910949
  2983   6 C     3081   1 H                                       1.0930379
  2983   6 C     3082   1 H                                       1.0926888
  2982   6 C     3083   1 H                                       1.0915335
  2982   6 C     3084   1 H                                       1.0932641
  2981   6 C     3085   1 H                                       1.0933956
  2981   6 C     3086   1 H                                       1.0925671
  2980   6 C     3087   1 H                                       1.0922238
  2980   6 C     3088   1 H                                       1.0926659
  2979   6 C     3089   1 H                                       1.0908878
  2979   6 C     3090   1 H                                       1.0913037
  2978   6 C     3091   1 H                                       1.0935517
  2978   6 C     3092   1 H                                       1.0930456
  2977   6 C     3093   1 H                                       1.0929549
  2977   6 C     3094   1 H                                       1.0938404
  2976   6 C     3095   1 H                                       1.0916293
  2976   6 C     3096   1 H                                       1.0906683
  2975   6 C     3097   1 H                                       1.0921232
  2975   6 C     3098   1 H                                       1.0930910
  2974   6 C     3099   1 H                                       1.0913379
  2974   6 C     3100   1 H                                       1.0923418
  2973   6 C     3101   1 H                                       1.0939625
  2973   6 C     3102   1 H                                       1.0932082
  2972   6 C     3103   1 H                                       1.0916398
  2972   6 C     3104   1 H                                       1.0919428
  2971   6 C     3105   1 H                                       1.0912011
  2971   6 C     3106   1 H                                       1.0912176
  2970   6 C     3107   1 H                                       1.0934948
  2970   6 C     3108   1 H                                       1.0935453
  2969   6 C     3109   1 H                                       1.0941074
  2969   6 C     3110   1 H                                       1.0895885
  2968   6 C     3111   1 H                                       1.0894709
  2968   6 C     3112   1 H                                       1.0923463
  2967   6 C     3113   1 H                                       1.0937537
  2967   6 C     3114   1 H                                       1.0935116
  2966   6 C     3115   1 H                                       1.0929177
  2966   6 C     3116   1 H                                       1.0898048
  2965   6 C     3117   1 H                                       1.0917946
  2965   6 C     3118   1 H                                       1.0937225
  2964   6 C     3119   1 H                                       1.0937795
  2964   6 C     3120   1 H                                       1.0929797
  2963   6 C     3121   1 H                                       1.0912680
  2963   6 C     3122   1 H                                       1.0932189
  2962   6 C     3123   1 H                                       1.0929486
  2962   6 C     3124   1 H                                       1.0927144
  2961   6 C     3125   1 H                                       1.0932131
  2961   6 C     3126   1 H                                       1.0915390
  2960   6 C     3127   1 H                                       1.0922123
  2960   6 C     3128   1 H                                       1.0932090
  2959   6 C     3129   1 H                                       1.0930498
  2959   6 C     3130   1 H                                       1.0913283
  2958   6 C     3131   1 H                                       1.0901958
  2958   6 C     3132   1 H                                       1.0929280
  2957   6 C     3133   1 H                                       1.0919021
  2957   6 C     3134   1 H                                       1.0937526
  2956   6 C     3135   1 H                                       1.0938479
  2956   6 C     3136   1 H                                       1.0905111
  2955   6 C     3137   1 H                                       1.0917532
  2955   6 C     3138   1 H                                       1.0915487
  2954   6 C     3139   1 H                                       1.0928835
  2954   6 C     3140   1 H                                       1.0922457
  2953   6 C     3141   1 H                                       1.0927680
  2953   6 C     3142   1 H                                       1.0921206
  2952   6 C     3143   1 H                                       1.0916558
  2952   6 C     3144   1 H                                       1.0925291
  2951   6 C     3145   1 H                                       1.0907702
  2951   6 C     3146   1 H                                       1.0920759
  2950   6 C     3147   1 H                                       1.0922368
  2950   6 C     3148   1 H                                       1.0927681
  2949   6 C     3149   1 H                                       1.0926261
  2949   6 C     3150   1 H                                       1.0934858
  2948   6 C     3151   1 H                                       1.0930557
  2948   6 C     3152   1 H                                       1.0916119
  2947   6 C     3153   1 H                                       1.0921571
  2947   6 C     3154   1 H                                       1.0928144
  2946   6 C     3155   1 H                                       1.0918094
  2946   6 C     3156   1 H                                       1.0910382
  2945   6 C     3157   1 H                                       1.0931545
  2945   6 C     3158   1 H                                       1.0933887
  2944   6 C     3159   1 H                                       1.0931222
  2944   6 C     3160   1 H                                       1.0912468
  2943   6 C     3161   1 H                                       1.0920303
  2943   6 C     3162   1 H                                       1.0927879
  2942   6 C     3163   1 H                                       1.0927494
  2942   6 C     3164   1 H                                       1.0928438
  2941   6 C     3165   1 H                                       1.0914950
  2941   6 C     3166   1 H                                       1.0927758
  2940   6 C     3167   1 H                                       1.0930139
  2940   6 C     3168   1 H                                       1.0928889
  2939   6 C     3169   1 H                                       1.0928767
  2939   6 C     3170   1 H                                       1.0930337
  2938   6 C     3171   1 H                                       1.0929046
  2938   6 C     3172   1 H                                       1.0896047
  2937   6 C     3173   1 H                                       1.0916752
  2937   6 C     3174   1 H                                       1.0932524
  2936   6 C     3175   1 H                                       1.0931114
  2936   6 C     3176   1 H                                       1.0932191
  2935   6 C     3177   1 H                                       1.0936966
  2935   6 C     3178   1 H                                       1.0902349
  2934   6 C     3179   1 H                                       1.0896071
  2934   6 C     3180   1 H                                       1.0924859
  2933   6 C     3181   1 H                                       1.0929073
  2933   6 C     3182   1 H                                       1.0922322
  2932   6 C     3183   1 H                                       1.0930330
  2932   6 C     3184   1 H                                       1.0919136
  2931   6 C     3185   1 H                                       1.0917849
  2931   6 C     3186   1 H                                       1.0928201
  2930   6 C     3187   1 H                                       1.0918109
  2930   6 C     3188   1 H                                       1.0934627
  2929   6 C     3189   1 H                                       1.0927764
  2929   6 C     3190   1 H                                       1.0925391
  2928   6 C     3191   1 H                                       1.0933636
  2928   6 C     3192   1 H                                       1.0924973
  2927   6 C     3193   1 H                                       1.0929179
  2927   6 C     3194   1 H                                       1.0923482
  2926   6 C     3195   1 H                                       1.0923639
  2926   6 C     3196   1 H                                       1.0910796
  2925   6 C     3197   1 H                                       1.0928023
  2925   6 C     3198   1 H                                       1.0925698
  2924   6 C     3199   1 H                                       1.0927897
  2924   6 C     3200   1 H                                       1.0932506
  2923   6 C     3201   1 H                                       1.0923433
  2923   6 C     3202   1 H                                       1.0925964
  2922   6 C     3203   1 H                                       1.0931639
  2922   6 C     3204   1 H                                       1.0926107
  2921   6 C     3205   1 H                                       1.0921404
  2921   6 C     3206   1 H                                       1.0925414
  2920   6 C     3207   1 H                                       1.0927298
  2920   6 C     3208   1 H                                       1.0921931
  2919   6 C     3209   1 H                                       1.0919982
  2919   6 C     3210   1 H                                       1.0924914
  2918   6 C     3211   1 H                                       1.0924979
  2918   6 C     3212   1 H                                       1.0925756
  2917   6 C     3213   1 H                                       1.0921770
  2917   6 C     3214   1 H                                       1.0905538
  2916   6 C     3215   1 H                                       1.0927402
  2916   6 C     3216   1 H                                       1.0932641
  2915   6 C     3217   1 H                                       1.0930040
  2915   6 C     3218   1 H                                       1.0925265
  2914   6 C     3219   1 H                                       1.0911173
  2914   6 C     3220   1 H                                       1.0917022
  2913   6 C     3221   1 H                                       1.0922026
  2913   6 C     3222   1 H                                       1.0930331
  2912   6 C     3223   1 H                                       1.0931374
  2912   6 C     3224   1 H                                       1.0930673
  2911   6 C     3225   1 H                                       1.0910074
  2911   6 C     3226   1 H                                       1.0922390
  2910   6 C     3227   1 H                                       1.0929650
  2910   6 C     3228   1 H                                       1.0929070
  2909   6 C     3229   1 H                                       1.0918286
  2909   6 C     3230   1 H                                       1.0921061
  2908   6 C     3231   1 H                                       1.0927451
  2908   6 C     3232   1 H                                       1.0929886
  2907   6 C     3233   1 H                                       1.0914553
  2907   6 C     3234   1 H                                       1.0922263
  2906   6 C     3235   1 H                                       1.0926392
  2906   6 C     3236   1 H                                       1.0931716
  2905   6 C     3237   1 H                                       1.0914150
  2905   6 C     3238   1 H                                       1.0925029
  2904   6 C     3239   1 H                                       1.0928035
  2904   6 C     3240   1 H                                       1.0929995
  2903   6 C     3241   1 H                                       1.0908034
  2903   6 C     3242   1 H                                       1.0927936
  2902   6 C     3243   1 H                                       1.0930620
  2902   6 C     3244   1 H                                       1.0926395
  2901   6 C     3245   1 H                                       1.0929384
  2901   6 C     3246   1 H                                       1.0930320
  2900   6 C     3247   1 H                                       1.0910996
  2900   6 C     3248   1 H                                       1.0902550
  2899   6 C     3249   1 H                                       1.0929800
  2899   6 C     3250   1 H                                       1.0926751
  2898   6 C     3251   1 H                                       1.0928120
  2898   6 C     3252   1 H                                       1.0931451
  2897   6 C     3253   1 H                                       1.0878170
  2897   6 C     3254   1 H                                       1.0880963
  2897   6 C     3255   1 H                                       1.0863585
  3016   6 C     3256   1 H                                       1.0881808
  3016   6 C     3257   1 H                                       1.0882054
  3016   6 C     3258   1 H                                       1.0880080

 * 2 distinct bonds (by element types)

   Z      Z             #   av. dist./Å        max./Å        min./Å
   1 H    6 C        2178     1.0922795     1.0943792     1.0860108
   6 C    6 C        1071     1.5275720     1.5353254     1.5225394


optimized geometry written to: xtbopt.xyz


           -------------------------------------------------
          | TOTAL ENERGY            -3427.458546311807 Eh   |
          | GRADIENT NORM               0.000970063700 Eh/α |
          | HOMO-LUMO GAP              11.485318136157 eV   |
           -------------------------------------------------

------------------------------------------------------------------------
 * finished run on 2024/10/04 at 08:51:22.553     
------------------------------------------------------------------------
 total:
 * wall-time:     0 d,  5 h, 35 min, 10.369 sec
 *  cpu-time:     1 d,  5 h, 26 min, 52.876 sec
 * ratio c/w:     5.272 speedup
 SCF:
 * wall-time:     0 d,  0 h, 14 min,  2.571 sec
 *  cpu-time:     0 d,  1 h, 29 min, 23.580 sec
 * ratio c/w:     6.366 speedup
 ANC optimizer:
 * wall-time:     0 d,  5 h, 20 min, 25.734 sec
 *  cpu-time:     1 d,  3 h, 56 min, 31.764 sec
 * ratio c/w:     5.232 speedup

