3536
 energy: -3716.268348199633 gnorm: 0.000814747636 xtb: 6.6.1 (8d0f1dd)
C           63.63177174637091       37.40315023347988       43.90506966165718
C           62.61256343922134       38.05947628813614       42.97356505564330
C           63.27414268481517       39.19896511073760       42.20249304453322
C           61.41370103543255       38.54388040054241       43.79741274050034
C           60.28957488399422       39.25787058628128       43.03274169763564
C           59.23218275816368       39.72361267217570       44.03298635488061
C           59.67583457666380       38.34768252521273       41.96394470275902
C           58.67578724246050       39.00900099073876       41.00259926420759
C           57.97730861735027       37.90469213102450       40.20809787963082
C           59.38725797414497       40.00052598159237       40.07279861205773
C           58.47866181456516       40.83764841047062       39.16066523342822
C           59.31838704530239       41.44450885315239       38.03549290663039
C           57.75756465087728       41.95142440039560       39.93135878736603
C           56.54042610080153       42.52949619994317       39.18197391859384
C           56.62087349623688       44.05531476659255       39.11198001662362
C           55.21275512309359       42.13604887303129       39.84432505572700
C           54.91122914375936       40.63509489258295       39.89464044499750
C           54.62770899807315       40.08315528660676       38.49690909980488
C           53.69983195863167       40.33278554574353       40.79176087553067
C           53.80849617694014       40.77123564728330       42.25714385367660
C           55.05933328321557       40.19905388431826       42.92232694145090
C           52.58062592351186       40.32247341546800       43.06144046318956
C           51.21641967241139       40.82811868127939       42.57496348881206
C           51.22505677100735       42.33774420360435       42.33539531803908
C           50.12752143148628       40.51579513003585       43.61357382491859
C           49.94532977771446       39.04162446094612       43.98821667376885
C           49.50676350820556       38.21463402678741       42.77972204938555
C           48.90450772392770       38.88001051954642       45.10655565424938
C           49.21254980988346       39.58954399273861       46.43338188547663
C           50.56440880889990       39.16441243420860       46.99912654567169
C           48.07575732237051       39.28837137332746       47.41971309235038
C           48.11032807684421       40.04992940176103       48.75259235328952
C           46.92641318614848       39.61432282092792       49.61642945941588
C           48.21005140770662       41.58327383112227       48.66156909455561
C           46.95502617186808       42.40700729098531       48.32827111969836
C           46.49090409067585       42.22829263245988       46.88569227766448
C           47.28870934104967       43.87768731531708       48.62958323012407
C           46.18166538742236       44.92039264981459       48.41274682376051
C           46.71033753252105       46.27334240507566       48.88874634794406
C           44.89917077016441       44.51334550273668       49.14775927906673
C           43.77749978902525       45.56047325719924       49.22038196996589
C           42.58546375501265       44.92940726215311       49.94074379802843
C           43.37929983946871       46.07083318366588       47.82988134237839
C           42.32953978999319       47.19396395570443       47.80237194899391
C           41.93793812685740       47.47330324138532       46.35132666869380
C           42.86333008135764       48.46372710310317       48.47480466234482
C           41.87026517860829       49.62681334410180       48.62671404256320
C           42.59920873785826       50.79206011729936       49.29452521815075
C           40.64462474317161       49.18578416363523       49.43712638448746
C           39.67322146674573       50.28330361686645       49.89650594749175
C           38.57576929734054       49.61894358178274       50.72972053242705
C           39.08382501896184       51.04381841495673       48.70456713498910
C           38.20075677725003       52.25063583160746       49.05345110671267
C           37.60496053694329       52.81428261455396       47.76161213867935
C           38.97170078385337       53.35064297661329       49.80787681518288
C           38.69527228535134       53.40307126424207       51.31620471224922
C           37.29760323451138       53.96408746622375       51.58099131447620
C           39.72779549150316       54.27565765219172       52.04296452989743
C           41.12569806474905       53.66233131803671       52.21302054884622
C           41.10708740810099       52.52827171113878       53.23436656730878
C           42.08613191086707       54.78053419712900       52.63990100986426
C           43.55735369744614       54.40012834242044       52.85235033095424
C           44.28774804502872       55.59634154307080       53.45928385541193
C           44.21843682130793       53.95247103067841       51.54356749013714
C           45.65079523901426       53.40365941559077       51.71447349682930
C           46.68829813182446       54.41510005864862       51.23207250289427
C           45.79265936456767       52.07194859064729       50.96571585430277
C           47.10433944226741       51.31552598286560       51.19507394034584
C           47.20295099825024       50.15470290761504       50.20557631790463
C           47.30319472907956       50.83768608968552       52.64152179720176
C           46.23739557631461       49.88400662858072       53.21020396527829
C           45.21674334684617       50.64027671408448       54.05940677883833
C           46.88379407738753       48.79729249635629       54.07999669683930
C           47.68407568008961       47.74459287180698       53.30043290488756
C           46.77968430837528       46.58618993172996       52.88498925229501
C           48.86792733902358       47.23805206801433       54.13499943090401
C           50.03474162643077       48.23499145152316       54.17649024088865
C           50.91633960400054       48.06133763670395       52.94056194931058
C           50.89075684309739       48.08671734547298       55.43952914707887
C           50.22900356800296       48.52077000776790       56.75197783683863
C           49.87635490142008       50.00541976995528       56.72747728105990
C           51.17067158926579       48.26598593448119       57.93638495933632
C           51.37428462822663       46.80008953598367       58.33040107511049
C           50.11611673806591       46.23495152683578       58.98451112879580
C           52.57612231634914       46.68483496425097       59.28106241557794
C           53.92537340945427       46.67879938678481       58.55016183244754
C           54.24723237339599       45.28764551066832       58.01062306931025
C           55.06381946091483       47.20842411207300       59.43210724738184
C           55.24973189429235       46.46102076128363       60.74927547705426
C           56.48891871112320       46.94170722000234       61.48919091694219
H           64.47114479299067       37.00549406647819       43.33801203622347
H           64.01412802790377       38.12680776789909       44.62049577643462
H           63.17816949842037       36.58348039507067       44.45834752232160
H           56.40641960658051       47.99663628167085       61.73716844965299
H           56.62628632621922       46.38507154743262       62.41271083534654
H           57.37152203309920       46.80645534733787       60.86935634262152
H           55.99541670610208       47.15123647235390       58.86210473562903
H           54.87971891592544       48.26346298370270       59.65212908069447
H           52.54158978121088       47.52416833254944       59.97957791334781
H           52.49082701819513       45.76852154391705       59.86816833453315
H           51.58267375588676       46.20662792485822       57.43489191790727
H           49.26547879223617       46.28163328023958       58.30864677710049
H           50.26702336386168       45.19414655128045       59.26040494769159
H           49.86844484062716       46.79185382690799       59.88553241855796
H           52.13955242765517       48.71089030369783       57.69743375343208
H           50.78358521096942       48.79433953872794       58.81211672859143
H           51.20123753478250       47.04217652326658       55.52025664608409
H           51.79390075326344       48.68976822555570       55.31283336797974
H           53.85257219080914       47.35558418718426       57.68977489198539
H           53.46724089661365       44.95065220596781       57.33515499036734
H           55.18797199309049       45.29831976438604       57.46530781651460
H           54.32665768385444       44.56340092419106       58.81749646469382
H           49.30580151769846       47.95206648944043       56.90138049734350
H           49.13990761482780       50.22891735382406       55.96217124279448
H           49.46497638948895       50.31286368704468       57.68606262570439
H           50.76684155297470       50.59660675272900       56.53123827676399
H           49.63363884494216       49.25117784349816       54.15115570970063
H           50.32179200985998       48.11881769732317       52.03249303328451
H           51.67740036550826       48.83773839618596       52.89535351184474
H           51.41444032580107       47.09446664923055       52.95947380596135
H           48.51230144871268       47.02538597313742       55.14498617207197
H           49.22964514757212       46.29686444757867       53.71531823790502
H           48.07668257983205       48.19637472019092       52.38503594447996
H           47.32410681048756       45.86727037328905       52.27608562624440
H           46.39549768721398       46.06533841082847       53.76029926675511
H           45.93121365861559       46.94844214471690       52.30779118809303
H           47.52856503456274       49.29051725522230       54.80871793563770
H           46.10417710954410       48.28482346582423       54.64963228588224
H           45.70634023407339       49.39420348047282       52.38848525722675
H           44.69123239738701       51.38818647585025       53.47362051201004
H           44.48121066794204       49.95328143588988       54.46969292736432
H           45.71339921939294       51.13974967581947       54.88961864582081
H           48.27704189716638       50.34432686959675       52.67535257412509
H           47.37267104103183       51.71003571649818       53.29409117062425
H           47.93443186297222       51.99507464975574       50.97107842633558
H           46.38205373132878       49.45296353766201       50.33012815163396
H           47.16942132589497       50.52878981583237       49.18548450742480
H           48.13703996405835       49.61287930192450       50.33741610501594
H           44.96542520909767       51.41527306780038       51.23986573181296
H           45.69711970743386       52.27552370998641       49.89516573146535
H           45.82568338918645       53.22237306669756       52.77855113760918
H           47.69538643893357       54.09472925390838       51.48601616548506
H           46.63124670798499       54.53357384982331       50.15152308938085
H           46.52056381048482       55.38306504958751       51.69483133963596
H           43.59573826880479       53.17718353636743       51.09500652794706
H           44.22489182026194       54.79589235550141       50.85022231750020
H           43.60895308106497       53.57530932123068       53.57127785234959
H           45.31953930233656       55.34414657023029       53.68714896885507
H           44.27900023840578       56.43537422765022       52.76576787390408
H           43.80765690226161       55.91353925593824       54.38302307917210
H           42.04744231070983       55.57240275656609       51.88718278926757
H           41.70255892136638       55.20329277607031       53.57232743423671
H           41.45296233372179       53.26073868378111       51.24967601565910
H           40.88215738142431       52.91395118660027       54.22652447853364
H           40.35618959556299       51.78469933529455       52.98001169042180
H           42.06999722240070       52.02530238952203       53.26812155267017
H           39.81744572328802       55.21771165755513       51.49481120403470
H           39.34356845937081       54.51621518264520       53.03768955178891
H           38.73723088791077       52.38997730717856       51.72266966528811
H           36.53746132861775       53.40168419620800       51.04404141879012
H           37.06249431717668       53.92195051742999       52.64253672094962
H           37.24099319103693       55.00267073820795       51.25974315807929
H           40.04005886610779       53.21254286705141       49.63821780733524
H           38.71096361382535       54.32587389193439       49.38940897155224
H           37.36920293980952       51.90454475233354       49.67338926211296
H           36.92749570468309       53.63743431814054       47.97878167952347
H           38.39380672465413       53.18082655563548       47.10744672780762
H           37.04733934699905       52.04776828257614       47.22677564029996
H           39.89729114174486       51.40026796109514       48.06955618274287
H           38.49243496475073       50.34219980070505       48.10879936083480
H           40.21260932485005       50.98368466515921       50.53768540788151
H           39.01438095209601       49.05852768140412       51.55336325308931
H           37.89124812813446       50.35136165917481       51.14896687106054
H           37.99924895123425       48.92730475806283       50.11775247335644
H           40.07481199066946       48.46562962068740       48.84518282124877
H           41.00120728897511       48.66792305869937       50.33190405853709
H           41.54843636670328       49.94561768791406       47.63090510464849
H           43.53876443038497       50.99223121659649       48.78341783402093
H           42.00198840627640       51.69985967938271       49.26689813420547
H           42.81741966034377       50.55326381820362       50.33339195208092
H           43.22209874870226       48.21231269673498       49.47461141813466
H           43.72204161339766       48.81801317425912       47.89743127466577
H           41.43949803641239       46.84761982648197       48.33324456419864
H           41.12543448601095       48.19322531712842       46.29635516878655
H           42.78711418626352       47.87163599447486       45.79996837757542
H           41.60894478394282       46.55923013034335       45.86026827713620
H           44.26736040064572       46.43585946851927       47.31145175251960
H           42.99257897864668       45.22370145199135       47.25559320299091
H           44.13416907127508       46.39747684518183       49.82555640062695
H           41.79066788169088       45.65171586728096       50.10391188860324
H           42.18124867565142       44.10405771802345       49.35709381760148
H           42.89126204373888       44.54408581915669       50.91114677259127
H           44.49213379814265       43.62002667678940       48.66869869903442
H           45.16707679278849       44.24247605110393       50.17279087485024
H           45.97192943847023       44.99277894136577       47.34044355372083
H           46.89756350264034       46.25212255155876       49.95891114701459
H           47.64447543312215       46.51134622708520       48.38460469739689
H           46.00460845451421       47.07222511007118       48.68101540647967
H           47.59975531536010       43.94322097985314       49.67571003281990
H           48.14484284212671       44.16539747110535       48.01414310308836
H           46.14855085401747       42.09563879685488       48.99732901672862
H           45.68192744356628       42.91694023877961       46.65503135086738
H           47.30530085974746       42.41493403973939       46.19045669842494
H           46.11887071069983       41.22233435681771       46.71643800096629
H           48.54983789242439       41.92049702484995       49.64502767380137
H           48.99914887248846       41.84589776769820       47.95485222192547
H           49.01926567080495       39.72702654985555       49.27571194024899
H           46.92428677073040       40.15111553891466       50.56272188672907
H           45.98254190499918       39.80207945995875       49.11015102943578
H           46.98682393705029       38.54873174267323       49.82897897931740
H           47.12432535375802       39.47476471050299       46.92033718868247
H           48.10347197046245       38.21981216342756       47.65542399353862
H           49.22897890382063       40.66618981363817       46.24809760176184
H           50.74808631635308       39.64768088177485       47.95481871524315
H           50.59235782115753       38.08733578317536       47.14763328775499
H           51.37339255051521       39.44093419726688       46.32850481560515
H           47.94220008523961       39.24509969315342       44.73589017050355
H           48.78896506934944       37.81127068114476       45.30988882719804
H           50.89555621507868       38.63815972696898       44.34538938967565
H           49.32885498658667       37.18092327610382       43.06996343291276
H           48.58570158279105       38.61321313992757       42.35836411569008
H           50.26919692603127       38.21955308640761       42.00517604506408
H           50.37068305558401       41.08037801363641       44.51540887679953
H           49.17090552527085       40.89291884794729       43.24053942589051
H           50.96172106458771       40.33354420305169       41.63291611982670
H           51.87835594564111       42.60943940276844       41.51153453387777
H           50.22180747746096       42.68608321423208       42.09461081961072
H           51.56433714029615       42.85671948699068       43.22952030359210
H           52.56760595281506       39.23052547886011       43.07194524138947
H           52.71716715906076       40.66037881781500       44.09269659129930
H           53.86342315472276       41.86116324874230       42.30803840182872
H           55.05787568037481       40.41953405382446       43.98737643334015
H           55.10191440774363       39.11930538619745       42.79784526783344
H           55.95905592589644       40.63124985498125       42.49398357206054
H           52.82425315880425       40.80831455079915       40.34430952286919
H           53.52820914628850       39.25235771198767       40.77227634285167
H           55.78037972407432       40.10923253280841       40.29468584290251
H           55.47839899248736       40.22499238680543       37.83480822023570
H           54.41238601573194       39.01709201651624       38.54413821871811
H           53.76746313136393       40.58374394202367       38.05533171769363
H           55.23198873629273       42.52796523600144       40.86186737594111
H           54.39418901052360       42.63490924669015       39.31650636352780
H           56.54336923939963       42.15302771630585       38.15428120472379
H           57.54818902428477       44.37080513799695       38.63847796899515
H           55.79058965636175       44.45980682427539       38.53557761489127
H           56.57958302813297       44.48412215154634       40.11106640708861
H           57.43518437708207       41.57515424036462       40.90207997308624
H           58.47873116720921       42.74772832156387       40.12823627233554
H           57.73177308868932       40.18118396064484       38.70657448941468
H           59.75993467897867       40.66439732671716       37.41824393935783
H           58.70987225239373       42.07825309952909       37.39434411844901
H           60.12237657021304       42.05048824151689       38.44928844283652
H           59.98348745506640       40.69246257810028       40.67074225248441
H           60.07880819202046       39.43169818034725       39.44447961227117
H           57.91780931999663       39.53636949135110       41.58657512437695
H           57.22210042740969       38.30706419181386       39.53858403006246
H           58.70033112451469       37.34956331599318       39.61287089638445
H           57.48570318742765       37.20801842784119       40.88419143865880
H           60.47375467193925       37.91663909456346       41.35634634100226
H           59.17256397087394       37.52174379756582       42.47317728908719
H           60.71318697840153       40.14434167202759       42.55364203836292
H           58.74311401754294       38.87036192109103       44.49887154726585
H           59.68462581850355       40.32782921818306       44.81579779884049
H           58.47107877723788       40.32529362230024       43.54580611378637
H           60.98423879751694       37.68397129407152       44.32035618470834
H           61.79334499419534       39.23161771303362       44.55833929588234
H           62.27800758790591       37.30017409831137       42.25786265954195
H           64.18387592800615       38.84744668042761       41.71914185712372
H           62.61293732191977       39.58521776592292       41.43082029740484
H           63.53722235683267       40.01026801953812       42.87758871442050
H           54.37286874142684       46.60771744230561       61.38037562348877
H           55.35013000586924       45.39224497978071       60.55992304827575
C           57.84766065685924       45.12207019563587       68.70942930446603
C           58.81320464304873       45.65738474130782       67.65487830255820
C           60.12131806244788       46.08321897678037       68.32175102483110
C           58.22752364107776       46.85156431917281       66.89175524226617
C           56.89369970461707       46.61156188062093       66.17665775336692
C           56.98929443065283       45.44012821525159       65.19962434783730
C           56.44813915548669       47.86489655712231       65.40541661861987
C           56.29099123355428       49.15035478038777       66.22718651039411
C           55.37833495871331       48.94007410572991       67.43407309575412
C           55.71225297738700       50.28365438628538       65.36444996252987
C           56.59268974731703       50.79380193236871       64.21787085881655
C           57.95404281914228       51.27289497882913       64.72470104561943
C           55.91567214284559       51.96028658061261       63.47962328357723
C           54.58402691687959       51.66910264678400       62.77576594096930
C           54.70731217390865       50.48855727687835       61.81315289266934
C           54.11520259829560       52.90436717576425       61.98938170553886
C           53.63141458742735       54.10570284963108       62.81612657091223
C           52.39646964399721       53.72186616932493       63.62741530566776
C           53.32468802080125       55.28614841680304       61.87249055620532
C           53.73314880375116       56.66623647514395       62.40013112526167
C           52.91601535321273       57.07251186743024       63.62675665763693
C           53.57109394911472       57.75813903356990       61.33083131813761
C           54.40750195843889       57.62358862262877       60.05160981706342
C           55.89783163996430       57.52543948218454       60.36770576988604
C           54.15141450159929       58.83114478002805       59.13576378461983
C           52.83992356341675       58.75182700797269       58.34304411139830
C           53.04685066109883       57.93375111059058       57.06811050604590
C           52.31257732240594       60.14382235712765       57.97190609175883
C           51.74847571686157       60.97711290832535       59.12923123794990
C           50.49780353378115       60.32971238346042       59.71848341329327
C           51.41239991359222       62.39693949479433       58.64464056417457
C           52.62241272734612       63.32909860997921       58.52036150803671
C           53.08152809436438       63.79428741912348       59.90169444251393
C           52.30305605440757       64.57546898966746       57.68409225318962
C           51.94877126263154       64.35117459795916       56.21009762499451
C           52.98816553958691       63.48290967023772       55.50663644052931
C           51.83897254989208       65.69046109003851       55.46592736078404
C           50.80266935684874       66.67590998175382       56.01368343074813
C           49.40791800284319       66.05104882185397       56.02027406433223
C           50.77466644508557       67.97263153465008       55.18989447582800
C           52.06243433327076       68.80749160593068       55.18461055511045
C           52.49794882271723       69.16845134178097       56.60388637980618
C           51.85746968713678       70.10039521614110       54.37872415870837
C           51.87000239996541       69.95352981401670       52.84987311818455
C           53.28608195834089       69.66984149148337       52.35386441274160
C           51.32163343770620       71.24595820092578       52.22734271825814
C           51.03034234168067       71.21114634932995       50.72001723661008
C           50.86706087381875       72.64405362763597       50.21344760685500
C           49.77457675607029       70.38297746856138       50.42546254876139
C           49.51323795220615       70.12167289030509       48.92865295523586
C           48.22263571390534       70.80295451421522       48.47337130507571
C           49.43894912500085       68.61835942009478       48.63305169978339
C           50.80092534561478       67.91397192231605       48.73999022742336
C           51.56169618339524       68.04150506514154       47.42346307412166
C           50.60291393419884       66.44626706956392       49.13279659549355
C           51.87563607456733       65.61730287873119       49.35569735722491
C           51.45791047238435       64.17331809905353       49.62382115442434
C           52.71367909801894       66.17076883474171       50.51293917149297
C           54.04622671165541       65.43084573864238       50.74506369814628
C           54.03981675400360       64.73133574554495       52.10284401856870
C           55.24612861109647       66.38243648359905       50.65587567610833
C           55.54806663166350       66.88526612695446       49.23877377617916
C           56.10976400125544       65.76246682504171       48.36903429494988
C           56.53632755564523       68.05954985238961       49.28344811142791
C           56.50268528639914       68.94402041150281       48.02690301832106
C           57.83258216293711       69.67816332910172       47.86421276926303
C           55.33110377672392       69.92924147367901       48.11254737907802
C           54.97480708654899       70.65394221724357       46.80810394457578
C           53.89082140888836       71.69297577464344       47.10183660717054
C           54.50997753242659       69.68179908839529       45.70719014679022
C           55.53302293781687       69.45653609817123       44.58650659851195
C           55.60475803575762       70.68354289061138       43.67764390911920
C           55.16722737479328       68.22144460395860       43.74984966541292
C           55.49166470439283       66.87395682991408       44.40814598693812
C           56.99041858991247       66.58320545690053       44.33664915112591
C           54.70852248743822       65.74039623434405       43.72940547477443
C           53.24477555077238       65.63517956192706       44.18661060252721
C           53.15488054216480       64.88639888979139       45.51361243949518
C           52.42375679308903       64.93888396076007       43.09413090241176
C           50.92776034726984       64.72950086626702       43.37521889685869
C           50.32242626748119       63.96811355751245       42.19544628283342
C           50.21746177074967       66.06917359787921       43.59714414979521
C           48.73649438504069       65.99983701610834       43.99721145635428
C           48.13900780425377       67.40452149990016       43.89424136645381
C           48.55606116216989       65.45119327800502       45.41782354520613
C           47.09915355103718       65.08541321479554       45.76272508897225
C           46.66487962313777       65.77430154339582       47.05737913652598
C           46.89287490637415       63.57224094870676       45.89748000661460
C           47.13641917368899       62.79052633376637       44.60942955183717
C           46.84039978725038       61.30598460785178       44.78996433187901
H           57.55611148124050       45.91785373589041       69.39227816478635
H           56.95272182279716       44.70997688900780       68.25007122863605
H           58.32177853452622       44.33334728199846       69.29112108439770
H           47.47944592927156       60.88036821110905       45.56007195838389
H           45.80420149681487       61.15369137951904       45.08528879490528
H           47.01514472330301       60.76379534220698       43.86354677863400
H           47.54998629752597       63.19146707592002       46.68265011394026
H           45.86368652648778       63.39088569326842       46.21851627031018
H           49.18394049439287       64.57030037397831       45.55039567907095
H           48.91441830596547       66.20833387855858       46.11904881295172
H           48.20223058947569       65.35109917475124       43.29731589802574
H           48.68932141566033       68.09589758869642       44.53042521638187
H           48.18980618303681       67.77034759396575       42.87062689012769
H           47.09705642835812       67.41361569382161       44.20448435874143
H           50.74128264372128       66.62458221496273       44.37718071508192
H           50.29937805802373       66.64995506834855       42.67404359017077
H           52.51722072086596       65.51726038403109       42.17033965256113
H           52.87414464564536       63.95977765865110       42.91030672046161
H           46.44322781127102       65.43511360850896       44.95749194623777
H           46.76748029313526       66.85376840833067       46.97180262406808
H           45.62388405964700       65.55038129151809       47.28387204054916