3795
 energy: -5103.661085483978 gnorm: 0.000916756533 xtb: 6.6.1 (8d0f1dd)
C          117.53944723343783      105.68530138543071      120.50373935757311
C          118.25081203972860      106.35383089643102      121.65372891247259
C          118.32652924060253      104.54792298791837      119.85665649629495
C          119.44269436101317      105.06711098655315      118.95325213762597
H          118.75306315862764      103.91256943692898      120.63383331903073
H          117.63712103260303      103.94381523201416      119.26316196521452
C          120.05912147578618      103.96940427766602      118.08896880623149
H          119.04670587944742      105.83421362436779      118.28518452510158
H          120.22101580624741      105.52458422136665      119.56790562642360
C          121.08728414759690      103.10773307266707      118.79841559141821
H          119.27462289564724      103.30640418780234      117.71846486170328
H          120.53384154509344      104.42347112233790      117.21823596802432
N          121.63747065764434      102.18239764579317      118.00393063354507
O          118.07646046807604      107.66521215060963      121.65347772999334
O          118.86880211207719      105.76874871881560      122.51476761020356
H          118.28755691958189      108.10205343837941      122.52599445469869
H          117.27163874294271      106.44519506341801      119.77015317525516
H          116.61832299124670      105.28633042414863      120.94179178989963
C          122.66265674605289      101.24638797756066      118.40982838015400
H          121.47305076574531      102.22287749771553      117.00208039263417
C          123.94754751385193      101.46456695870302      117.61172224130286
H          122.83352617024003      101.38168281834258      119.48135740778437
H          122.29621830873830      100.22926863415684      118.23015631486996
C          125.01310472971269      100.42985237257179      117.95894802985610
H          123.69793860866598      101.40087489207669      116.55317539040388
H          124.32096102193113      102.47040493033599      117.80414171235743
C          126.24405834178155      100.49616064193914      117.05197371788738
H          125.31689730025971      100.55316465359175      119.00024785971503
H          124.58016960734695       99.43069366604242      117.86622655818661
C          126.89584166848283      101.87443419713507      116.94984590152126
H          126.97864148506751       99.77743895293290      117.42146366370790
H          125.95766409472282      100.18756073237201      116.04639921927732
C          127.26338584744060      102.45574001155147      118.30581704499771
H          127.79999298910957      101.79136635125556      116.34334668413720
H          126.22435052050473      102.57257748839233      116.45052647362996
N          127.88871474501730      103.75347596793235      118.14902542119658
H          126.36410536896365      102.56635473371881      118.91935138830833
H          127.96394265380688      101.80611692469145      118.83945829871830
C          128.65501309017012      104.29111835186352      119.09572464347298
H          127.61088143806325      104.28632852796454      117.33012037928154
O          121.37704620458931      103.22670405278686      119.98809985713821
C          129.16235366791477      105.68723535698348      118.80765994371403
C          128.07241082519644      106.71348093390002      119.13143540092027
H          130.03423602275672      105.87213620578954      119.43671805267397
H          129.45553020882153      105.77348732190825      117.76109000283546
C          128.61877951854089      108.13376872592264      119.03148902636613
H          127.23990464643157      106.59162105843137      118.43494875915545
H          127.68688474351791      106.52961272837669      120.13630163742476
C          127.56747297985409      109.19478744822752      119.38747870887967
H          129.47614969972182      108.24222745029155      119.69983587538617
H          128.97726075443325      108.31412795785016      118.01541845886619
C          127.59195829989172      109.51402650381731      120.86963463109436
H          127.80050673148820      110.11921982106600      118.85426994905629
H          126.57416999155777      108.85268121879855      119.09745159809647
N          126.78058798297725      108.78422971417385      121.63503949861928
C          126.67526579454780      108.98049720928523      123.06860170366568
H          126.20029265732404      108.05616416468295      121.23646675523069
O          128.92363273906494      103.70404916870950      120.14674119583142
C          125.47677494651303      108.21513551337706      123.60637918647089
H          127.59501741924470      108.63728554961493      123.55231035984245
H          126.59020062575549      110.05597723336759      123.26605561163177
C          125.38705052666610      108.26046347281141      125.12944691253483
H          124.56832642464285      108.63236794302095      123.16726499633072
H          125.55052194735453      107.17876627676959      123.27326547244722
C          124.13007015579308      107.52966925199171      125.59830787381662
H          126.26994594437382      107.78589972001240      125.56133398318833
H          125.38445980710708      109.30366599845763      125.45017327347438
C          123.93812307456540      107.48172256252734      127.11523645902125
H          123.25668985990754      107.99083747151573      125.13300920522560
H          124.18515260213223      106.50461407484759      125.23238588258658
C          123.95755404745077      108.85396150977837      127.79001473504425
N          123.04915802749761      109.79085924920589      127.16414917155353
H          123.65240888086117      108.75904171077869      128.83316716743349
H          124.97327320899664      109.26202796679067      127.76198425324908
C          122.08502984678026      110.46653815486378      127.80563875856534
H          123.19419423196435      109.96757531220602      126.18261990143563
O          128.32912909908674      110.38847403988548      121.32427248795443
C          121.33548236114613      111.44478545683050      126.91572706882333
C          120.30237493983860      112.24480359423633      127.70344444981743
H          122.07065834410638      112.11850482265139      126.46867817493737
H          120.85196080718059      110.89109455688865      126.10782867850612
C          119.71932949030050      113.40527058889931      126.90345404882626
H          119.50581823164723      111.57313811844500      128.02276824714642
H          120.77643408373625      112.64192599841618      128.60188053089288
C          118.60939532842474      114.11430095637374      127.68577474137889
H          120.50874589125557      114.12692169652884      126.69049924542342
H          119.31917168244955      113.04984539162619      125.95204161472621
C          118.22488219328130      115.40598782435598      126.99433317359544
H          117.72855860304288      113.47373137599041      127.74254281450195
H          118.96022612273526      114.34052803475443      128.69333687412359
N          118.93306474547592      116.46690265696361      127.39934655616887
C          118.64030518146649      117.81803980366143      126.96948910658138
H          119.57324053142175      116.36308060756556      128.17609560327253
H          122.98257672321185      106.99657323812400      127.31993849411278
H          124.72991624222476      106.88027794126103      127.56236511995985
O          121.85249139293427      110.32055359167825      128.99822391911039
O          117.36418152984109      115.46993442467748      126.12096930619649
C          118.78007505730406      118.79248363340700      128.13943964105266
H          119.31169264769733      118.10616016040460      126.15313891682990
H          117.61881356164460      117.81171143992576      126.57772673406990
C          120.19526563608805      119.36448926608026      128.25460280441112
H          118.06005417438745      119.60243897299583      128.02295515602910
H          118.53225030638106      118.25821317095156      129.05843739926684
C          120.51870092615751      119.86968386999318      129.66222588613343
H          120.91766635604948      118.58297087852122      128.01271021112370
H          120.33076052521820      120.16604161843333      127.52687199113456
C          119.47220525432519      120.80717343521539      130.26049268591964
H          120.60391627012484      119.00527706064140      130.32348281158525
H          121.49246908350908      120.36417270660151      129.65559345230989
C          119.30732375000767      122.12311922894804      129.51043183080967
H          118.50445652720704      120.30498908360471      130.30251838267247
H          119.75845236521042      121.03339082263599      131.28997886698869
N          118.20897976449029      122.86718358282586      130.09391727128744
H          120.23036376158539      122.70929913967187      129.57352702305332
H          119.07807003806602      121.96297030027679      128.45389280050267
C          117.37538422005974      123.63741545679288      129.39619176626542
H          117.97652171172984      122.63194114618238      131.04971050007404
C          116.19786616417768      124.17041749661266      130.18395528245594
C          115.22758093648324      123.03251220636329      130.53501973434825
H          116.55180727785378      124.63814965076713      131.10304567585771
H          115.69401437067272      124.92510386770039      129.58366209832926
C          114.97352076272819      122.08541867793387      129.36190141953023
H          115.65503750827496      122.44962993541790      131.35223194714189
H          114.28617804015052      123.46568278366162      130.87608730442787
C          114.33573024542935      122.76639006057228      128.14453370857817
H          115.92487205848013      121.63691295995957      129.06425020890043
H          114.32101774047455      121.27554679643006      129.68765689079760
C          114.57327806819551      121.89839255584620      126.92719943446713
H          113.26398889796239      122.88908257146191      128.30224105314807
H          114.78550100620740      123.74222501633052      127.97716956800464
N          115.70255955724615      122.17355365841904      126.26174191981377
C          116.09686638319835      121.44821286519090      125.07187581676577
H          116.32068710262676      122.89571294209973      126.60589747117264
O          117.53132449496289      123.88621478184454      128.19845902991713
C          117.59544071369181      121.16869536122185      125.01927975647293
H          115.53941275092814      120.50710306059585      125.08687158325665
H          115.80154522998285      122.01194360990057      124.17877455067119
C          117.88754491688897      120.09973761690287      123.96856991838054
H          118.12472597135935      122.08794475174739      124.77185585586717
H          117.94043276323085      120.82199118485579      125.99489858557865
C          119.37772010658270      119.89082809415865      123.69371193061804
H          117.45185001261846      119.15952903599994      124.30704571297433
H          117.38927737111851      120.37711496955684      123.03779073028809
C          119.95283375948401      120.93808698086795      122.74243877412604
H          119.93635164255360      119.91278526013825      124.63131586024535
H          119.51277359547497      118.90826945385291      123.24116039607429
C          121.43774681055895      120.72108580458047      122.47485541862613
H          119.40983739458498      120.89376226274584      121.79621492172150
H          119.81610788535814      121.93495715631752      123.16216179155717
N          121.66340197247300      119.57913552183452      121.60842052565380
H          121.88626673443686      121.59224081411116      121.98832074817136
H          121.97291758580886      120.57149230472390      123.41944344592210
O          113.81618331054221      120.99178364768854      126.59873458197642
C          122.73601902204862      119.48254187370901      120.81568582665003
H          120.90796435443411      118.91000289862299      121.51591675077177
C          122.78942285999422      118.22352562003152      119.96313733750543
C          124.14527210897970      117.52955288985879      120.10756501544516
H          121.97357913973612      117.55951809237880      120.24194113539757
H          122.64843595531806      118.51244862780227      118.91813631065645
C          124.26687147640877      116.24830479613438      119.28160498321178
H          124.91683747426279      118.23654873419233      119.79613766676742
H          124.32761378516645      117.29872106761864      121.16049411527527
C          123.43022691914771      115.10968307096039      119.86848617465485
H          123.95182189634693      116.43756748275791      118.25451354054839
H          125.31707078034022      115.94268488107775      119.26362467519117
C          123.64210246792142      113.80158126366833      119.12456849237287
H          123.68037533509676      114.97545974682862      120.92081587390801
H          122.37660184633654      115.37453461910670      119.77008220853941
N          124.16637949041525      112.82241965375803      119.87268474279267
O          123.61816688029350      120.33659505658791      120.78925046386840
C          124.42299775544460      111.49431577763565      119.36920835052497
H          124.49972006703973      113.03460488714194      120.80982654571579
C          124.03723250499992      110.39872481334797      120.35997698476206
H          123.86902155568731      111.37956402240879      118.43436423110670
H          125.49238455923152      111.39104689604812      119.13698732813960
C          122.54327895764200      110.31205062402030      120.68040800488420
H          124.35485297339652      109.45118101482394      119.92124265031447
H          124.60604719445155      110.54652208672573      121.28047986595416
C          122.09365877192202      111.32133219602808      121.73603996380407
H          121.97709951683753      110.45099040911344      119.75962193728741
H          122.33758009721738      109.30386348794200      121.04860136542904
C          120.70524447745132      111.02048624420330      122.30147305977358
H          122.81609821104425      111.31342683032983      122.55462579161579
H          122.10206396715392      112.32390508095602      121.30859565805513
C          119.59561683434988      111.24851040561521      121.27554286799902
H          120.66162845316738      109.98696897502441      122.64884560669449
H          120.53010769537219      111.66944012454202      123.16011742373021
N          118.29166875517740      111.26226208693315      121.90513534616778
H          119.72991083973616      112.20878177878465      120.77206770021151
H          119.62118875485668      110.45225709252227      120.52537144374236
C          117.36316403100784      112.19948898461192      121.69426983102306
H          118.10311712714707      110.49908488894590      122.54428956590226
O          123.31893439290859      113.64741911668959      117.95142608788576
C          116.07498892127497      112.00169092344784      122.47188331163505
C          114.83911104110722      112.29963557895492      121.62391315887406
H          116.02516377720433      110.98579580404129      122.85998286560444
H          116.09893828172586      112.69625385082558      123.31700054869765
C          113.56044002689383      112.23621820996946      122.45484443102580
H          114.94388909102702      113.29461556648647      121.19084657773240
H          114.77356302656810      111.58059072588760      120.80851829845174
C          112.35582621707771      112.82240773042940      121.72234898984381
H          113.35799257331385      111.19818064003199      122.72309353412103
H          113.70273089535851      112.80441601940315      123.37523705526434
C          111.96954062231970      112.05900922552436      120.46443733062040
H          111.49344362856478      112.80809669319007      122.39398146586373
H          112.55793053449976      113.86309333021381      121.46868748863334
N          111.08075186923841      112.71061437418940      119.69264900525222
C          110.57885491794821      112.19079889445179      118.43841846995399
H          110.77934142150860      113.63526627005550      119.95864452038609
O          117.53464461331581      113.16523358060419      120.94953586354578
C          109.05320657733023      112.08087227356728      118.42610551526769
H          110.93278272715176      112.81743437939105      117.61529111525213
H          111.02504880513739      111.20193442823511      118.31554722512763
C          108.32324710587976      113.41859397681131      118.55630950977155
H          108.76527549066394      111.60690994541530      117.48715855382963
H          108.74944668625324      111.42691601561584      119.24635831296393
C          108.50365463721101      114.33205411815031      117.34582725526059
H          107.25823446042449      113.22147574346296      118.68854660042976
H          108.66838132049324      113.93678055955549      119.45150975231294
C          107.75646006466823      115.64817422564671      117.54672881448685
H          109.56276222364599      114.54045593955678      117.19432592389400
H          108.12746215306821      113.83800309181164      116.44828993430643
C          107.95910631450153      116.62508662140083      116.39650685690046
H          106.69063265799605      115.44631088980371      117.65022311153697
H          108.11307546712628      116.12727156367716      118.45940927847225
N          109.35126321836569      117.02023402834912      116.32248637158276
H          107.68138751709449      116.17250054685427      115.44076838655666
H          107.32480970172206      117.50370690301112      116.55250574626506
C          109.92464128108517      117.53207235053966      115.23637225291844
H          109.87870717815133      116.93290928666048      117.18488953588492
O          112.39206437788700      110.94707049599852      120.19277529142553
C          111.42771774896043      117.70358812226712      115.30172768836569
C          112.06081369752674      116.77075595505535      114.26183348037536
H          111.67220596445399      118.73840367720058      115.05566303689976
H          111.79355855582941      117.48400875746184      116.30399979294124
C          111.79310602446516      115.30293978311222      114.58617245981816
H          111.62821392626243      116.99896131345255      113.28543689967209
H          113.13340333285990      116.95589086912288      114.19500318504936
C          112.19060816036072      114.35577549794816      113.45016567644527
H          112.31916754769853      115.00284803456586      115.49453147129339
H          110.72372324783193      115.17111875847583      114.76243036636251
C          113.68132114244236      114.35167356185957      113.20085368669355
H          111.88359868857555      113.34707614742310      113.72355924049586
H          111.67785319139685      114.65187516577514      112.53506114668517
N          114.33869705664557      113.40357874270290      113.87381077286898
O          109.30016640512216      117.80684387806508      114.20877894895246
C          115.76076984444690      113.16561346589097      113.79445653031431
H          113.82858745196960      112.84195017645887      114.54682943095148
C          116.04482040836763      111.67198407486674      113.67220320177957
H          116.14565645250352      113.70082748423583      112.92307509203471
H          116.25704714093881      113.56211040174070      114.68898280122977
C          117.54509021697825      111.39538726465000      113.62041407891847
H          115.58279862498516      111.15884136848024      114.51759862304466
H          115.57240597594785      111.30668825838336      112.76028245876267
C          117.89626268637443      109.92168777730322      113.81501028190175
H          117.93083557290298      111.73509731602655      112.65872726214576
H          118.04170416827277      111.97777478249586      114.39935529780445
C          117.29327493545371      109.01739457703862      112.74261796291125
H          118.98269187551891      109.81560265361955      113.79888365488853
H          117.54984919838932      109.59191298199070      114.79584581267895
C          117.76426237935506      107.57856038801488      112.92553297024939
H          116.20458656774757      109.04273479540097      112.80874275163103
H          117.58816236958178      109.37013406398984      111.75274072980690
N          117.17470194442743      106.73278105466258      111.90805366564931
H          118.85366720375427      107.53752380391688      112.85109092526884
H          117.49965757717491      107.22608092972413      113.92967492676307
C          117.61124692722397      105.55919854349189      111.44219205691374
H          116.36825595296008      107.11523103783333      111.42838068260792
O          114.23793303196121      115.14643913156497      112.44163159366275
C          118.74633975448904      104.88155945124167      112.17512594924744
C          118.21964394885480      104.15978508891368      113.42148432415591
H          119.19151842325422      104.15910892739554      111.49037446157269
H          119.50556226585924      105.60099371283772      112.47863991155997
C          119.33543794039691      103.48187640832654      114.21350135061927
H          117.73811574021416      104.88569602478326      114.07662739207029
H          117.47565779203018      103.41923132800530      113.12311555888891
C          119.94484814146645      102.28771865113347      113.48631308384221
H          120.11570569965519      104.20976751077070      114.44102926649107
H          118.93324319306436      103.13953680539265      115.16853854362999
C          121.17365000991038      101.74239670205401      114.19095639442926
H          119.21246701551961      101.48389458576303      113.39189163739455
H          120.26086610177833      102.56831189093548      112.48047015641504
N          121.69000182769648      100.64889638219880      113.62542200598840
C          122.85831185627801       99.97635326627180      114.15978191528197
H          121.20772633778508      100.20180644797702      112.84998334441796
O          117.07305239318949      105.03415305365378      110.46736027575275
C          123.50129504600214       99.08739273787431      113.10333995056450
H          123.56527596357807      100.74814621045701      114.48151116696198
H          122.56659501393560       99.39271459361964      115.04022418067944
C          124.87980005464961       98.57516666409049      113.52589165436878
H          122.83935990802885       98.25055049473495      112.87992644405713
H          123.61202119724314       99.66505487809069      112.18312108339667
C          124.90433395885123       97.80831840048988      114.84964438539573
H          125.26749226406861       97.93041276138334      112.73442253432469
H          125.55593169422841       99.42900143964238      113.61532704422446
C          124.08086089877655       96.52480641622724      114.82612629390037
H          125.94111754755346       97.55466462257644      115.08228720865480
H          124.53336437376382       98.44452834970920      115.65150858494545
C          124.17437131547021       95.76447695397992      116.14436349182094
H          123.03515552297665       96.76711748518333      114.63557410023252
H          124.43224628713864       95.87239286174577      114.02530424699805
N          123.56880765788725       96.51007785820303      117.23079366254727
H          123.67330551525417       94.79106746080478      116.05025536290923
H          125.21739525895217       95.56906736034117      116.41212382235177
C          123.82389364624569       96.24724611706786      118.51738143941040
H          122.84007892773309       97.18567694481582      116.99245195956007
O          121.67372600012814      102.28557266931708      115.17433208931607
C          122.97812426347448       97.06419380639436      119.48759067531782
C          123.26389277419146       96.71439751094461      120.94515839420599
H          123.15399064239715       98.12471004259473      119.30104543957630
H          121.92891955038671       96.86308514562012      119.25754378830418
C          122.20692630243980       97.28519431146681      121.88671093070046
H          123.29039671974493       95.62651786539922      121.03970690233513
H          124.25454283626392       97.08227846834251      121.21837550331641
C          122.45025757526979       96.88056811296562      123.34350692668343
H          122.19054240398071       98.37456233410828      121.80592419019882
H          121.22472748813168       96.91408309054601      121.58349062471689
C          121.21119608983228       97.10033449244676      124.19122190540172
H          122.67392460319770       95.81104216973253      123.37651420423332
H          123.29418212684102       97.42053580505603      123.76951342804260
N          121.39648223558643       97.77691401031144      125.32247486553609
O          124.64923204567890       95.41420162127174      118.88267545337563
C          120.33116313121562       98.05157390907262      126.26450687816903
H          122.31271333591697       98.15994943398354      125.53178216148390
C          120.35825877162829       99.50719081459765      126.71961866331925
H          119.38887476457049       97.81733175558253      125.76171425721533
H          120.43190792475352       97.38714768481397      127.13020189128530
C          119.12690351939331       99.84846317583103      127.55642596927353
H          121.26837783306787       99.67148736477689      127.29666231361917
H          120.39308699480360      100.15042603201520      125.83910615975475
C          119.09081818523673      101.31073746980735      128.00009378284409
H          118.23656584671731       99.64277305964660      126.96017302876734
H          119.09150971908988       99.20206802275598      128.43492426175027
C          120.07841761911523      101.62193958043217      129.12509177205308
H          119.29092740522248      101.94201136413052      127.13076996794969
H          118.08316116652800      101.54542687756017      128.35114409127485
C          119.96496377351633      103.07486421791835      129.60173762618413
H          119.86982386269399      100.96183985850293      129.96818410353626
H          121.10228443759564      101.43016799687668      128.79709532153291
N          120.51924407084120      104.06543421427364      128.68266069208454
H          118.90953573344871      103.31767204198380      129.75665413348401
H          120.48236040916936      103.19155859165465      130.55612631668376
H          121.53108039466504      103.98814703330839      128.66117893082810
H          120.18871788278526      103.88677375173572      127.73873488585012
O          120.10953859033779       96.66159322826978      123.85035126155215
C          113.74509077214474      130.30202634953497      124.12082763972528
C          112.60239250139165      129.60513013402061      124.81487850889859
C          113.27597191204697      131.10139973769552      122.89325839274950
C          112.59277597098834      130.23072354165421      121.83237756359058
H          112.60065154794887      131.89608096856583      123.21436265908706
H          114.15917323547681      131.57303049844305      122.45970283109479
C          111.06914249475223      130.14874702323766      122.01495309136985
H          112.80040226233361      130.63075059365940      120.83877786324564
H          113.02645733175802      129.23064623624163      121.87605877758486
C          110.50554921758018      128.85609583830245      121.44554662781549
H          110.81779293276696      130.18468853026488      123.07611293874760
H          110.58853434479424      130.99454085594729      121.52180504447391
N          110.84213724591768      127.77779322232293      122.15313386929697
O          112.01227918372730      130.33450044643095      125.73365401261643
O          112.25891097067904      128.46812398383503      124.55309590521205
H          111.22766155690366      129.85664483632249      126.16470125141824
H          114.46277212083375      129.53661005580290      123.81715009517943
H          114.21103894899794      130.98383339290086      124.83157135349072
C          110.43538333239729      126.42690522518696      121.84083016689183
H          111.40097022980862      127.90311468497435      122.98888834848152
C          109.85568950045167      125.71305827331767      123.06117934138099
H          109.69138011743721      126.50050095581780      121.04792976515159
H          111.29114115057266      125.86792112651965      121.45138521581819
C          110.89073688212393      125.40995840256448      124.14598130172340
H          109.06169791208141      126.33232805032938      123.48242427788753
H          109.41324805898689      124.77645206561918      122.71934989948929
C          111.87333836963052      124.31515195475386      123.73489162638582
H          111.43032051965834      126.32013508329140      124.39897122950150
H          110.36913718068229      125.08572339413880      125.04871449969721
C          112.92869832952135      124.04411584657892      124.80641044895533
H          111.31368399142113      123.39561707661697      123.55173601476726
H          112.38060331450538      124.58864470576624      122.80925522787054
C          114.00365353908886      125.12253250819369      124.88609759013880
H          112.44471555188750      123.96769576092152      125.78166349404620
H          113.41593313525971      123.09024155077066      124.59706999547423
N          114.79702323637706      125.17113663858791      123.67709669429446
H          113.56678440488710      126.11422058524087      125.02826011149185
H          114.65958092240378      124.92067490779176      125.74176171535491