      -----------------------------------------------------------      
     |                   =====================                   |     
     |                           x T B                           |     
     |                   =====================                   |     
     |                         S. Grimme                         |     
     |          Mulliken Center for Theoretical Chemistry        |     
     |                    University of Bonn                     |     
      -----------------------------------------------------------      

   * xtb version 6.6.1 (8d0f1dd) compiled by 'stahn@M-Bot' on 2023-08-01

   xtb is free software: you can redistribute it and/or modify it under
   the terms of the GNU Lesser General Public License as published by
   the Free Software Foundation, either version 3 of the License, or
   (at your option) any later version.
   
   xtb is distributed in the hope that it will be useful,
   but WITHOUT ANY WARRANTY; without even the implied warranty of
   MERCHANTABILITY or FITNESS FOR A PARTICULAR PURPOSE.  See the
   GNU Lesser General Public License for more details.
   
   Cite this work as:
   * C. Bannwarth, E. Caldeweyher, S. Ehlert, A. Hansen, P. Pracht,
     J. Seibert, S. Spicher, S. Grimme, WIREs Comput. Mol. Sci., 2020, 11,
     e01493. DOI: 10.1002/wcms.1493
   
   for GFN2-xTB:
   * C. Bannwarth, S. Ehlert and S. Grimme., J. Chem. Theory Comput., 2019,
     15, 1652-1671. DOI: 10.1021/acs.jctc.8b01176
   for GFN1-xTB:
   * S. Grimme, C. Bannwarth, P. Shushkov, J. Chem. Theory Comput., 2017,
     13, 1989-2009. DOI: 10.1021/acs.jctc.7b00118
   for GFN0-xTB:
   * P. Pracht, E. Caldeweyher, S. Ehlert, S. Grimme, ChemRxiv, 2019, preprint.
     DOI: 10.26434/chemrxiv.8326202.v1
   for GFN-FF:
   * S. Spicher and S. Grimme, Angew. Chem. Int. Ed., 2020, 59, 15665-15673.
     DOI: 10.1002/anie.202004239
   
   for ALPB and GBSA implicit solvation:
   * S. Ehlert, M. Stahn, S. Spicher, S. Grimme, J. Chem. Theory Comput.,
     2021, 17, 4250-4261. DOI: 10.1021/acs.jctc.1c00471
   
   for DFT-D4:
   * E. Caldeweyher, C. Bannwarth and S. Grimme, J. Chem. Phys., 2017,
     147, 034112. DOI: 10.1063/1.4993215
   * E. Caldeweyher, S. Ehlert, A. Hansen, H. Neugebauer, S. Spicher,
     C. Bannwarth and S. Grimme, J. Chem. Phys., 2019, 150, 154122.
     DOI: 10.1063/1.5090222
   * E. Caldeweyher, J.-M. Mewes, S. Ehlert and S. Grimme, Phys. Chem. Chem. Phys.
     2020, 22, 8499-8512. DOI: 10.1039/D0CP00502A
   
   for sTDA-xTB:
   * S. Grimme and C. Bannwarth, J. Chem. Phys., 2016, 145, 054103.
     DOI: 10.1063/1.4959605
   
   in the mass-spec context:
   * V. Asgeirsson, C. Bauer and S. Grimme, Chem. Sci., 2017, 8, 4879.
     DOI: 10.1039/c7sc00601b
   * J. Koopman and S. Grimme, ACS Omega 2019, 4, 12, 15120-15133.
     DOI: 10.1021/acsomega.9b02011
   
   for metadynamics refer to:
   * S. Grimme, J. Chem. Theory Comput., 2019, 155, 2847-2862
     DOI: 10.1021/acs.jctc.9b00143
   
   for SPH calculations refer to:
   * S. Spicher and S. Grimme, J. Chem. Theory Comput., 2021, 17, 1701-1714
     DOI: 10.1021/acs.jctc.0c01306
   
   with help from (in alphabetical order)
   P. Atkinson, C. Bannwarth, F. Bohle, G. Brandenburg, E. Caldeweyher
   M. Checinski, S. Dohm, S. Ehlert, S. Ehrlich, I. Gerasimov, C. Hölzer
   A. Katbashev, J. Koopman, C. Lavigne, S. Lehtola, F. März, M. Müller,
   F. Musil, H. Neugebauer, J. Pisarek, C. Plett, P. Pracht, F. Pultar,
   J. Seibert, P. Shushkov, S. Spicher, M. Stahn, M. Steiner, T. Strunk,
   J. Stückrath, T. Rose, and J. Unsleber
   
 * started run on 2024/10/08 at 16:02:48.186     

           -------------------------------------------------
          |                Calculation Setup                |
           -------------------------------------------------

          program call               : /home/abt-grimme/AK-bin/xtb input.xyz --input input.inp --opt
          hostname                   : boar015.thch.uni-bonn.de
          coordinate file            : input.xyz
          omp threads                :                     8

   ID    Z sym.   atoms
    1    6 C      1-4, 7, 10, 19, 21, 24, 27, 30, 33, 39, 42, 43, 46, 49, 52,
                  56, 59, 62, 65, 68, 71, 75, 78, 79, 82, 85, 88, 92, 98,
                  101, 104, 107, 110, 116, 118, 119, 122, 125, 128, 132, 135,
                  138, 141, 144, 147, 154, 156, 157, 160, 163, 166, 171, 173,
                  176, 179, 182, 185, 191, 194, 195, 198, 201, 204, 208, 211,
                  214, 217, 220, 223, 229, 232, 233, 236, 239, 242, 247, 249,
                  252, 255, 258, 261, 267, 270, 271, 274, 277, 280, 284, 287,
                  290, 293, 296, 299, 305, 308, 309, 312, 315, 318, 323, 325,
                  328, 331, 334, 337, 346-349, 352, 355, 364, 366, 369, 372,
                  375, 378, 384, 387, 388, 391, 394, 397, 401, 404, 407, 410,
                  413, 416, 420, 423, 424, 427, 430, 433, 437, 443, 446, 449,
                  452, 455, 461, 463, 464, 467, 470, 473, 477, 480, 483, 486,
                  489, 492, 499, 501, 502, 505, 508, 511, 516, 518, 521, 524,
                  527, 530, 536, 539, 540, 543, 546, 549, 553, 556, 559, 562,
                  565, 568, 574, 577, 578, 581, 584, 587, 592, 594, 597, 600,
                  603, 606, 612, 615, 616, 619, 622, 625, 629, 632, 635, 638,
                  641, 644, 650, 653, 654, 657, 660, 663, 668, 670, 673, 676,
                  679, 682, 691-694, 697, 700, 709, 711, 714, 717, 720, 723,
                  729, 732, 733, 736, 739, 742, 746, 749, 752, 755, 758, 761,
                  765, 768, 769, 772, 775, 778, 782, 788, 791, 794, 797, 800,
                  806, 808, 809, 812, 815, 818, 822, 825, 828, 831, 834, 837,
                  844, 846, 847, 850, 853, 856, 861, 863, 866, 869, 872, 875,
                  881, 884, 885, 888, 891, 894, 898, 901, 904, 907, 910, 913,
                  919, 922, 923, 926, 929, 932, 937, 939, 942, 945, 948, 951,
                  957, 960, 961, 964, 967, 970, 974, 977, 980, 983, 986, 989,
                  995, 998, 999, 1002, 1005, 1008, 1013, 1015, 1018, 1021,
                  1024, 1027, 1036-1039, 1042, 1045, 1054, 1056, 1059, 1062,
                  1065, 1068, 1074, 1077, 1078, 1081, 1084, 1087, 1091, 1094,
                  1097, 1100, 1103, 1106, 1110, 1113, 1114, 1117, 1120, 1123,
                  1127, 1133, 1136, 1139, 1142, 1145, 1151, 1153, 1154, 1157,
                  1160, 1163, 1167, 1170, 1173, 1176, 1179, 1182, 1189, 1191,
                  1192, 1195, 1198, 1201, 1206, 1208, 1211, 1214, 1217, 1220,
                  1226, 1229, 1230, 1233, 1236, 1239, 1243, 1246, 1249, 1252,
                  1255, 1258, 1264, 1267, 1268, 1271, 1274, 1277, 1282, 1284,
                  1287, 1290, 1293, 1296, 1302, 1305, 1306, 1309, 1312, 1315,
                  1319, 1322, 1325, 1328, 1331, 1334, 1340, 1343, 1344, 1347,
                  1350, 1353, 1358, 1360, 1363, 1366, 1369, 1372, 1381-1384,
                  1387, 1390, 1399, 1401, 1404, 1407, 1410, 1413, 1419, 1422,
                  1423, 1426, 1429, 1432, 1436, 1439, 1442, 1445, 1448, 1451,
                  1455, 1458, 1459, 1462, 1465, 1468, 1472, 1478, 1481, 1484,
                  1487, 1490, 1496, 1498, 1499, 1502, 1505, 1508, 1512, 1515,
                  1518, 1521, 1524, 1527, 1534, 1536, 1537, 1540, 1543, 1546,
                  1551, 1553, 1556, 1559, 1562, 1565, 1571, 1574, 1575, 1578,
                  1581, 1584, 1588, 1591, 1594, 1597, 1600, 1603, 1609, 1612,
                  1613, 1616, 1619, 1622, 1627, 1629, 1632, 1635, 1638, 1641,
                  1647, 1650, 1651, 1654, 1657, 1660, 1664, 1667, 1670, 1673,
                  1676, 1679, 1685, 1688, 1689, 1692, 1695, 1698, 1703, 1705,
                  1708, 1711, 1714, 1717, 1726-1729, 1732, 1735, 1744, 1746,
                  1749, 1752, 1755, 1758, 1764, 1767, 1768, 1771, 1774, 1777,
                  1781, 1784, 1787, 1790, 1793, 1796, 1800, 1803, 1804, 1807,
                  1810, 1813, 1817, 1823, 1826, 1829, 1832, 1835, 1841, 1843,
                  1844, 1847, 1850, 1853, 1857, 1860, 1863, 1866, 1869, 1872,
                  1879, 1881, 1882, 1885, 1888, 1891, 1896, 1898, 1901, 1904,
                  1907, 1910, 1916, 1919, 1920, 1923, 1926, 1929, 1933, 1936,
                  1939, 1942, 1945, 1948, 1954, 1957, 1958, 1961, 1964, 1967,
                  1972, 1974, 1977, 1980, 1983, 1986, 1992, 1995, 1996, 1999,
                  2002, 2005, 2009, 2012, 2015, 2018, 2021, 2024, 2030, 2033,
                  2034, 2037, 2040, 2043, 2048, 2050, 2053, 2056, 2059, 2062,
                  2071-2074, 2077, 2080, 2089, 2091, 2094, 2097, 2100, 2103,
                  2109, 2112, 2113, 2116, 2119, 2122, 2126, 2129, 2132, 2135,
                  2138, 2141, 2145, 2148, 2149, 2152, 2155, 2158, 2162, 2168,
                  2171, 2174, 2177, 2180, 2186, 2188, 2189, 2192, 2195, 2198,
                  2202, 2205, 2208, 2211, 2214, 2217, 2224, 2226, 2227, 2230,
                  2233, 2236, 2241, 2243, 2246, 2249, 2252, 2255, 2261, 2264,
                  2265, 2268, 2271, 2274, 2278, 2281, 2284, 2287, 2290, 2293,
                  2299, 2302, 2303, 2306, 2309, 2312, 2317, 2319, 2322, 2325,
                  2328, 2331, 2337, 2340, 2341, 2344, 2347, 2350, 2354, 2357,
                  2360, 2363, 2366, 2369, 2375, 2378, 2379, 2382, 2385, 2388,
                  2393, 2395, 2398, 2401, 2404, 2407, 2416-2419, 2422, 2425,
                  2434, 2436, 2439, 2442, 2445, 2448, 2454, 2457, 2458, 2461,
                  2464, 2467, 2471, 2474, 2477, 2480, 2483, 2486, 2490, 2493,
                  2494, 2497, 2500, 2503, 2507, 2513, 2516, 2519, 2522, 2525,
                  2531, 2533, 2534, 2537, 2540, 2543, 2547, 2550, 2553, 2556,
                  2559, 2562, 2569, 2571, 2572, 2575, 2578, 2581, 2586, 2588,
                  2591, 2594, 2597, 2600, 2606, 2609, 2610, 2613, 2616, 2619,
                  2623, 2626, 2629, 2632, 2635, 2638, 2644, 2647, 2648, 2651,
                  2654, 2657, 2662, 2664, 2667, 2670, 2673, 2676, 2682, 2685,
                  2686, 2689, 2692, 2695, 2699, 2702, 2705, 2708, 2711, 2714,
                  2720, 2723, 2724, 2727, 2730, 2733, 2738, 2740, 2743, 2746,
                  2749, 2752, 2761-2764, 2767, 2770, 2779, 2781, 2784, 2787,
                  2790, 2793, 2799, 2802, 2803, 2806, 2809, 2812, 2816, 2819,
                  2822, 2825, 2828, 2831, 2835, 2838, 2839, 2842, 2845, 2848,
                  2852, 2858, 2861, 2864, 2867, 2870, 2876, 2878, 2879, 2882,
                  2885, 2888, 2892, 2895, 2898, 2901, 2904, 2907, 2914, 2916,
                  2917, 2920, 2923, 2926, 2931, 2933, 2936, 2939, 2942, 2945,
                  2951, 2954, 2955, 2958, 2961, 2964, 2968, 2971, 2974, 2977,
                  2980, 2983, 2989, 2992, 2993, 2996, 2999, 3002, 3007, 3009,
                  3012, 3015, 3018, 3021, 3027, 3030, 3031, 3034, 3037, 3040,
                  3044, 3047, 3050, 3053, 3056, 3059, 3065, 3068, 3069, 3072,
                  3075, 3078, 3083, 3085, 3088, 3091, 3094, 3097, 3106-3109,
                  3112, 3115, 3124, 3126, 3129, 3132, 3135, 3138, 3144, 3147,
                  3148, 3151, 3154, 3157, 3161, 3164, 3167, 3170, 3173, 3176,
                  3180, 3183, 3184, 3187, 3190, 3193, 3197, 3203, 3206, 3209,
                  3212, 3215, 3221, 3223, 3224, 3227, 3230, 3233, 3237, 3240,
                  3243, 3246, 3249, 3252, 3259, 3261, 3262, 3265, 3268, 3271,
                  3276, 3278, 3281, 3284, 3287, 3290, 3296, 3299, 3300, 3303,
                  3306, 3309, 3313, 3316, 3319, 3322, 3325, 3328, 3334, 3337,
                  3338, 3341, 3344, 3347, 3352, 3354, 3357, 3360, 3363, 3366,
                  3372, 3375, 3376, 3379, 3382, 3385, 3389, 3392, 3395, 3398,
                  3401, 3404, 3410, 3413, 3414, 3417, 3420, 3423, 3428, 3430,
                  3433, 3436, 3439, 3442, 3451-3454, 3457, 3460, 3469, 3471,
                  3474, 3477, 3480, 3483, 3489, 3492, 3493, 3496, 3499, 3502,
                  3506, 3509, 3512, 3515, 3518, 3521, 3525, 3528, 3529, 3532,
                  3535, 3538, 3542, 3548, 3551, 3554, 3557, 3560, 3566, 3568,
                  3569, 3572, 3575, 3578, 3582, 3585, 3588, 3591, 3594, 3597,
                  3604, 3606, 3607, 3610, 3613, 3616, 3621, 3623, 3626, 3629,
                  3632, 3635, 3641, 3644, 3645, 3648, 3651, 3654, 3658, 3661,
                  3664, 3667, 3670, 3673, 3679, 3682, 3683, 3686, 3689, 3692,
                  3697, 3699, 3702, 3705, 3708, 3711, 3717, 3720, 3721, 3724,
                  3727, 3730, 3734, 3737, 3740, 3743, 3746, 3749, 3755, 3758,
                  3759, 3762, 3765, 3768, 3773, 3775, 3778, 3781, 3784, 3787
    2    1 H      5, 6, 8, 9, 11, 12, 16-18, 20, 22, 23, 25, 26, 28, 29, 31,
                  32, 34, 35, 37, 38, 40, 44, 45, 47, 48, 50, 51, 53, 54, 57,
                  60, 61, 63, 64, 66, 67, 69, 70, 73, 74, 76, 80, 81, 83, 84,
                  86, 87, 89, 90, 93-95, 99, 100, 102, 103, 105, 106, 108,
                  109, 111, 112, 114, 115, 117, 120, 121, 123, 124, 126, 127,
                  129, 130, 133, 136, 137, 139, 140, 142, 143, 145, 146, 148,
                  149, 151, 152, 155, 158, 159, 161, 162, 164, 165, 167, 168,
                  172, 174, 175, 177, 178, 180, 181, 183, 184, 186, 187, 189,
                  190, 192, 196, 197, 199, 200, 202, 203, 205, 206, 209, 212,
                  213, 215, 216, 218, 219, 221, 222, 224, 225, 227, 228, 230,
                  234, 235, 237, 238, 240, 241, 243, 244, 248, 250, 251, 253,
                  254, 256, 257, 259, 260, 262, 263, 265, 266, 268, 272, 273,
                  275, 276, 278, 279, 281, 282, 285, 288, 289, 291, 292, 294,
                  295, 297, 298, 300, 301, 303, 304, 306, 310, 311, 313, 314,
                  316, 317, 319, 320, 324, 326, 327, 329, 330, 332, 333, 335,
                  336, 338, 339, 341-344, 350, 351, 353, 354, 356, 357,
                  361-363, 365, 367, 368, 370, 371, 373, 374, 376, 377, 379,
                  380, 382, 383, 385, 389, 390, 392, 393, 395, 396, 398, 399,
                  402, 405, 406, 408, 409, 411, 412, 414, 415, 418, 419, 421,
                  425, 426, 428, 429, 431, 432, 434, 435, 438-440, 444, 445,
                  447, 448, 450, 451, 453, 454, 456, 457, 459, 460, 462, 465,
                  466, 468, 469, 471, 472, 474, 475, 478, 481, 482, 484, 485,
                  487, 488, 490, 491, 493, 494, 496, 497, 500, 503, 504, 506,
                  507, 509, 510, 512, 513, 517, 519, 520, 522, 523, 525, 526,
                  528, 529, 531, 532, 534, 535, 537, 541, 542, 544, 545, 547,
                  548, 550, 551, 554, 557, 558, 560, 561, 563, 564, 566, 567,
                  569, 570, 572, 573, 575, 579, 580, 582, 583, 585, 586, 588,
                  589, 593, 595, 596, 598, 599, 601, 602, 604, 605, 607, 608,
                  610, 611, 613, 617, 618, 620, 621, 623, 624, 626, 627, 630,
                  633, 634, 636, 637, 639, 640, 642, 643, 645, 646, 648, 649,
                  651, 655, 656, 658, 659, 661, 662, 664, 665, 669, 671, 672,
                  674, 675, 677, 678, 680, 681, 683, 684, 686-689, 695, 696,
                  698, 699, 701, 702, 706-708, 710, 712, 713, 715, 716, 718,
                  719, 721, 722, 724, 725, 727, 728, 730, 734, 735, 737, 738,
                  740, 741, 743, 744, 747, 750, 751, 753, 754, 756, 757, 759,
                  760, 763, 764, 766, 770, 771, 773, 774, 776, 777, 779, 780,
                  783-785, 789, 790, 792, 793, 795, 796, 798, 799, 801, 802,
                  804, 805, 807, 810, 811, 813, 814, 816, 817, 819, 820, 823,
                  826, 827, 829, 830, 832, 833, 835, 836, 838, 839, 841, 842,
                  845, 848, 849, 851, 852, 854, 855, 857, 858, 862, 864, 865,
                  867, 868, 870, 871, 873, 874, 876, 877, 879, 880, 882, 886,
                  887, 889, 890, 892, 893, 895, 896, 899, 902, 903, 905, 906,
                  908, 909, 911, 912, 914, 915, 917, 918, 920, 924, 925, 927,
                  928, 930, 931, 933, 934, 938, 940, 941, 943, 944, 946, 947,
                  949, 950, 952, 953, 955, 956, 958, 962, 963, 965, 966, 968,
                  969, 971, 972, 975, 978, 979, 981, 982, 984, 985, 987, 988,
                  990, 991, 993, 994, 996, 1000, 1001, 1003, 1004, 1006,
                  1007, 1009, 1010, 1014, 1016, 1017, 1019, 1020, 1022, 1023,
                  1025, 1026, 1028, 1029, 1031-1034, 1040, 1041, 1043, 1044,
                  1046, 1047, 1051-1053, 1055, 1057, 1058, 1060, 1061, 1063,
                  1064, 1066, 1067, 1069, 1070, 1072, 1073, 1075, 1079, 1080,
                  1082, 1083, 1085, 1086, 1088, 1089, 1092, 1095, 1096, 1098,
                  1099, 1101, 1102, 1104, 1105, 1108, 1109, 1111, 1115, 1116,
                  1118, 1119, 1121, 1122, 1124, 1125, 1128-1130, 1134, 1135,
                  1137, 1138, 1140, 1141, 1143, 1144, 1146, 1147, 1149, 1150,
                  1152, 1155, 1156, 1158, 1159, 1161, 1162, 1164, 1165, 1168,
                  1171, 1172, 1174, 1175, 1177, 1178, 1180, 1181, 1183, 1184,
                  1186, 1187, 1190, 1193, 1194, 1196, 1197, 1199, 1200, 1202,
                  1203, 1207, 1209, 1210, 1212, 1213, 1215, 1216, 1218, 1219,
                  1221, 1222, 1224, 1225, 1227, 1231, 1232, 1234, 1235, 1237,
                  1238, 1240, 1241, 1244, 1247, 1248, 1250, 1251, 1253, 1254,
                  1256, 1257, 1259, 1260, 1262, 1263, 1265, 1269, 1270, 1272,
                  1273, 1275, 1276, 1278, 1279, 1283, 1285, 1286, 1288, 1289,
                  1291, 1292, 1294, 1295, 1297, 1298, 1300, 1301, 1303, 1307,
                  1308, 1310, 1311, 1313, 1314, 1316, 1317, 1320, 1323, 1324,
                  1326, 1327, 1329, 1330, 1332, 1333, 1335, 1336, 1338, 1339,
                  1341, 1345, 1346, 1348, 1349, 1351, 1352, 1354, 1355, 1359,
                  1361, 1362, 1364, 1365, 1367, 1368, 1370, 1371, 1373, 1374,
                  1376-1379, 1385, 1386, 1388, 1389, 1391, 1392, 1396-1398,
                  1400, 1402, 1403, 1405, 1406, 1408, 1409, 1411, 1412, 1414,
                  1415, 1417, 1418, 1420, 1424, 1425, 1427, 1428, 1430, 1431,
                  1433, 1434, 1437, 1440, 1441, 1443, 1444, 1446, 1447, 1449,
                  1450, 1453, 1454, 1456, 1460, 1461, 1463, 1464, 1466, 1467,
                  1469, 1470, 1473-1475, 1479, 1480, 1482, 1483, 1485, 1486,
                  1488, 1489, 1491, 1492, 1494, 1495, 1497, 1500, 1501, 1503,
                  1504, 1506, 1507, 1509, 1510, 1513, 1516, 1517, 1519, 1520,
                  1522, 1523, 1525, 1526, 1528, 1529, 1531, 1532, 1535, 1538,
                  1539, 1541, 1542, 1544, 1545, 1547, 1548, 1552, 1554, 1555,
                  1557, 1558, 1560, 1561, 1563, 1564, 1566, 1567, 1569, 1570,
                  1572, 1576, 1577, 1579, 1580, 1582, 1583, 1585, 1586, 1589,
                  1592, 1593, 1595, 1596, 1598, 1599, 1601, 1602, 1604, 1605,
                  1607, 1608, 1610, 1614, 1615, 1617, 1618, 1620, 1621, 1623,
                  1624, 1628, 1630, 1631, 1633, 1634, 1636, 1637, 1639, 1640,
                  1642, 1643, 1645, 1646, 1648, 1652, 1653, 1655, 1656, 1658,
                  1659, 1661, 1662, 1665, 1668, 1669, 1671, 1672, 1674, 1675,
                  1677, 1678, 1680, 1681, 1683, 1684, 1686, 1690, 1691, 1693,
                  1694, 1696, 1697, 1699, 1700, 1704, 1706, 1707, 1709, 1710,
                  1712, 1713, 1715, 1716, 1718, 1719, 1721-1724, 1730, 1731,
                  1733, 1734, 1736, 1737, 1741-1743, 1745, 1747, 1748, 1750,
                  1751, 1753, 1754, 1756, 1757, 1759, 1760, 1762, 1763, 1765,
                  1769, 1770, 1772, 1773, 1775, 1776, 1778, 1779, 1782, 1785,
                  1786, 1788, 1789, 1791, 1792, 1794, 1795, 1798, 1799, 1801,
                  1805, 1806, 1808, 1809, 1811, 1812, 1814, 1815, 1818-1820,
                  1824, 1825, 1827, 1828, 1830, 1831, 1833, 1834, 1836, 1837,
                  1839, 1840, 1842, 1845, 1846, 1848, 1849, 1851, 1852, 1854,
                  1855, 1858, 1861, 1862, 1864, 1865, 1867, 1868, 1870, 1871,
                  1873, 1874, 1876, 1877, 1880, 1883, 1884, 1886, 1887, 1889,
                  1890, 1892, 1893, 1897, 1899, 1900, 1902, 1903, 1905, 1906,
                  1908, 1909, 1911, 1912, 1914, 1915, 1917, 1921, 1922, 1924,
                  1925, 1927, 1928, 1930, 1931, 1934, 1937, 1938, 1940, 1941,
                  1943, 1944, 1946, 1947, 1949, 1950, 1952, 1953, 1955, 1959,
                  1960, 1962, 1963, 1965, 1966, 1968, 1969, 1973, 1975, 1976,
                  1978, 1979, 1981, 1982, 1984, 1985, 1987, 1988, 1990, 1991,
                  1993, 1997, 1998, 2000, 2001, 2003, 2004, 2006, 2007, 2010,
                  2013, 2014, 2016, 2017, 2019, 2020, 2022, 2023, 2025, 2026,
                  2028, 2029, 2031, 2035, 2036, 2038, 2039, 2041, 2042, 2044,
                  2045, 2049, 2051, 2052, 2054, 2055, 2057, 2058, 2060, 2061,
                  2063, 2064, 2066-2069, 2075, 2076, 2078, 2079, 2081, 2082,
                  2086-2088, 2090, 2092, 2093, 2095, 2096, 2098, 2099, 2101,
                  2102, 2104, 2105, 2107, 2108, 2110, 2114, 2115, 2117, 2118,
                  2120, 2121, 2123, 2124, 2127, 2130, 2131, 2133, 2134, 2136,
                  2137, 2139, 2140, 2143, 2144, 2146, 2150, 2151, 2153, 2154,
                  2156, 2157, 2159, 2160, 2163-2165, 2169, 2170, 2172, 2173,
                  2175, 2176, 2178, 2179, 2181, 2182, 2184, 2185, 2187, 2190,
                  2191, 2193, 2194, 2196, 2197, 2199, 2200, 2203, 2206, 2207,
                  2209, 2210, 2212, 2213, 2215, 2216, 2218, 2219, 2221, 2222,
                  2225, 2228, 2229, 2231, 2232, 2234, 2235, 2237, 2238, 2242,
                  2244, 2245, 2247, 2248, 2250, 2251, 2253, 2254, 2256, 2257,
                  2259, 2260, 2262, 2266, 2267, 2269, 2270, 2272, 2273, 2275,
                  2276, 2279, 2282, 2283, 2285, 2286, 2288, 2289, 2291, 2292,
                  2294, 2295, 2297, 2298, 2300, 2304, 2305, 2307, 2308, 2310,
                  2311, 2313, 2314, 2318, 2320, 2321, 2323, 2324, 2326, 2327,
                  2329, 2330, 2332, 2333, 2335, 2336, 2338, 2342, 2343, 2345,
                  2346, 2348, 2349, 2351, 2352, 2355, 2358, 2359, 2361, 2362,
                  2364, 2365, 2367, 2368, 2370, 2371, 2373, 2374, 2376, 2380,
                  2381, 2383, 2384, 2386, 2387, 2389, 2390, 2394, 2396, 2397,
                  2399, 2400, 2402, 2403, 2405, 2406, 2408, 2409, 2411-2414,
                  2420, 2421, 2423, 2424, 2426, 2427, 2431-2433, 2435, 2437,
                  2438, 2440, 2441, 2443, 2444, 2446, 2447, 2449, 2450, 2452,
                  2453, 2455, 2459, 2460, 2462, 2463, 2465, 2466, 2468, 2469,
                  2472, 2475, 2476, 2478, 2479, 2481, 2482, 2484, 2485, 2488,
                  2489, 2491, 2495, 2496, 2498, 2499, 2501, 2502, 2504, 2505,
                  2508-2510, 2514, 2515, 2517, 2518, 2520, 2521, 2523, 2524,
                  2526, 2527, 2529, 2530, 2532, 2535, 2536, 2538, 2539, 2541,
                  2542, 2544, 2545, 2548, 2551, 2552, 2554, 2555, 2557, 2558,
                  2560, 2561, 2563, 2564, 2566, 2567, 2570, 2573, 2574, 2576,
                  2577, 2579, 2580, 2582, 2583, 2587, 2589, 2590, 2592, 2593,
                  2595, 2596, 2598, 2599, 2601, 2602, 2604, 2605, 2607, 2611,
                  2612, 2614, 2615, 2617, 2618, 2620, 2621, 2624, 2627, 2628,
                  2630, 2631, 2633, 2634, 2636, 2637, 2639, 2640, 2642, 2643,
                  2645, 2649, 2650, 2652, 2653, 2655, 2656, 2658, 2659, 2663,
                  2665, 2666, 2668, 2669, 2671, 2672, 2674, 2675, 2677, 2678,
                  2680, 2681, 2683, 2687, 2688, 2690, 2691, 2693, 2694, 2696,
                  2697, 2700, 2703, 2704, 2706, 2707, 2709, 2710, 2712, 2713,
                  2715, 2716, 2718, 2719, 2721, 2725, 2726, 2728, 2729, 2731,
                  2732, 2734, 2735, 2739, 2741, 2742, 2744, 2745, 2747, 2748,
                  2750, 2751, 2753, 2754, 2756-2759, 2765, 2766, 2768, 2769,
                  2771, 2772, 2776-2778, 2780, 2782, 2783, 2785, 2786, 2788,
                  2789, 2791, 2792, 2794, 2795, 2797, 2798, 2800, 2804, 2805,
                  2807, 2808, 2810, 2811, 2813, 2814, 2817, 2820, 2821, 2823,
                  2824, 2826, 2827, 2829, 2830, 2833, 2834, 2836, 2840, 2841,
                  2843, 2844, 2846, 2847, 2849, 2850, 2853-2855, 2859, 2860,
                  2862, 2863, 2865, 2866, 2868, 2869, 2871, 2872, 2874, 2875,
                  2877, 2880, 2881, 2883, 2884, 2886, 2887, 2889, 2890, 2893,
                  2896, 2897, 2899, 2900, 2902, 2903, 2905, 2906, 2908, 2909,
                  2911, 2912, 2915, 2918, 2919, 2921, 2922, 2924, 2925, 2927,
                  2928, 2932, 2934, 2935, 2937, 2938, 2940, 2941, 2943, 2944,
                  2946, 2947, 2949, 2950, 2952, 2956, 2957, 2959, 2960, 2962,
                  2963, 2965, 2966, 2969, 2972, 2973, 2975, 2976, 2978, 2979,
                  2981, 2982, 2984, 2985, 2987, 2988, 2990, 2994, 2995, 2997,
                  2998, 3000, 3001, 3003, 3004, 3008, 3010, 3011, 3013, 3014,
                  3016, 3017, 3019, 3020, 3022, 3023, 3025, 3026, 3028, 3032,
                  3033, 3035, 3036, 3038, 3039, 3041, 3042, 3045, 3048, 3049,
                  3051, 3052, 3054, 3055, 3057, 3058, 3060, 3061, 3063, 3064,
                  3066, 3070, 3071, 3073, 3074, 3076, 3077, 3079, 3080, 3084,
                  3086, 3087, 3089, 3090, 3092, 3093, 3095, 3096, 3098, 3099,
                  3101-3104, 3110, 3111, 3113, 3114, 3116, 3117, 3121-3123,
                  3125, 3127, 3128, 3130, 3131, 3133, 3134, 3136, 3137, 3139,
                  3140, 3142, 3143, 3145, 3149, 3150, 3152, 3153, 3155, 3156,
                  3158, 3159, 3162, 3165, 3166, 3168, 3169, 3171, 3172, 3174,
                  3175, 3178, 3179, 3181, 3185, 3186, 3188, 3189, 3191, 3192,
                  3194, 3195, 3198-3200, 3204, 3205, 3207, 3208, 3210, 3211,
                  3213, 3214, 3216, 3217, 3219, 3220, 3222, 3225, 3226, 3228,
                  3229, 3231, 3232, 3234, 3235, 3238, 3241, 3242, 3244, 3245,
                  3247, 3248, 3250, 3251, 3253, 3254, 3256, 3257, 3260, 3263,
                  3264, 3266, 3267, 3269, 3270, 3272, 3273, 3277, 3279, 3280,
                  3282, 3283, 3285, 3286, 3288, 3289, 3291, 3292, 3294, 3295,
                  3297, 3301, 3302, 3304, 3305, 3307, 3308, 3310, 3311, 3314,
                  3317, 3318, 3320, 3321, 3323, 3324, 3326, 3327, 3329, 3330,
                  3332, 3333, 3335, 3339, 3340, 3342, 3343, 3345, 3346, 3348,
                  3349, 3353, 3355, 3356, 3358, 3359, 3361, 3362, 3364, 3365,
                  3367, 3368, 3370, 3371, 3373, 3377, 3378, 3380, 3381, 3383,
                  3384, 3386, 3387, 3390, 3393, 3394, 3396, 3397, 3399, 3400,
                  3402, 3403, 3405, 3406, 3408, 3409, 3411, 3415, 3416, 3418,
                  3419, 3421, 3422, 3424, 3425, 3429, 3431, 3432, 3434, 3435,
                  3437, 3438, 3440, 3441, 3443, 3444, 3446-3449, 3455, 3456,
                  3458, 3459, 3461, 3462, 3466-3468, 3470, 3472, 3473, 3475,
                  3476, 3478, 3479, 3481, 3482, 3484, 3485, 3487, 3488, 3490,
                  3494, 3495, 3497, 3498, 3500, 3501, 3503, 3504, 3507, 3510,
                  3511, 3513, 3514, 3516, 3517, 3519, 3520, 3523, 3524, 3526,
                  3530, 3531, 3533, 3534, 3536, 3537, 3539, 3540, 3543-3545,
                  3549, 3550, 3552, 3553, 3555, 3556, 3558, 3559, 3561, 3562,
                  3564, 3565, 3567, 3570, 3571, 3573, 3574, 3576, 3577, 3579,
                  3580, 3583, 3586, 3587, 3589, 3590, 3592, 3593, 3595, 3596,
                  3598, 3599, 3601, 3602, 3605, 3608, 3609, 3611, 3612, 3614,
                  3615, 3617, 3618, 3622, 3624, 3625, 3627, 3628, 3630, 3631,
                  3633, 3634, 3636, 3637, 3639, 3640, 3642, 3646, 3647, 3649,
                  3650, 3652, 3653, 3655, 3656, 3659, 3662, 3663, 3665, 3666,
                  3668, 3669, 3671, 3672, 3674, 3675, 3677, 3678, 3680, 3684,
                  3685, 3687, 3688, 3690, 3691, 3693, 3694, 3698, 3700, 3701,
                  3703, 3704, 3706, 3707, 3709, 3710, 3712, 3713, 3715, 3716,
                  3718, 3722, 3723, 3725, 3726, 3728, 3729, 3731, 3732, 3735,
                  3738, 3739, 3741, 3742, 3744, 3745, 3747, 3748, 3750, 3751,
                  3753, 3754, 3756, 3760, 3761, 3763, 3764, 3766, 3767, 3769,
                  3770, 3774, 3776, 3777, 3779, 3780, 3782, 3783, 3785, 3786,
                  3788, 3789, 3791-3794
    3    7 N      13, 36, 55, 72, 91, 113, 131, 150, 169, 188, 207, 226, 245,
                  264, 283, 302, 321, 340, 358, 381, 400, 417, 436, 458, 476,
                  495, 514, 533, 552, 571, 590, 609, 628, 647, 666, 685, 703,
                  726, 745, 762, 781, 803, 821, 840, 859, 878, 897, 916, 935,
                  954, 973, 992, 1011, 1030, 1048, 1071, 1090, 1107, 1126,
                  1148, 1166, 1185, 1204, 1223, 1242, 1261, 1280, 1299, 1318,
                  1337, 1356, 1375, 1393, 1416, 1435, 1452, 1471, 1493, 1511,
                  1530, 1549, 1568, 1587, 1606, 1625, 1644, 1663, 1682, 1701,
                  1720, 1738, 1761, 1780, 1797, 1816, 1838, 1856, 1875, 1894,
                  1913, 1932, 1951, 1970, 1989, 2008, 2027, 2046, 2065, 2083,
                  2106, 2125, 2142, 2161, 2183, 2201, 2220, 2239, 2258, 2277,
                  2296, 2315, 2334, 2353, 2372, 2391, 2410, 2428, 2451, 2470,
                  2487, 2506, 2528, 2546, 2565, 2584, 2603, 2622, 2641, 2660,
                  2679, 2698, 2717, 2736, 2755, 2773, 2796, 2815, 2832, 2851,
                  2873, 2891, 2910, 2929, 2948, 2967, 2986, 3005, 3024, 3043,
                  3062, 3081, 3100, 3118, 3141, 3160, 3177, 3196, 3218, 3236,
                  3255, 3274, 3293, 3312, 3331, 3350, 3369, 3388, 3407, 3426,
                  3445, 3463, 3486, 3505, 3522, 3541, 3563, 3581, 3600, 3619,
                  3638, 3657, 3676, 3695, 3714, 3733, 3752, 3771, 3790
    4    8 O      14, 15, 41, 58, 77, 96, 97, 134, 153, 170, 193, 210, 231,
                  246, 269, 286, 307, 322, 345, 359, 360, 386, 403, 422, 441,
                  442, 479, 498, 515, 538, 555, 576, 591, 614, 631, 652, 667,
                  690, 704, 705, 731, 748, 767, 786, 787, 824, 843, 860, 883,
                  900, 921, 936, 959, 976, 997, 1012, 1035, 1049, 1050, 1076,
                  1093, 1112, 1131, 1132, 1169, 1188, 1205, 1228, 1245, 1266,
                  1281, 1304, 1321, 1342, 1357, 1380, 1394, 1395, 1421, 1438,
                  1457, 1476, 1477, 1514, 1533, 1550, 1573, 1590, 1611, 1626,
                  1649, 1666, 1687, 1702, 1725, 1739, 1740, 1766, 1783, 1802,
                  1821, 1822, 1859, 1878, 1895, 1918, 1935, 1956, 1971, 1994,
                  2011, 2032, 2047, 2070, 2084, 2085, 2111, 2128, 2147, 2166,
                  2167, 2204, 2223, 2240, 2263, 2280, 2301, 2316, 2339, 2356,
                  2377, 2392, 2415, 2429, 2430, 2456, 2473, 2492, 2511, 2512,
                  2549, 2568, 2585, 2608, 2625, 2646, 2661, 2684, 2701, 2722,
                  2737, 2760, 2774, 2775, 2801, 2818, 2837, 2856, 2857, 2894,
                  2913, 2930, 2953, 2970, 2991, 3006, 3029, 3046, 3067, 3082,
                  3105, 3119, 3120, 3146, 3163, 3182, 3201, 3202, 3239, 3258,
                  3275, 3298, 3315, 3336, 3351, 3374, 3391, 3412, 3427, 3450,
                  3464, 3465, 3491, 3508, 3527, 3546, 3547, 3584, 3603, 3620,
                  3643, 3660, 3681, 3696, 3719, 3736, 3757, 3772, 3795

molecular fragmentation (1/2 indicates fragments):
111111111111111111111111111111111111111111111111111111111111111111111111
111111111111111111111111111111111111111111111111111111111111111111111111
111111111111111111111111111111111111111111111111111111111111111111111111
111111111111111111111111111111111111111111111111111111111111111111111111
111111111111111111111111111111111111111111111111111111111222222222222222
222222222222222222222222222222222222222222222222222222222222222222222222
222222222222222222222222222222222222222222222222222222222222222222222222
222222222222222222222222222222222222222222222222222222222222222222222222
222222222222222222222222222222222222222222222222222222222222222222222222
222222222222222222222222222222222222222222222222222222222222222222222222
222222222222222222222222222222222222222222222222222222222222222222222222
222222222222222222222222222222222222222222222222222222222222222222222222
222222222222222222222222222222222222222222222222222222222222222222222222
222222222222222222222222222222222222222222222222222222222222222222222222
222222222222222222222222222222222222222222222222222222222222222222222222
222222222222222222222222222222222222222222222222222222222222222222222222
222222222222222222222222222222222222222222222222222222222222222222222222
222222222222222222222222222222222222222222222222222222222222222222222222
222222222222222222222222222222222222222222222222222222222222222222222222
222222222222222222222222222222222222222222222222222222222222222222222222
222222222222222222222222222222222222222222222222222222222222222222222222
222222222222222222222222222222222222222222222222222222222222222222222222
222222222222222222222222222222222222222222222222222222222222222222222222
222222222222222222222222222222222222222222222222222222222222222222222222
222222222222222222222222222222222222222222222222222222222222222222222222
222222222222222222222222222222222222222222222222222222222222222222222222
222222222222222222222222222222222222222222222222222222222222222222222222
222222222222222222222222222222222222222222222222222222222222222222222222
222222222222222222222222222222222222222222222222222222222222222222222222
222222222222222222222222222222222222222222222222222222222222222222222222
222222222222222222222222222222222222222222222222222222222222222222222222
222222222222222222222222222222222222222222222222222222222222222222222222
222222222222222222222222222222222222222222222222222222222222222222222222
222222222222222222222222222222222222222222222222222222222222222222222222
222222222222222222222222222222222222222222222222222222222222222222222222
222222222222222222222222222222222222222222222222222222222222222222222222
222222222222222222222222222222222222222222222222222222222222222222222222
222222222222222222222222222222222222222222222222222222222222222222222222
222222222222222222222222222222222222222222222222222222222222222222222222
222222222222222222222222222222222222222222222222222222222222222222222222
222222222222222222222222222222222222222222222222222222222222222222222222
222222222222222222222222222222222222222222222222222222222222222222222222
222222222222222222222222222222222222222222222222222222222222222222222222
222222222222222222222222222222222222222222222222222222222222222222222222
222222222222222222222222222222222222222222222222222222222222222222222222
222222222222222222222222222222222222222222222222222222222222222222222222
222222222222222222222222222222222222222222222222222222222222222222222222
222222222222222222222222222222222222222222222222222222222222222222222222
222222222222222222222222222222222222222222222222222222222222222222222222
222222222222222222222222222222222222222222222222222222222222222222222222
222222222222222222222222222222222222222222222222222222222222222222222222
222222222222222222222222222222222222222222222222222222222222222222222222
222222222222222222222222222222222222222222222222222
# atoms in fragment 1/2:   345  3450
 fragment masses (1/2) :     2054.86    20548.57
CMA distance (Bohr)    :  18.927
constraining FC (au)   :  0.0500

           -------------------------------------------------
          |                 G F N 2 - x T B                 |
           -------------------------------------------------

        Reference                      10.1021/acs.jctc.8b01176
      * Hamiltonian:
        H0-scaling (s, p, d)           1.850000    2.230000    2.230000
        zeta-weighting                 0.500000
      * Dispersion:
        s8                             2.700000
        a1                             0.520000
        a2                             5.000000
        s9                             5.000000
      * Repulsion:
        kExp                           1.500000    1.000000
        rExp                           1.000000
      * Coulomb:
        alpha                          2.000000
        third order                    shell-resolved
        anisotropic                    true
        a3                             3.000000
        a5                             4.000000
        cn-shift                       1.200000
        cn-exp                         4.000000
        max-rad                        5.000000


          ...................................................
          :                      SETUP                      :
          :.................................................:
          :  # basis functions                8580          :
          :  # atomic orbitals                8580          :
          :  # shells                         5390          :
          :  # electrons                      9196          :
          :  max. iterations                   250          :
          :  Hamiltonian                  GFN2-xTB          :
          :  restarted?                      false          :
          :  GBSA solvation                  false          :
          :  PC potential                    false          :
          :  electronic temp.          300.0000000     K    :
          :  accuracy                    1.0000000          :
          :  -> integral cutoff          0.2500000E+02      :
          :  -> integral neglect         0.1000000E-07      :
          :  -> SCF convergence          0.1000000E-05 Eh   :
          :  -> wf. convergence          0.1000000E-03 e    :
          :  Broyden damping             0.4000000          :
          ...................................................

 iter      E             dE          RMSdq      gap      omega  full diag
   1  -5156.3281625 -0.515633E+04  0.342E+00    4.23       0.0  T
   2  -5167.4056898 -0.110775E+02  0.185E+00    2.63       1.0  T
   3  -5167.7591871 -0.353497E+00  0.949E-01    2.80       1.0  T
   4  -5167.8381103 -0.789231E-01  0.153E-01    1.88       1.0  T
   5  -5167.8699313 -0.318211E-01  0.782E-02    2.04       1.0  T
   6  -5167.8739525 -0.402119E-02  0.347E-02    1.99       1.0  T
   7  -5167.8741510 -0.198428E-03  0.945E-03    2.01       1.0  T
   8  -5167.8741937 -0.427292E-04  0.378E-03    2.01       1.0  T
   9  -5167.8742006 -0.687106E-05  0.133E-03    2.00       1.2  T
  10  -5167.8742015 -0.987624E-06  0.469E-04    2.00       3.5  T
  11  -5167.8742017 -0.174529E-06  0.139E-04    2.00      11.7  T

   *** convergence criteria satisfied after 11 iterations ***

         #    Occupation            Energy/Eh            Energy/eV
      -------------------------------------------------------------
         1        2.0000           -0.7792603             -21.2048
       ...           ...                  ...                  ...
      4592        2.0000           -0.3505663              -9.5394
      4593        2.0000           -0.3496547              -9.5146
      4594        2.0000           -0.3489229              -9.4947
      4595        2.0000           -0.3481162              -9.4727
      4596        2.0000           -0.3464380              -9.4271
      4597        2.0000           -0.3452237              -9.3940
      4598        2.0000           -0.3425425              -9.3211 (HOMO)
      4599                         -0.2689239              -7.3178 (LUMO)
      4600                         -0.2430633              -6.6141
      4601                         -0.2423494              -6.5947
      4602                         -0.2409089              -6.5555
      4603                         -0.2396428              -6.5210
       ...                                ...                  ...
      8580                          0.6591975              17.9377
      -------------------------------------------------------------
                  HL-Gap            0.0736186 Eh            2.0033 eV
             Fermi-level           -0.3057332 Eh           -8.3194 eV

 SCC (total)                   0 d,  0 h, 33 min, 31.303 sec
 SCC setup                      ...        0 min,  0.663 sec (  0.033%)
 Dispersion                     ...        0 min,  5.164 sec (  0.257%)
 classical contributions        ...        0 min,  0.172 sec (  0.009%)
 integral evaluation            ...        0 min,  9.604 sec (  0.478%)
 iterations                     ...       27 min, 45.707 sec ( 82.817%)
 molecular gradient             ...        5 min, 11.058 sec ( 15.465%)
 printout                       ...        0 min, 18.936 sec (  0.941%)

         :::::::::::::::::::::::::::::::::::::::::::::::::::::
         ::                     SUMMARY                     ::
         :::::::::::::::::::::::::::::::::::::::::::::::::::::
         :: total energy           -5102.993824196722 Eh    ::
         :: gradient norm              0.162312090206 Eh/a0 ::
         :: HOMO-LUMO gap              2.003264166987 eV    ::
         ::.................................................::
         :: SCC energy             -5167.874201718663 Eh    ::
         :: -> isotropic ES            8.487447124531 Eh    ::
         :: -> anisotropic ES          0.004321255945 Eh    ::
         :: -> anisotropic XC          1.874574266719 Eh    ::
         :: -> dispersion             -5.349055401672 Eh    ::
         :: repulsion energy          63.961843724272 Eh    ::
         :: add. restraining           0.000000000000 Eh    ::
         :: total charge              -0.000000000017 e     ::
         :::::::::::::::::::::::::::::::::::::::::::::::::::::

      ----------------------------------------------------------- 
     |              Fast Inertial Relaxation Engine              |
      ----------------------------------------------------------- 

          ...................................................
          :                      SETUP                      :
          :.................................................:
          :   energy convergence        0.5000000E-05 Eh    :
          :   grad. convergence         0.1000000E-02 Eh/a0 :
          :   optimization log               true           :
          :   writing optlog all                1     steps :
          :   Hessian reset                    20     steps :
          :   time step scaling                 5     steps :
          :   maximium step len.        1.0000000     a0    :
          :   initial time step         0.2500000     fs    :
          :   maximum time step         1.2500000     fs    :
          :   power reset thr           0.0000000     au    :
          :   alpha parameter           0.1000000           :
          :   BFGS update                   false           :
          :   preconditioning               false           :
          ...................................................

........................................................................
.............................. CYCLE    1 ..............................
........................................................................

 iter      E             dE          RMSdq      gap      omega  full diag
   1  -5167.8934960 -0.516789E+04  0.549E-03    2.01       0.0  T
   2  -5167.8935970 -0.101090E-03  0.248E-03    2.01       1.0  T
   3  -5167.8936027 -0.561988E-05  0.117E-03    2.01       1.4  T
   4  -5167.8936028 -0.109439E-06  0.434E-04    2.01       3.7  T
   5  -5167.8936029 -0.937816E-07  0.135E-04    2.01      12.0  T
     SCC iter.                  ...       12 min, 39.529 sec
     gradient                   ...        5 min,  5.975 sec
 * total energy  : -5102.9966775 Eh     change    :  -0.2853325E-02 Eh
   gradient norm :     0.1377284 Eh/a0  converged?    E=F G=F D=F
   time step     :     0.2500000 fs     power     :   0.1389447E-06
   step length   :     0.0190226 a0     speed     :   0.1840542E-02

........................................................................
.............................. CYCLE    2 ..............................
........................................................................

 iter      E             dE          RMSdq      gap      omega  full diag
   1  -5167.9204507 -0.516792E+04  0.779E-03    2.02       0.0  T
   2  -5167.9206545 -0.203790E-03  0.352E-03    2.02       1.0  T
   3  -5167.9206657 -0.112522E-04  0.167E-03    2.02       1.0  T
   4  -5167.9206659 -0.217527E-06  0.617E-04    2.02       2.6  T
   5  -5167.9206661 -0.191004E-06  0.192E-04    2.02       8.4  T
     SCC iter.                  ...       12 min, 37.466 sec
     gradient                   ...        5 min,  5.971 sec
 * total energy  : -5102.9999324 Eh     change    :  -0.3254880E-02 Eh
   gradient norm :     0.1032421 Eh/a0  converged?    E=F G=F D=F
   time step     :     0.2500000 fs     power     :   0.1474201E-06
   step length   :     0.0270880 a0     speed     :   0.2620914E-02

........................................................................
.............................. CYCLE    3 ..............................
........................................................................

 iter      E             dE          RMSdq      gap      omega  full diag
   1  -5167.9521017 -0.516795E+04  0.945E-03    2.03       0.0  T
   2  -5167.9524007 -0.298999E-03  0.427E-03    2.03       1.0  T
   3  -5167.9524171 -0.164488E-04  0.203E-03    2.03       1.0  T
   4  -5167.9524174 -0.314736E-06  0.751E-04    2.03       2.2  T
   5  -5167.9524177 -0.286657E-06  0.234E-04    2.03       6.9  T
     SCC iter.                  ...       12 min, 35.265 sec
     gradient                   ...        5 min,  6.701 sec
 * total energy  : -5103.0026341 Eh     change    :  -0.2701662E-02 Eh
   gradient norm :     0.0635780 Eh/a0  converged?    E=F G=F D=F
   time step     :     0.2500000 fs     power     :   0.1058189E-06
   step length   :     0.0330936 a0     speed     :   0.3201988E-02

........................................................................
.............................. CYCLE    4 ..............................
........................................................................

 iter      E             dE          RMSdq      gap      omega  full diag
   1  -5167.9843114 -0.516798E+04  0.102E-02    2.04       0.0  T
   2  -5167.9846600 -0.348631E-03  0.462E-03    2.04       1.0  T
   3  -5167.9846791 -0.191171E-04  0.221E-03    2.04       1.0  T
   4  -5167.9846795 -0.359811E-06  0.815E-04    2.04       2.0  T
   5  -5167.9846799 -0.346106E-06  0.254E-04    2.04       6.4  T
     SCC iter.                  ...       12 min, 34.367 sec
     gradient                   ...        5 min,  4.751 sec
 * total energy  : -5103.0040430 Eh     change    :  -0.1408945E-02 Eh
   gradient norm :     0.0348627 Eh/a0  converged?    E=F G=F D=F
   time step     :     0.2500000 fs     power     :   0.3025087E-07
   step length   :     0.0365195 a0     speed     :   0.3533455E-02

........................................................................
.............................. CYCLE    5 ..............................
........................................................................

 iter      E             dE          RMSdq      gap      omega  full diag
   1  -5168.0096318 -0.516801E+04  0.945E-03    2.04       0.0  T
   2  -5168.0099226 -0.290825E-03  0.428E-03    2.05       1.0  T
   3  -5168.0099385 -0.159068E-04  0.207E-03    2.05       1.0  T
   4  -5168.0099388 -0.289071E-06  0.746E-04    2.05       2.2  T
   5  -5168.0099391 -0.309617E-06  0.234E-04    2.05       6.9  T
     SCC iter.                  ...       12 min, 40.459 sec
     gradient                   ...        5 min,  6.898 sec
 * total energy  : -5103.0040312 Eh     change    :   0.1180563E-04 Eh
   gradient norm :     0.0507960 Eh/a0  converged?    E=F G=F D=F
   time step     :     0.2500000 fs     power     :  -0.3933088E-07
   step length   :     0.0357811 a0     speed     :   0.3462009E-02

........................................................................
.............................. CYCLE    6 ..............................
........................................................................
 * reset velocities

 iter      E             dE          RMSdq      gap      omega  full diag
   1  -5168.0088979 -0.516801E+04  0.199E-04    2.04       0.0  T
   2  -5168.0088981 -0.119326E-06  0.852E-05    2.04      19.0  T
   3  -5168.0088981 -0.735145E-08  0.392E-05    2.04      41.4  T
     SCC iter.                  ...        7 min, 36.353 sec
     gradient                   ...        5 min,  6.578 sec
 * total energy  : -5103.0040687 Eh     change    :  -0.3750470E-04 Eh
   gradient norm :     0.0499426 Eh/a0  converged?    E=F G=F D=T
   time step     :     0.1250000 fs     power     :   0.3945069E-08
   step length   :     0.0007441 a0     speed     :   0.1440006E-03

........................................................................
.............................. CYCLE    7 ..............................
........................................................................

 iter      E             dE          RMSdq      gap      omega  full diag
   1  -5168.0068357 -0.516801E+04  0.369E-04    2.04       0.0  T
   2  -5168.0068362 -0.457410E-06  0.179E-04    2.04       9.1  T
   3  -5168.0068362 -0.257260E-07  0.900E-05    2.04      18.0  T
     SCC iter.                  ...        7 min, 36.157 sec
     gradient                   ...        5 min,  6.611 sec
 * total energy  : -5103.0041412 Eh     change    :  -0.7251439E-04 Eh
   gradient norm :     0.0483579 Eh/a0  converged?    E=F G=F D=F
   time step     :     0.1250000 fs     power     :   0.7573834E-08
   step length   :     0.0014758 a0     speed     :   0.2855785E-03

........................................................................
.............................. CYCLE    8 ..............................
........................................................................

 iter      E             dE          RMSdq      gap      omega  full diag
   1  -5168.0037920 -0.516800E+04  0.539E-04    2.04       0.0  T
   2  -5168.0037930 -0.982374E-06  0.265E-04    2.04       6.1  T
   3  -5168.0037931 -0.545870E-07  0.135E-04    2.04      12.0  T
     SCC iter.                  ...        7 min, 38.786 sec
     gradient                   ...        5 min,  5.815 sec
 * total energy  : -5103.0042443 Eh     change    :  -0.1030549E-03 Eh
   gradient norm :     0.0460618 Eh/a0  converged?    E=F G=F D=F
   time step     :     0.1250000 fs     power     :   0.1066914E-07
   step length   :     0.0021841 a0     speed     :   0.4226403E-03

........................................................................
.............................. CYCLE    9 ..............................
........................................................................

 iter      E             dE          RMSdq      gap      omega  full diag
   1  -5167.9998262 -0.516800E+04  0.699E-04    2.04       0.0  T
   2  -5167.9998279 -0.164687E-05  0.345E-04    2.04       4.7  T
   3  -5167.9998280 -0.909540E-07  0.177E-04    2.04       9.2  T
   4  -5167.9998280 -0.147156E-08  0.540E-05    2.04      30.1  T
     SCC iter.                  ...       10 min,  5.603 sec
     gradient                   ...        5 min,  4.811 sec
 * total energy  : -5103.0043716 Eh     change    :  -0.1272778E-03 Eh
   gradient norm :     0.0431368 Eh/a0  converged?    E=F G=F D=F
   time step     :     0.1250000 fs     power     :   0.1305287E-07
   step length   :     0.0028583 a0     speed     :   0.5531045E-03

........................................................................
.............................. CYCLE   10 ..............................
........................................................................

 iter      E             dE          RMSdq      gap      omega  full diag
   1  -5167.9950177 -0.516800E+04  0.851E-04    2.04       0.0  T
   2  -5167.9950202 -0.243644E-05  0.403E-04    2.04       4.0  T
   3  -5167.9950203 -0.140286E-06  0.199E-04    2.04       8.1  T
   4  -5167.9950203 -0.181171E-08  0.664E-05    2.04      24.4  T
     SCC iter.                  ...       10 min,  7.298 sec
     gradient                   ...        5 min,  6.514 sec
 * total energy  : -5103.0045156 Eh     change    :  -0.1440197E-03 Eh
   gradient norm :     0.0397522 Eh/a0  converged?    E=F G=F D=F
   time step     :     0.1250000 fs     power     :   0.1462386E-07
   step length   :     0.0034884 a0     speed     :   0.6750342E-03

........................................................................
.............................. CYCLE   11 ..............................
........................................................................

 iter      E             dE          RMSdq      gap      omega  full diag
   1  -5167.9894673 -0.516799E+04  0.975E-04    2.04       0.0  T
   2  -5167.9894705 -0.318232E-05  0.463E-04    2.04       3.5  T
   3  -5167.9894707 -0.182915E-06  0.230E-04    2.04       7.1  T
   4  -5167.9894707 -0.254659E-08  0.756E-05    2.04      21.5  T
     SCC iter.                  ...       10 min,  7.958 sec
     gradient                   ...        5 min,  9.352 sec
 * total energy  : -5103.0046684 Eh     change    :  -0.1527897E-03 Eh
   gradient norm :     0.0360838 Eh/a0  converged?    E=F G=F D=F
   time step     :     0.1250000 fs     power     :   0.1534939E-07
   step length   :     0.0040660 a0     speed     :   0.7868127E-03

........................................................................
.............................. CYCLE   12 ..............................
........................................................................

 iter      E             dE          RMSdq      gap      omega  full diag
   1  -5167.9826078 -0.516798E+04  0.119E-03    2.03       0.0  T
   2  -5167.9826125 -0.473133E-05  0.567E-04    2.03       2.9  T
   3  -5167.9826128 -0.271873E-06  0.282E-04    2.03       5.7  T
   4  -5167.9826128 -0.365708E-08  0.914E-05    2.03      17.8  T
     SCC iter.                  ...       10 min,  6.877 sec
     gradient                   ...        5 min,  7.040 sec
 * total energy  : -5103.0048385 Eh     change    :  -0.1701496E-03 Eh
   gradient norm :     0.0319976 Eh/a0  converged?    E=F G=F D=F
   time step     :     0.1375000 fs     power     :   0.1522898E-07
   step length   :     0.0050998 a0     speed     :   0.8971533E-03

........................................................................
.............................. CYCLE   13 ..............................
........................................................................

 iter      E             dE          RMSdq      gap      omega  full diag
   1  -5167.9743811 -0.516797E+04  0.141E-03    2.03       0.0  T
   2  -5167.9743876 -0.654482E-05  0.673E-04    2.03       2.4  T
   3  -5167.9743880 -0.375716E-06  0.337E-04    2.03       4.8  T
   4  -5167.9743880 -0.488672E-08  0.106E-04    2.03      15.3  T
     SCC iter.                  ...       10 min,  7.147 sec
     gradient                   ...        5 min,  7.781 sec
 * total energy  : -5103.0050175 Eh     change    :  -0.1790046E-03 Eh
   gradient norm :     0.0279562 Eh/a0  converged?    E=F G=F D=F
   time step     :     0.1512500 fs     power     :   0.1419048E-07
   step length   :     0.0062632 a0     speed     :   0.1001644E-02

........................................................................
.............................. CYCLE   14 ..............................
........................................................................

 iter      E             dE          RMSdq      gap      omega  full diag
   1  -5167.9648775 -0.516796E+04  0.161E-03    2.03       0.0  T
   2  -5167.9648857 -0.823907E-05  0.766E-04    2.03       2.1  T
   3  -5167.9648862 -0.472293E-06  0.388E-04    2.03       4.2  T
   4  -5167.9648862 -0.580167E-08  0.117E-04    2.03      13.8  T
     SCC iter.                  ...       10 min,  6.619 sec
     gradient                   ...        5 min,  7.354 sec
 * total energy  : -5103.0051951 Eh     change    :  -0.1776002E-03 Eh
   gradient norm :     0.0248447 Eh/a0  converged?    E=F G=F D=F
   time step     :     0.1663750 fs     power     :   0.1239605E-07
   step length   :     0.0075274 a0     speed     :   0.1094388E-02

........................................................................
.............................. CYCLE   15 ..............................
........................................................................

 iter      E             dE          RMSdq      gap      omega  full diag
   1  -5167.9544561 -0.516795E+04  0.172E-03    2.02       0.0  T
   2  -5167.9544652 -0.904270E-05  0.826E-04    2.02       2.0  T
   3  -5167.9544657 -0.517282E-06  0.426E-04    2.02       3.8  T
   4  -5167.9544657 -0.536056E-08  0.119E-04    2.02      13.6  T
     SCC iter.                  ...       10 min,  8.036 sec
     gradient                   ...        5 min,  7.653 sec
 * total energy  : -5103.0053636 Eh     change    :  -0.1684835E-03 Eh
   gradient norm :     0.0237506 Eh/a0  converged?    E=F G=F D=F
   time step     :     0.1830125 fs     power     :   0.1037534E-07
   step length   :     0.0088368 a0     speed     :   0.1167965E-02

........................................................................
.............................. CYCLE   16 ..............................
........................................................................

 iter      E             dE          RMSdq      gap      omega  full diag
   1  -5167.9438348 -0.516794E+04  0.170E-03    2.02       0.0  T
   2  -5167.9438429 -0.808991E-05  0.830E-04    2.02       2.0  T
   3  -5167.9438434 -0.460936E-06  0.441E-04    2.02       3.7  T
   4  -5167.9438434 -0.387718E-08  0.108E-04    2.02      15.1  T
     SCC iter.                  ...       10 min,  5.058 sec
     gradient                   ...        5 min,  7.381 sec
 * total energy  : -5103.0055248 Eh     change    :  -0.1612117E-03 Eh
   gradient norm :     0.0249101 Eh/a0  converged?    E=F G=F D=F
   time step     :     0.2013138 fs     power     :   0.8984551E-08
   step length   :     0.0101281 a0     speed     :   0.1216947E-02

........................................................................
.............................. CYCLE   17 ..............................
........................................................................

 iter      E             dE          RMSdq      gap      omega  full diag
   1  -5167.9339945 -0.516793E+04  0.154E-03    2.02       0.0  T
   2  -5167.9339998 -0.532900E-05  0.777E-04    2.02       2.1  T
   3  -5167.9340001 -0.301655E-06  0.429E-04    2.02       3.8  T
   4  -5167.9340001 -0.298678E-08  0.815E-05    2.02      19.9  T
     SCC iter.                  ...       10 min,  6.460 sec
     gradient                   ...        5 min, 10.298 sec
 * total energy  : -5103.0056951 Eh     change    :  -0.1702744E-03 Eh
   gradient norm :     0.0270704 Eh/a0  converged?    E=F G=F D=F
   time step     :     0.2214451 fs     power     :   0.8976074E-08
   step length   :     0.0114243 a0     speed     :   0.1247897E-02

........................................................................
.............................. CYCLE   18 ..............................
........................................................................

 iter      E             dE          RMSdq      gap      omega  full diag
   1  -5167.9259815 -0.516793E+04  0.131E-03    2.01       0.0  T
   2  -5167.9259835 -0.200103E-05  0.710E-04    2.01       2.3  T
   3  -5167.9259837 -0.107121E-06  0.382E-04    2.01       4.3  T
   4  -5167.9259837 -0.108075E-07  0.508E-05    2.01      32.0  T
     SCC iter.                  ...       10 min,  5.671 sec
     gradient                   ...        5 min,  7.201 sec
 * total energy  : -5103.0059022 Eh     change    :  -0.2071423E-03 Eh
   gradient norm :     0.0284472 Eh/a0  converged?    E=F G=F D=F
   time step     :     0.2435896 fs     power     :   0.1046015E-07
   step length   :     0.0129024 a0     speed     :   0.1281231E-02

........................................................................
.............................. CYCLE   19 ..............................
........................................................................

 iter      E             dE          RMSdq      gap      omega  full diag
   1  -5167.9207777 -0.516792E+04  0.124E-03    2.01       0.0  T
   2  -5167.9207780 -0.275095E-06  0.724E-04    2.01       2.2  T
   3  -5167.9207780  0.699492E-08  0.188E-04    2.01       8.7  T
     SCC iter.                  ...        7 min, 34.280 sec
     gradient                   ...        5 min,  7.018 sec
 * total energy  : -5103.0061721 Eh     change    :  -0.2698393E-03 Eh
   gradient norm :     0.0276286 Eh/a0  converged?    E=F G=F D=F
   time step     :     0.2679486 fs     power     :   0.1268666E-07
   step length   :     0.0148228 a0     speed     :   0.1338114E-02

........................................................................
.............................. CYCLE   20 ..............................
........................................................................

 iter      E             dE          RMSdq      gap      omega  full diag
   1  -5167.9191510 -0.516792E+04  0.159E-03    2.01       0.0  T
   2  -5167.9191535 -0.249142E-05  0.904E-04    2.01       1.8  T
   3  -5167.9191537 -0.150537E-06  0.462E-04    2.01       3.5  T
   4  -5167.9191537 -0.280861E-07  0.709E-05    2.01      22.9  T
     SCC iter.                  ...       10 min,  6.727 sec
     gradient                   ...        5 min,  7.071 sec
 * total energy  : -5103.0065095 Eh     change    :  -0.3374713E-03 Eh
   gradient norm :     0.0240225 Eh/a0  converged?    E=F G=F D=F
   time step     :     0.2947435 fs     power     :   0.1419043E-07
   step length   :     0.0173978 a0     speed     :   0.1427792E-02
 * RMSD in coord.:     0.0028651 a0     energy gain  -0.1268534E-01 Eh

........................................................................
.............................. CYCLE   21 ..............................
........................................................................

 iter      E             dE          RMSdq      gap      omega  full diag
   1  -5167.9206117 -0.516792E+04  0.165E-03    2.01       0.0  T
   2  -5167.9206169 -0.514838E-05  0.890E-04    2.02       1.8  T
   3  -5167.9206172 -0.324937E-06  0.491E-04    2.01       3.3  T
   4  -5167.9206172 -0.796263E-08  0.941E-05    2.01      17.2  T
     SCC iter.                  ...       10 min,  8.501 sec
     gradient                   ...        5 min,  4.848 sec
 * total energy  : -5103.0067962 Eh     change    :  -0.2866742E-03 Eh
   gradient norm :     0.0198295 Eh/a0  converged?    E=F G=F D=F
   time step     :     0.2500000 fs     power     :   0.1396937E-07
   step length   :     0.0155712 a0     speed     :   0.1506594E-02

........................................................................
.............................. CYCLE   22 ..............................
........................................................................

 iter      E             dE          RMSdq      gap      omega  full diag
   1  -5167.9240526 -0.516792E+04  0.188E-03    2.02       0.0  T
   2  -5167.9240606 -0.803805E-05  0.980E-04    2.02       1.7  T
   3  -5167.9240611 -0.492731E-06  0.536E-04    2.02       3.0  T
   4  -5167.9240611 -0.637374E-08  0.116E-04    2.02      14.0  T
     SCC iter.                  ...       10 min,  5.125 sec
     gradient                   ...        5 min, 13.744 sec
 * total energy  : -5103.0070576 Eh     change    :  -0.2614058E-03 Eh
   gradient norm :     0.0165222 Eh/a0  converged?    E=F G=F D=F
   time step     :     0.2500000 fs     power     :   0.1229996E-07
   step length   :     0.0163935 a0     speed     :   0.1586161E-02

........................................................................
.............................. CYCLE   23 ..............................
........................................................................

 iter      E             dE          RMSdq      gap      omega  full diag
   1  -5167.9281043 -0.516793E+04  0.187E-03    2.02       0.0  T
   2  -5167.9281123 -0.801647E-05  0.969E-04    2.02       1.7  T
   3  -5167.9281127 -0.482833E-06  0.530E-04    2.02       3.1  T
   4  -5167.9281128 -0.580803E-08  0.115E-04    2.02      14.1  T
     SCC iter.                  ...       10 min,  8.429 sec
     gradient                   ...        5 min,  7.643 sec
 * total energy  : -5103.0072808 Eh     change    :  -0.2231413E-03 Eh
   gradient norm :     0.0162809 Eh/a0  converged?    E=F G=F D=F
   time step     :     0.2500000 fs     power     :   0.1031012E-07
   step length   :     0.0170386 a0     speed     :   0.1648578E-02

........................................................................
.............................. CYCLE   24 ..............................
........................................................................

 iter      E             dE          RMSdq      gap      omega  full diag
   1  -5167.9311367 -0.516793E+04  0.159E-03    2.02       0.0  T
   2  -5167.9311415 -0.478517E-05  0.839E-04    2.02       1.9  T
   3  -5167.9311417 -0.283065E-06  0.464E-04    2.02       3.5  T
   4  -5167.9311417 -0.579075E-08  0.874E-05    2.02      18.6  T
     SCC iter.                  ...       10 min,  6.241 sec
     gradient                   ...        5 min,  7.776 sec
 * total energy  : -5103.0074788 Eh     change    :  -0.1980364E-03 Eh
   gradient norm :     0.0181391 Eh/a0  converged?    E=F G=F D=F
   time step     :     0.2500000 fs     power     :   0.9430675E-08
   step length   :     0.0173003 a0     speed     :   0.1673893E-02

........................................................................
.............................. CYCLE   25 ..............................
........................................................................

 iter      E             dE          RMSdq      gap      omega  full diag
   1  -5167.9321010 -0.516793E+04  0.121E-03    2.02       0.0  T
   2  -5167.9321025 -0.143178E-05  0.674E-04    2.02       2.4  T
   3  -5167.9321025 -0.746013E-07  0.346E-04    2.02       4.7  T
   4  -5167.9321026 -0.133423E-07  0.514E-05    2.02      31.6  T
     SCC iter.                  ...       10 min,  9.123 sec
     gradient                   ...        5 min,  6.138 sec
 * total energy  : -5103.0076783 Eh     change    :  -0.1995482E-03 Eh
   gradient norm :     0.0194587 Eh/a0  converged?    E=F G=F D=F
   time step     :     0.2500000 fs     power     :   0.9960584E-08
   step length   :     0.0173054 a0     speed     :   0.1674389E-02

........................................................................
.............................. CYCLE   26 ..............................
........................................................................

 iter      E             dE          RMSdq      gap      omega  full diag
   1  -5167.9304429 -0.516793E+04  0.111E-03    2.02       0.0  T
   2  -5167.9304433 -0.343519E-06  0.645E-04    2.02       2.5  T
   3  -5167.9304433 -0.214823E-08  0.196E-04    2.02       8.3  T
     SCC iter.                  ...        7 min, 35.653 sec
     gradient                   ...        5 min,  5.179 sec
 * total energy  : -5103.0079183 Eh     change    :  -0.2399057E-03 Eh
   gradient norm :     0.0189328 Eh/a0  converged?    E=F G=F D=F
   time step     :     0.2750000 fs     power     :   0.1111023E-07
   step length   :     0.0191570 a0     speed     :   0.1685041E-02

........................................................................
.............................. CYCLE   27 ..............................
........................................................................

 iter      E             dE          RMSdq      gap      omega  full diag
   1  -5167.9258095 -0.516793E+04  0.139E-03    2.02       0.0  T
   2  -5167.9258120 -0.244662E-05  0.767E-04    2.02       2.1  T
   3  -5167.9258121 -0.137577E-06  0.412E-04    2.02       3.9  T
   4  -5167.9258121 -0.126474E-07  0.634E-05    2.02      25.6  T
     SCC iter.                  ...       10 min,  7.986 sec
     gradient                   ...        5 min,  5.900 sec
 * total energy  : -5103.0082010 Eh     change    :  -0.2827033E-03 Eh
   gradient norm :     0.0164201 Eh/a0  converged?    E=F G=F D=F
   time step     :     0.3025000 fs     power     :   0.1171264E-07
   step length   :     0.0215338 a0     speed     :   0.1721909E-02

........................................................................
.............................. CYCLE   28 ..............................
........................................................................

 iter      E             dE          RMSdq      gap      omega  full diag
   1  -5167.9187584 -0.516792E+04  0.184E-03    2.02       0.0  T
   2  -5167.9187655 -0.706178E-05  0.955E-04    2.02       1.7  T
   3  -5167.9187659 -0.421113E-06  0.527E-04    2.02       3.1  T
   4  -5167.9187659 -0.526506E-08  0.108E-04    2.02      15.0  T
     SCC iter.                  ...       10 min,  7.173 sec
     gradient                   ...        5 min, 12.446 sec
 * total energy  : -5103.0085049 Eh     change    :  -0.3039437E-03 Eh
   gradient norm :     0.0140359 Eh/a0  converged?    E=F G=F D=F
   time step     :     0.3327500 fs     power     :   0.1103453E-07
   step length   :     0.0245482 a0     speed     :   0.1784503E-02

........................................................................
.............................. CYCLE   29 ..............................
........................................................................

 iter      E             dE          RMSdq      gap      omega  full diag
   1  -5167.9115981 -0.516791E+04  0.203E-03    2.01       0.0  T
   2  -5167.9116067 -0.856083E-05  0.104E-03    2.01       1.6  T
   3  -5167.9116072 -0.506156E-06  0.571E-04    2.01       2.8  T
   4  -5167.9116072 -0.609361E-08  0.120E-04    2.01      13.5  T
     SCC iter.                  ...       10 min,  8.018 sec
     gradient                   ...        5 min,  6.609 sec
 * total energy  : -5103.0088103 Eh     change    :  -0.3053827E-03 Eh
   gradient norm :     0.0149216 Eh/a0  converged?    E=F G=F D=F
   time step     :     0.3660250 fs     power     :   0.9943457E-08
   step length   :     0.0280250 a0     speed     :   0.1852035E-02

........................................................................
.............................. CYCLE   30 ..............................
........................................................................

 iter      E             dE          RMSdq      gap      omega  full diag
   1  -5167.9080347 -0.516791E+04  0.174E-03    2.01       0.0  T
   2  -5167.9080383 -0.359475E-05  0.937E-04    2.01       1.7  T
   3  -5167.9080385 -0.202025E-06  0.501E-04    2.01       3.2  T
   4  -5167.9080385 -0.219334E-07  0.817E-05    2.01      19.9  T
     SCC iter.                  ...       10 min,  5.082 sec
     gradient                   ...        5 min, 10.681 sec
 * total energy  : -5103.0091409 Eh     change    :  -0.3305992E-03 Eh
   gradient norm :     0.0167671 Eh/a0  converged?    E=F G=F D=F
   time step     :     0.4026275 fs     power     :   0.1022765E-07
   step length   :     0.0315439 a0     speed     :   0.1895079E-02

........................................................................
.............................. CYCLE   31 ..............................
........................................................................

 iter      E             dE          RMSdq      gap      omega  full diag
   1  -5167.9108277 -0.516791E+04  0.162E-03    2.01       0.0  T
   2  -5167.9108286 -0.983180E-06  0.935E-04    2.01       1.7  T
   3  -5167.9108287 -0.304162E-07  0.346E-04    2.01       4.7  T
     SCC iter.                  ...        7 min, 35.724 sec
     gradient                   ...        5 min,  7.383 sec
 * total energy  : -5103.0095401 Eh     change    :  -0.3992473E-03 Eh
   gradient norm :     0.0156076 Eh/a0  converged?    E=F G=F D=F
   time step     :     0.4428903 fs     power     :   0.1146284E-07
   step length   :     0.0355221 a0     speed     :   0.1940070E-02

........................................................................
.............................. CYCLE   32 ..............................
........................................................................

 iter      E             dE          RMSdq      gap      omega  full diag
   1  -5167.9205235 -0.516792E+04  0.223E-03    2.01       0.0  T
   2  -5167.9205311 -0.762599E-05  0.123E-03    2.02       1.3  T
   3  -5167.9205316 -0.467034E-06  0.675E-04    2.02       2.4  T
   4  -5167.9205316 -0.257696E-07  0.103E-04    2.02      15.7  T
     SCC iter.                  ...       10 min,  6.862 sec
     gradient                   ...        5 min, 18.057 sec
 * total energy  : -5103.0099959 Eh     change    :  -0.4557932E-03 Eh
   gradient norm :     0.0124729 Eh/a0  converged?    E=F G=F D=F
   time step     :     0.4871793 fs     power     :   0.1140000E-07
   step length   :     0.0406617 a0     speed     :   0.2018887E-02

........................................................................
.............................. CYCLE   33 ..............................
........................................................................

 iter      E             dE          RMSdq      gap      omega  full diag
   1  -5167.9330637 -0.516793E+04  0.259E-03    2.01       0.0  T
   2  -5167.9330740 -0.103047E-04  0.141E-03    2.02       1.2  T
   3  -5167.9330746 -0.610593E-06  0.774E-04    2.02       2.1  T
   4  -5167.9330747 -0.295722E-07  0.127E-04    2.02      12.8  T
     SCC iter.                  ...       10 min,  4.708 sec
     gradient                   ...        5 min,  7.809 sec
 * total energy  : -5103.0104587 Eh     change    :  -0.4628022E-03 Eh
   gradient norm :     0.0135819 Eh/a0  converged?    E=F G=F D=F
   time step     :     0.5358972 fs     power     :   0.1025171E-07
   step length   :     0.0469637 a0     speed     :   0.2119807E-02

........................................................................
.............................. CYCLE   34 ..............................
........................................................................

 iter      E             dE          RMSdq      gap      omega  full diag
   1  -5167.9398139 -0.516794E+04  0.231E-03    2.01       0.0  T
   2  -5167.9398152 -0.135300E-05  0.135E-03    2.01       1.2  T
   3  -5167.9398152 -0.431646E-08  0.409E-04    2.01       4.0  T
   4  -5167.9398153 -0.122022E-06  0.716E-05    2.01      22.7  T
     SCC iter.                  ...       10 min,  6.859 sec
     gradient                   ...        5 min,  5.527 sec
 * total energy  : -5103.0109662 Eh     change    :  -0.5075140E-03 Eh
   gradient norm :     0.0139418 Eh/a0  converged?    E=F G=F D=F
   time step     :     0.5894869 fs     power     :   0.1072388E-07
   step length   :     0.0533200 a0     speed     :   0.2187920E-02

........................................................................
.............................. CYCLE   35 ..............................
........................................................................

 iter      E             dE          RMSdq      gap      omega  full diag
   1  -5167.9365800 -0.516794E+04  0.311E-03    2.01       0.0  T
   2  -5167.9365919 -0.119176E-04  0.169E-03    2.01       1.0  T
   3  -5167.9365926 -0.670171E-06  0.903E-04    2.01       1.8  T
   4  -5167.9365927 -0.644077E-07  0.127E-04    2.01      12.8  T
     SCC iter.                  ...       10 min,  3.437 sec
     gradient                   ...        5 min,  6.662 sec
 * total energy  : -5103.0115385 Eh     change    :  -0.5722716E-03 Eh
   gradient norm :     0.0109077 Eh/a0  converged?    E=F G=F D=F
   time step     :     0.6484356 fs     power     :   0.1056349E-07
   step length   :     0.0608235 a0     speed     :   0.2268922E-02

........................................................................
.............................. CYCLE   36 ..............................
........................................................................

 iter      E             dE          RMSdq      gap      omega  full diag
   1  -5167.9302785 -0.516793E+04  0.354E-03    2.01       0.0  T
   2  -5167.9302942 -0.157259E-04  0.188E-03    2.01       1.0  T
   3  -5167.9302951 -0.826577E-06  0.101E-03    2.01       1.6  T
   4  -5167.9302951 -0.689606E-07  0.154E-04    2.01      10.5  T
   5  -5167.9302952 -0.385799E-07  0.651E-05    2.01      24.9  T
     SCC iter.                  ...       12 min, 36.873 sec
     gradient                   ...        5 min,  5.492 sec
 * total energy  : -5103.0121139 Eh     change    :  -0.5753545E-03 Eh
   gradient norm :     0.0130584 Eh/a0  converged?    E=F G=F D=F
   time step     :     0.7132792 fs     power     :   0.9504394E-08
   step length   :     0.0699693 a0     speed     :   0.2372812E-02

........................................................................
.............................. CYCLE   37 ..............................
........................................................................

 iter      E             dE          RMSdq      gap      omega  full diag
   1  -5167.9342870 -0.516793E+04  0.323E-03    2.01       0.0  T
   2  -5167.9342918 -0.476958E-05  0.187E-03    2.01       1.0  T
   3  -5167.9342920 -0.184106E-06  0.753E-04    2.01       2.2  T
   4  -5167.9342922 -0.235253E-06  0.103E-04    2.01      15.8  T
     SCC iter.                  ...       10 min,  7.248 sec
     gradient                   ...        5 min,  6.117 sec
 * total energy  : -5103.0127623 Eh     change    :  -0.6484058E-03 Eh
   gradient norm :     0.0108531 Eh/a0  converged?    E=F G=F D=F
   time step     :     0.7846071 fs     power     :   0.1008168E-07
   step length   :     0.0790530 a0     speed     :   0.2437144E-02

........................................................................
.............................. CYCLE   38 ..............................
........................................................................

 iter      E             dE          RMSdq      gap      omega  full diag
   1  -5167.9439907 -0.516794E+04  0.409E-03    2.01       0.0  T
   2  -5167.9440092 -0.184991E-04  0.227E-03    2.01       1.0  T
   3  -5167.9440102 -0.104419E-05  0.119E-03    2.01       1.4  T
   4  -5167.9440104 -0.133898E-06  0.184E-04    2.01       8.8  T
   5  -5167.9440104 -0.522950E-07  0.792E-05    2.01      20.5  T
     SCC iter.                  ...       12 min, 36.775 sec
     gradient                   ...        5 min,  7.657 sec
 * total energy  : -5103.0134281 Eh     change    :  -0.6658339E-03 Eh
   gradient norm :     0.0123921 Eh/a0  converged?    E=F G=F D=F
   time step     :     0.8630678 fs     power     :   0.8727843E-08
   step length   :     0.0905423 a0     speed     :   0.2537591E-02

........................................................................
.............................. CYCLE   39 ..............................
........................................................................

[...]
  3538   6 C     3541   7 N                                       1.3356443
  3541   7 N     3542   6 C                                       1.4484096
  3541   7 N     3543   1 H                                       1.0152796
  3518   6 C     3544   1 H                                       1.0920116
  3518   6 C     3545   1 H                                       1.0911337
  3525   6 C     3546   8 O                                       1.2326050
  3538   6 C     3547   8 O                                       1.2277742
  3542   6 C     3548   6 C                                       1.5272910
  3542   6 C     3549   1 H                                       1.0968380
  3542   6 C     3550   1 H                                       1.0924612
  3548   6 C     3551   6 C                                       1.5299118
  3548   6 C     3552   1 H                                       1.0913637
  3548   6 C     3553   1 H                                       1.0920377
  3551   6 C     3554   6 C                                       1.5301134
  3551   6 C     3555   1 H                                       1.0922526
  3551   6 C     3556   1 H                                       1.0920339
  3554   6 C     3557   6 C                                       1.5269210
  3554   6 C     3558   1 H                                       1.0919662
  3554   6 C     3559   1 H                                       1.0906152
  3557   6 C     3560   6 C                                       1.5264886
  3557   6 C     3561   1 H                                       1.0906875
  3557   6 C     3562   1 H                                       1.0916863
  3560   6 C     3563   7 N                                       1.4452661
  3560   6 C     3564   1 H                                       1.0972637
  3560   6 C     3565   1 H                                       1.0930182
  3563   7 N     3566   6 C                                       1.3317258
  3563   7 N     3567   1 H                                       1.0169431
  3568   6 C     3569   6 C                                       1.5314821
  3568   6 C     3570   1 H                                       1.0919563
  3568   6 C     3571   1 H                                       1.0907236
  3569   6 C     3572   6 C                                       1.5285425
  3569   6 C     3573   1 H                                       1.0913976
  3569   6 C     3574   1 H                                       1.0931831
  3572   6 C     3575   6 C                                       1.5335065
  3572   6 C     3576   1 H                                       1.0925807
  3572   6 C     3577   1 H                                       1.0904666
  3575   6 C     3579   1 H                                       1.0901162
  3575   6 C     3580   1 H                                       1.0897840
  3578   6 C     3581   7 N                                       1.3423615
  3581   7 N     3582   6 C                                       1.4435583
  3581   7 N     3583   1 H                                       1.0216366
  3566   6 C     3584   8 O                                       1.2290027
  3582   6 C     3585   6 C                                       1.5299402
  3582   6 C     3586   1 H                                       1.0925801
  3582   6 C     3587   1 H                                       1.0967935
  3585   6 C     3588   6 C                                       1.5265280
  3585   6 C     3589   1 H                                       1.0920406
  3585   6 C     3590   1 H                                       1.0907826
  3588   6 C     3591   6 C                                       1.5288476
  3588   6 C     3592   1 H                                       1.0897967
  3588   6 C     3593   1 H                                       1.0916188
  3591   6 C     3594   6 C                                       1.5285805
  3591   6 C     3595   1 H                                       1.0916786
  3591   6 C     3596   1 H                                       1.0932530
  3594   6 C     3597   6 C                                       1.5320911
  3594   6 C     3598   1 H                                       1.0919249
  3594   6 C     3599   1 H                                       1.0907309
  3597   6 C     3600   7 N                                       1.4436489
  3597   6 C     3601   1 H                                       1.0930150
  3597   6 C     3602   1 H                                       1.0916321
  3578   6 C     3603   8 O                                       1.2209708
  3600   7 N     3604   6 C                                       1.3390329
  3600   7 N     3605   1 H                                       1.0133151
  3606   6 C     3607   6 C                                       1.5295044
  3606   6 C     3608   1 H                                       1.0916632
  3606   6 C     3609   1 H                                       1.0951721
  3607   6 C     3610   6 C                                       1.5374830
  3607   6 C     3611   1 H                                       1.0909557
  3607   6 C     3612   1 H                                       1.0894526
  3610   6 C     3613   6 C                                       1.5322060
  3610   6 C     3614   1 H                                       1.0887115
  3610   6 C     3615   1 H                                       1.0911166
  3613   6 C     3617   1 H                                       1.0916127
  3613   6 C     3618   1 H                                       1.0913673
  3616   6 C     3619   7 N                                       1.3355740
  3604   6 C     3620   8 O                                       1.2283432
  3619   7 N     3621   6 C                                       1.4440265
  3619   7 N     3622   1 H                                       1.0165812
  3621   6 C     3623   6 C                                       1.5271030
  3621   6 C     3624   1 H                                       1.0927040
  3621   6 C     3625   1 H                                       1.0985667
  3623   6 C     3626   6 C                                       1.5272710
  3623   6 C     3627   1 H                                       1.0920221
  3623   6 C     3628   1 H                                       1.0918378
  3626   6 C     3629   6 C                                       1.5260683
  3626   6 C     3630   1 H                                       1.0924107
  3626   6 C     3631   1 H                                       1.0890314
  3629   6 C     3632   6 C                                       1.5291614
  3629   6 C     3633   1 H                                       1.0895411
  3629   6 C     3634   1 H                                       1.0923862
  3632   6 C     3635   6 C                                       1.5238872
  3632   6 C     3636   1 H                                       1.0920083
  3632   6 C     3637   1 H                                       1.0919829
  3635   6 C     3638   7 N                                       1.4464787
  3635   6 C     3639   1 H                                       1.0954270
  3635   6 C     3640   1 H                                       1.0928774
  3638   7 N     3641   6 C                                       1.3319448
  3638   7 N     3642   1 H                                       1.0163859
  3616   6 C     3643   8 O                                       1.2295345
  3644   6 C     3645   6 C                                       1.5325215
  3644   6 C     3646   1 H                                       1.0924802
  3644   6 C     3647   1 H                                       1.0904947
  3645   6 C     3648   6 C                                       1.5304228
  3645   6 C     3649   1 H                                       1.0911992
  3645   6 C     3650   1 H                                       1.0921878
  3648   6 C     3651   6 C                                       1.5327149
  3648   6 C     3652   1 H                                       1.0879737
  3648   6 C     3653   1 H                                       1.0912354
  3651   6 C     3655   1 H                                       1.0914962
  3651   6 C     3656   1 H                                       1.0916157
  3654   6 C     3657   7 N                                       1.3386516
  3657   7 N     3658   6 C                                       1.4453835
  3657   7 N     3659   1 H                                       1.0116780
  3641   6 C     3660   8 O                                       1.2309975
  3658   6 C     3661   6 C                                       1.5248259
  3658   6 C     3662   1 H                                       1.0900975
  3658   6 C     3663   1 H                                       1.0964274
  3661   6 C     3664   6 C                                       1.5285546
  3661   6 C     3665   1 H                                       1.0918789
  3661   6 C     3666   1 H                                       1.0931799
  3664   6 C     3667   6 C                                       1.5277235
  3664   6 C     3668   1 H                                       1.0904766
  3664   6 C     3669   1 H                                       1.0895366
  3667   6 C     3670   6 C                                       1.5247633
  3667   6 C     3671   1 H                                       1.0908288
  3667   6 C     3672   1 H                                       1.0935309
  3670   6 C     3673   6 C                                       1.5285435
  3670   6 C     3674   1 H                                       1.0938742
  3670   6 C     3675   1 H                                       1.0914638
  3673   6 C     3676   7 N                                       1.4493030
  3673   6 C     3677   1 H                                       1.0925328
  3673   6 C     3678   1 H                                       1.0943220
  3676   7 N     3679   6 C                                       1.3366982
  3676   7 N     3680   1 H                                       1.0100771
  3654   6 C     3681   8 O                                       1.2316472
  3682   6 C     3683   6 C                                       1.5268335
  3682   6 C     3684   1 H                                       1.0916880
  3682   6 C     3685   1 H                                       1.0895011
  3683   6 C     3686   6 C                                       1.5243414
  3683   6 C     3687   1 H                                       1.0914597
  3683   6 C     3688   1 H                                       1.0909179
  3686   6 C     3689   6 C                                       1.5321637
  3686   6 C     3690   1 H                                       1.0908535
  3686   6 C     3691   1 H                                       1.0905851
  3689   6 C     3693   1 H                                       1.0880484
  3689   6 C     3694   1 H                                       1.0923996
  3692   6 C     3695   7 N                                       1.3422482
  3679   6 C     3696   8 O                                       1.2217370
  3695   7 N     3697   6 C                                       1.4468462
  3695   7 N     3698   1 H                                       1.0140311
  3697   6 C     3699   6 C                                       1.5266520
  3697   6 C     3700   1 H                                       1.0979690
  3697   6 C     3701   1 H                                       1.0943813
  3699   6 C     3702   6 C                                       1.5272035
  3699   6 C     3703   1 H                                       1.0915226
  3699   6 C     3704   1 H                                       1.0910759
  3702   6 C     3705   6 C                                       1.5299978
  3702   6 C     3706   1 H                                       1.0908361
  3702   6 C     3707   1 H                                       1.0924106
  3705   6 C     3708   6 C                                       1.5253489
  3705   6 C     3709   1 H                                       1.0909357
  3705   6 C     3710   1 H                                       1.0906147
  3708   6 C     3711   6 C                                       1.5253844
  3708   6 C     3712   1 H                                       1.0917903
  3708   6 C     3713   1 H                                       1.0926947
  3711   6 C     3714   7 N                                       1.4477302
  3711   6 C     3715   1 H                                       1.0914073
  3711   6 C     3716   1 H                                       1.0942204
  3714   7 N     3717   6 C                                       1.3328098
  3714   7 N     3718   1 H                                       1.0150701
  3692   6 C     3719   8 O                                       1.2267544
  3720   6 C     3721   6 C                                       1.5335876
  3720   6 C     3722   1 H                                       1.0910766
  3720   6 C     3723   1 H                                       1.0903586
  3721   6 C     3724   6 C                                       1.5267436
  3721   6 C     3725   1 H                                       1.0921169
  3721   6 C     3726   1 H                                       1.0919115
  3724   6 C     3727   6 C                                       1.5305639
  3724   6 C     3728   1 H                                       1.0897313
  3724   6 C     3729   1 H                                       1.0923664
  3727   6 C     3731   1 H                                       1.0917534
  3727   6 C     3732   1 H                                       1.0919743
  3730   6 C     3733   7 N                                       1.3322835
  3733   7 N     3734   6 C                                       1.4477553
  3733   7 N     3735   1 H                                       1.0174403
  3717   6 C     3736   8 O                                       1.2278068
  3734   6 C     3737   6 C                                       1.5200964
  3734   6 C     3738   1 H                                       1.0961311
  3734   6 C     3739   1 H                                       1.0954144
  3737   6 C     3740   6 C                                       1.5253074
  3737   6 C     3741   1 H                                       1.0920431
  3737   6 C     3742   1 H                                       1.0901704
  3740   6 C     3743   6 C                                       1.5247312
  3740   6 C     3744   1 H                                       1.0910142
  3740   6 C     3745   1 H                                       1.0916399
  3743   6 C     3746   6 C                                       1.5247153
  3743   6 C     3747   1 H                                       1.0912995
  3743   6 C     3748   1 H                                       1.0902070
  3746   6 C     3749   6 C                                       1.5225043
  3746   6 C     3750   1 H                                       1.0902276
  3746   6 C     3751   1 H                                       1.0906325
  3749   6 C     3752   7 N                                       1.4479106
  3749   6 C     3753   1 H                                       1.0974410
  3749   6 C     3754   1 H                                       1.0951476
  3752   7 N     3755   6 C                                       1.3374387
  3752   7 N     3756   1 H                                       1.0158700
  3730   6 C     3757   8 O                                       1.2298793
  3758   6 C     3759   6 C                                       1.5313401
  3758   6 C     3760   1 H                                       1.0920113
  3758   6 C     3761   1 H                                       1.0894570
  3759   6 C     3762   6 C                                       1.5270624
  3759   6 C     3763   1 H                                       1.0918043
  3759   6 C     3764   1 H                                       1.0893989
  3762   6 C     3765   6 C                                       1.5328253
  3762   6 C     3766   1 H                                       1.0925111
  3762   6 C     3767   1 H                                       1.0913758
  3765   6 C     3769   1 H                                       1.0916609
  3765   6 C     3770   1 H                                       1.0906054
  3768   6 C     3771   7 N                                       1.3333489
  3755   6 C     3772   8 O                                       1.2274606
  3771   7 N     3773   6 C                                       1.4484158
  3771   7 N     3774   1 H                                       1.0196070
  3773   6 C     3775   6 C                                       1.5233958
  3773   6 C     3776   1 H                                       1.0970306
  3773   6 C     3777   1 H                                       1.0932251
  3775   6 C     3778   6 C                                       1.5267243
  3775   6 C     3779   1 H                                       1.0904793
  3775   6 C     3780   1 H                                       1.0920412
  3778   6 C     3781   6 C                                       1.5286935
  3778   6 C     3782   1 H                                       1.0925258
  3778   6 C     3783   1 H                                       1.0918938
  3781   6 C     3784   6 C                                       1.5260086
  3781   6 C     3785   1 H                                       1.0925618
  3781   6 C     3786   1 H                                       1.0915314
  3784   6 C     3787   6 C                                       1.5338392
  3784   6 C     3788   1 H                                       1.0925406
  3784   6 C     3789   1 H                                       1.0928110
  3787   6 C     3790   7 N                                       1.4519355
  3787   6 C     3791   1 H                                       1.0942679
  3787   6 C     3792   1 H                                       1.0930468
  3790   7 N     3793   1 H                                       1.0168973
  3790   7 N     3794   1 H                                       1.0153142
  3768   6 C     3795   8 O                                       1.2271802

 * 6 distinct bonds (by element types)

   Z      Z             #   av. dist./Å        max./Å        min./Å
   1 H    6 C        1980     1.0920295     1.1036867     1.0865580
   6 C    6 C         791     1.5285160     1.5398390     1.5193817
   1 H    7 N         209     1.0157443     1.0282487     1.0067393
   6 C    7 N         385     1.3936452     1.4605506     1.3273321
   1 H    8 O           6     0.9850038     0.9972770     0.9704937
   6 C    8 O         209     1.2312729     1.3411483     1.2025120


optimized geometry written to: xtbopt.xyz


           -------------------------------------------------
          | TOTAL ENERGY            -5103.047196241286 Eh   |
          | GRADIENT NORM               0.000975624985 Eh/α |
          | HOMO-LUMO GAP               1.933022637805 eV   |
           -------------------------------------------------

------------------------------------------------------------------------
 * finished run on 2024/10/15 at 17:19:02.901     
------------------------------------------------------------------------
 total:
 * wall-time:     7 d,  1 h, 16 min, 14.713 sec
 *  cpu-time:    43 d,  6 h, 58 min, 14.540 sec
 * ratio c/w:     6.138 speedup
 SCF:
 * wall-time:     0 d,  0 h, 33 min, 31.476 sec
 *  cpu-time:     0 d,  3 h, 53 min, 35.588 sec
 * ratio c/w:     6.968 speedup
 ANC optimizer:
 * wall-time:     7 d,  0 h, 41 min, 37.509 sec
 *  cpu-time:    43 d,  3 h,  3 min, 13.044 sec
 * ratio c/w:     6.136 speedup

