3795
 energy: -5103.047196241286 gnorm: 0.000975624985 xtb: 6.6.1 (8d0f1dd)
C          117.56185539476066      105.67845216083714      120.55958546209729
C          118.29237930173574      106.37759881701325      121.67643715203809
C          118.37086421747351      104.57383215155481      119.88106953766754
C          119.43925515205675      105.14030373341636      118.94815475017606
H          118.84550307954517      103.95112417838922      120.63918556031275
H          117.68451890052239      103.94915763201132      119.30433204473377
C          120.05224811918218      104.07182799264633      118.04553800128637
H          118.99791826729928      105.90780257497831      118.30859780875781
H          120.22505443843784      105.60778013639387      119.54402816330828
C          121.07220172914678      103.18207533104804      118.73530387284191
H          119.26277390992163      103.42620682660719      117.65347830497780
H          120.52700229104839      104.55363613468094      117.19008615280130
N          121.62231005576800      102.27538500108972      117.91924998510781
O          118.12968187925240      107.69486816679242      121.63367529141487
O          118.91404136437831      105.82133315053697      122.55006053696100
H          118.36846721503578      108.14129096163245      122.48449914200616
H          117.23686619470993      106.42587599742610      119.83531330525241
H          116.67439390071881      105.24299608125325      121.03128819520259
C          122.62676567475836      101.31470040161996      118.32134761797553
H          121.47650405338321      102.34136661016946      116.91514399826255
C          123.93200039714296      101.53992305665376      117.55889759485738
H          122.77304388836286      101.41982132026617      119.39967963211956
H          122.25390361886532      100.30832656418009      118.10252730238126
C          124.97310095144165      100.47814341396399      117.89931414338814
H          123.70544768868066      101.51285042738475      116.49360872571476
H          124.31528779873770      102.53338809956213      117.79063907445223
C          126.22512868730740      100.54806242676776      117.02211308215396
H          125.25753287445124      100.56835977973958      118.94955206943841
H          124.52658076204708       99.48949633472594      117.77036973960479
C          126.88758458496045      101.92311362657409      116.95738798752974
H          126.94540928066736       99.81696866063261      117.39607365572509
H          125.96105622015079      100.25702162779119      116.00437141848064
C          127.22009923296470      102.49038309442327      118.32832149764378
H          127.80819505709941      101.84277686313510      116.37461362295690
H          126.23436429295077      102.62984930800235      116.44641983521419
N          127.84589417222386      103.78880136004673      118.19241705606042
H          126.30612037542497      102.59187832951746      118.92142204005158
H          127.90963088572677      101.83707943124041      118.87191048710049
C          128.56706097502428      104.32742060326176      119.17650262590003
H          127.60239221765084      104.31863191813775      117.36134260926980
O          121.35081075835657      103.26584966556575      119.92762542847751
C          129.10575185280916      105.71319702196936      118.89884657794580
C          128.01253350225460      106.75737120810753      119.14357464536326
H          129.94233833352831      105.89693515318567      119.57466483993372
H          129.46217000626709      105.77930165128332      117.86994075807945
C          128.58355564594456      108.16768024743297      119.04135380504549
H          127.21564787409595      106.62934740730881      118.40794201374221
H          127.57586216088815      106.59869819098979      120.13120511165329
C          127.53954005447716      109.24775900152352      119.35995565163766
H          129.42385389350477      108.26787434928353      119.73178588406375
H          128.97033526576263      108.33116393298917      118.03322383374466
C          127.52397331107636      109.56651053469270      120.84050971711740
H          127.80618640298978      110.16627168564895      118.83384985201083
H          126.55046274553521      108.91907599349672      119.04210091512074
N          126.68998190543491      108.83301322554044      121.58401790707178
C          126.56062086923178      109.04633314860662      123.01114017973163
H          126.10597868445416      108.11140096780876      121.17702900603969
O          128.76618087547007      103.74927095057113      120.24228798356913
C          125.36727004584391      108.27066763759191      123.54513462859593
H          127.47605655339422      108.72237803086581      123.51524641084666
H          126.45508181877204      110.12190913198501      123.19806072451010
C          125.29678476282800      108.29856498326467      125.06893530253328
H          124.45167894880031      108.69203651017777      123.12479760122901
H          125.43690867641318      107.23922748478432      123.19877554887060
C          124.03033242130174      107.59428811423184      125.55019540452295
H          126.17210037614549      107.79778447012471      125.48729127193323
H          125.32356140530564      109.33753190081495      125.40492365364425
C          123.86774915200297      107.53405137245834      127.06991089875164
H          123.15725365058972      108.08521385554957      125.11261159538113
H          124.04820401644926      106.57278186486100      125.17156009199863
C          123.94732764455540      108.90129846983216      127.75229336270436
N          123.07528293895713      109.87578936020256      127.13551463352208
H          123.64285060130419      108.81453677241052      128.79658233472952
H          124.97767990656507      109.26983558821817      127.71997042473626
C          122.05391199880258      110.48781002856219      127.75627822064526
H          123.26442371349297      110.10265315517599      126.17215700611865
O          128.24587968212487      110.43297135806050      121.32001484986353
C          121.32224236740618      111.48690303367493      126.87609110025039
C          120.29248130516571      112.28337325554702      127.67103902144689
H          122.06340438306697      112.15904335817501      126.43687367085559
H          120.83722906876608      110.94385027583779      126.06016549567421
C          119.69487628204658      113.43804755883446      126.87365735424953
H          119.50436167579349      111.60567496087701      127.99952755102107
H          120.77418123111376      112.68466374334152      128.56338429701566
C          118.58555924068123      114.14105964705078      127.66057720937630
H          120.47860691964959      114.16390881743787      126.65279155659759
H          119.29238387672049      113.07716985118684      125.92444707632011
C          118.18984215034502      115.42992547596366      126.96591117804127
H          117.70907613583260      113.49478739423861      127.72372162928114
H          118.94304826917777      114.37276723384289      128.66422181092733
N          118.90454337004402      116.48956319096125      127.36044919271551
C          118.60642852699397      117.83972773670072      126.93208430276842
H          119.54623211512238      116.38856518140726      128.13899651964255
H          122.89961871287200      107.07968175573842      127.29368876433449
H          124.64676704352215      106.90060213171729      127.49685096396375
O          121.76265035305723      110.27066472363975      128.92166488976912
O          117.31846375397521      115.48641312949852      126.10506531947405
C          118.76536606289955      118.81229911778573      128.10094999200695
H          119.26680352212399      118.12603444179690      126.10571615708955
H          117.57959524001858      117.83591994582493      126.55319451002818
C          120.19005732854035      119.36134880288111      128.21339616309626
H          118.05636063419840      119.63317254310699      127.98675348929233
H          118.51067349138417      118.28056950803524      129.01924352110339
C          120.52433714409941      119.86322142281776      129.61949468123174
H          120.89792420477670      118.56686243043481      127.97022977556271
H          120.33649667423839      120.15799965577804      127.48187378551079
C          119.48677970339226      120.80612608296072      130.22383070248924
H          120.60263141162746      118.99715587271331      130.27831535743263
H          121.50170122446761      120.34764673478738      129.61002896126510
C          119.30601321495087      122.11726031993635      129.46935044724069
H          118.51864863342595      120.30650198262863      130.28207740505616
H          119.78781384719805      121.04070995039238      131.24667216319571
N          118.18585931729029      122.83886636458935      130.04105104186303
H          120.21492236780760      122.72408157505829      129.54311321488368
H          119.09351905836272      121.95305986118761      128.40973341063736
C          117.35121116476233      123.60040827311632      129.33558634962606
H          117.93162872982926      122.57489569231247      130.98490933813929
C          116.16773984334498      124.13106867235145      130.11983837606218
C          115.19836842910817      122.99394255449020      130.47245099852563
H          116.52036342755430      124.60235444762419      131.03845414089045
H          115.66624478679536      124.88632762010532      129.51740830585393
C          114.94843287447284      122.04275010649675      129.30194642267165
H          115.62804061599842      122.41302167691023      131.28970649623764
H          114.25485537746891      123.42608835948730      130.81202299724060
C          114.31389990197876      122.71536069399828      128.07858724080333
H          115.90180444487585      121.59457741377986      129.01071681860324
H          114.29603174078571      121.23311717799986      129.62877773388209
C          114.57547696803202      121.85224836201088      126.86245859313935
H          113.23871934758816      122.82431432171114      128.22427181504111
H          114.75208558912182      123.69750944582803      127.91628810589729
N          115.70939440933800      122.13984734514906      126.21165960267970
C          116.11248160964402      121.42600318680148      125.01776753577471
H          116.31997727031400      122.86433112582164      126.56574421433939
O          117.50763314489170      123.85098923227298      128.13989905052929
C          117.61080314381556      121.14850946065837      124.96593186957377
H          115.55753941031550      120.48271853383814      125.02443713389754
H          115.81960860627569      121.99524277403680      124.12756529467728
C          117.90327144974373      120.10067037166183      123.89482116904435
H          118.14184152444531      122.07082767809918      124.73552830169179
H          117.95441221043467      120.78429548873046      125.93624786485003
C          119.39284369005662      119.87841773445503      123.62899198943093
H          117.45119878910285      119.15859902316362      124.20776016719573
H          117.41538754392850      120.40722665154699      122.96768893413619
C          119.99635292220513      120.93193677462568      122.70232293204077
H          119.94103419552611      119.87495903523981      124.57378513794259
H          119.51495677838918      118.90178675781584      123.16114771764461
C          121.47633660174851      120.67431881743967      122.43671620931724
H          119.45202223148398      120.92508902696639      121.75594120065149
H          119.88340227611255      121.92247903794458      123.14527927031146
N          121.67312330561889      119.55283414806506      121.54009711573201
H          121.95413557849643      121.54107695801369      121.97223390336450
H          121.99412446320231      120.48956750621448      123.38449605382043
O          113.83154977059019      120.93950087930965      126.52252781386395
C          122.72276458578318      119.48333224716085      120.70561855739631
H          120.94544484369194      118.85196575092039      121.50387040296853
C          122.76866298330211      118.23518508825117      119.84115714199400
C          124.11033857113105      117.51594244322156      120.01277277774230
H          121.93553214783302      117.58154827989277      120.09480779286793
H          122.65959782212182      118.53319420639282      118.79615256656952
C          124.21238436701161      116.22246946341865      119.20248449270969
H          124.89751769343465      118.20340616774179      119.70093180031593
H          124.27354307396817      117.29398754331838      121.07024174175551
C          123.35803942966953      115.10393746465726      119.80851407985438
H          123.89367589636571      116.40063907098744      118.17534603181633
H          125.25583697967144      115.89852093774552      119.18927658499049
C          123.54163762022503      113.78689519400831      119.07698229213733
H          123.61171757442104      114.97564605600444      120.86128861558977
H          122.30890607090480      115.38577271110340      119.71530241608376
N          124.16216426333213      112.83576276836953      119.78901468305162
O          123.58014618329547      120.35323334709167      120.66112455688344
C          124.40176712521139      111.51026536495078      119.26995365705473
H          124.51075931911917      113.04630727761257      120.72241276872890
C          124.02607696171495      110.39876782913134      120.24749599550242
H          123.83238357804534      111.41276309351797      118.34255985471304
H          125.46603508536192      111.40403630703169      119.02534769576086
C          122.53622471731781      110.30120190151429      120.58215684018695
H          124.33509401291960      109.45727485306207      119.79242798486933
H          124.59766150150679      110.53219309430467      121.16749369546331
C          122.09641927283374      111.30612533371171      121.64553816017427
H          121.95568060008250      110.44201379937961      119.67055184002032
H          122.33704410084070      109.29136936345441      120.95066022082203
C          120.71336450246274      111.00656057001099      122.22413569242467
H          122.82364788621548      111.29674462118268      122.46063015825945
H          122.10161736594218      112.31007850597933      121.22270639038560
C          119.59291008631142      111.20463077163970      121.20414373370637
H          120.67882913162961      109.97967437210283      122.59513790962366
H          120.53612968065875      111.67052171468083      123.07197050122504
N          118.29790782160495      111.23414371637230      121.85190182743631
H          119.71719267638642      112.15089586077727      120.67305727921507
H          119.60951912262684      110.38788270536871      120.47570242749163
C          117.34778709029243      112.13731661002005      121.59510916541389
H          118.13161495712106      110.50890918180583      122.53958905471679
O          123.13292494775597      113.60001304913652      117.93730408704808
C          116.08141600717768      111.97101876571254      122.41687889055122
C          114.82772503672753      112.28353738412328      121.60288262572335
H          116.02583399193678      110.95893344482725      122.81485192919037
H          116.14664399978410      112.66929379816040      123.25760016392597
C          113.56695221525578      112.21047452057226      122.45873478212002
H          114.92385633709449      113.28318780791516      121.17897548773017
H          114.74240458605233      111.57375227904352      120.78168584020264
C          112.34781621038391      112.79198040666193      121.74636058467046
H          113.37470156528924      111.17024856885116      122.72480437872065
H          113.72046589259148      112.77613523408178      123.37908400188687
C          111.98438618500036      112.05613967975978      120.46720191392842
H          111.48474719834198      112.73465764267088      122.41571864050920
H          112.52352789709724      113.84517414168239      121.52672962498821
N          111.12300598314923      112.73187197231772      119.67988021189377
C          110.64826396535987      112.22451389234327      118.41083634295090
H          110.80936240295810      113.64797237464849      119.95968390178436
O          117.48251553250903      113.04969470556451      120.78246510465952
C          109.12541967170282      112.07817974393605      118.37707735155175
H          110.99532673201297      112.87206657117923      117.60132041619360
H          111.11778615791169      111.24750375075962      118.27968577465901
C          108.35986697574421      113.39401245946149      118.52780331916865
H          108.85531698602547      111.61788101441259      117.42533523599587
H          108.82497950905602      111.40017669096615      119.17954520439332
C          108.52269480534412      114.33794156225014      117.33840953228353
H          107.29831278091112      113.16811839884026      118.65186112381917
H          108.68522604929471      113.90310542170721      119.43687389267430
C          107.76093997272380      115.64048252803150      117.57081533947192
H          109.57825669357453      114.56433404949730      117.18973603198384
H          108.14883332863388      113.85885680063444      116.43138909615024
C          107.95596117838797      116.65038945108188      116.44719456581481
H          106.69607622999219      115.42571346370460      117.66942205236492
H          108.11045242533295      116.09806987101034      118.49777462412882
N          109.34420205716854      117.05537614748303      116.37803798888170
H          107.67635008566140      116.22052136267286      115.48156532527997
H          107.31292400249441      117.51857518517055      116.63043899912049
C          109.91337300462351      117.57366400756698      115.28903056090509
H          109.86828178704295      116.97417886368427      117.24395934286733
O          112.40226192487773      110.94942328573526      120.18481683274381
C          111.41438020928999      117.75181063985603      115.34959244307328
C          112.04405572410894      116.83559445491501      114.29172302689182
H          111.65324519618366      118.79179189295161      115.11577863688683
H          111.78653266580309      117.51848936410890      116.34647689063772
C          111.77462263989152      115.36227750453514      114.59099899605107
H          111.60815237307416      117.08149002620901      113.32120265938019
H          113.11646114157811      117.02055740893320      114.22523197518163
C          112.15454807934266      114.43773823109753      113.43043523181881
H          112.30944098452598      115.04212895488314      115.48725211823918
H          110.70634495511609      115.23132692002493      114.77684041486300
C          113.64349919848290      114.41540349571805      113.17029875216160
H          111.83208907996655      113.42784514113268      113.68124006921754
H          111.64152954586677      114.76138606759383      112.52507651204104
N          114.29657178450678      113.47913078368830      113.86510019508981
O          109.28381487721526      117.84297461563088      114.26515960132848
C          115.71348121646746      113.21873995754399      113.77395450668665
H          113.79154294254508      112.96049620629596      114.57889844716448
C          115.97587657125582      111.72035804714855      113.65021890370123
H          116.10097072547836      113.74543010730586      112.89893683414397
H          116.22380674259891      113.60611764068740      114.66454151113444
C          117.47321914387105      111.42846464683473      113.59234822262547
H          115.50941859881523      111.20964709367682      114.49474075882240
H          115.49820798548038      111.36269913959431      112.73800196069287
C          117.81861592319632      109.95587232012635      113.80303005155982
H          117.85607193674632      111.75328434165426      112.62408287505475
H          117.98046869144881      112.01708188451586      114.36046528789306
C          117.21890424422536      109.04030825982846      112.73896202163623
H          118.90530300452633      109.84544670416081      113.79438063922477
H          117.46658598281778      109.63829224506659      114.78628502458285
C          117.66637155205390      107.59891713869635      112.95839197483640
H          116.12969124339540      109.08209485188088      112.79010122799626
H          117.53238660094746      109.36938838356420      111.74663640504660
N          117.07384397149545      106.73490083655783      111.95953274110497
H          118.75524047172354      107.53927080515102      112.89662572827822
H          117.39025612469574      107.27967415225721      113.97126858786601
C          117.54289008934010      105.58153460563783      111.46594480782421
H          116.23186060125549      107.07998239030292      111.51273430915703
O          114.19851392074487      115.18184441790379      112.38409041784978
C          118.71143227353997      104.93198302864829      112.16860855868372
C          118.23284515116598      104.22176389225353      113.44104734591437
H          119.14378548677387      104.20609074330153      111.47910876237816
H          119.47085070642670      105.66489093363992      112.43872511149449
C          119.37818262195537      103.55645595880603      114.20007205693156
H          117.77172520799273      104.95483260672508      114.10351822509975
H          117.47904208806260      103.47762370709410      113.17530957774518
C          119.97167410977991      102.36267810097975      113.46042780093212
H          120.15684649967218      104.29334539981240      114.40069413647157
H          119.00480068343116      103.21561022270348      115.16718094760935
C          121.21109337361241      101.81651738617546      114.14907384629294
H          119.23429216773793      101.56290795199676      113.37558300317929
H          120.27363045644664      102.64445387668850      112.44997567989429
N          121.68227354358970      100.69115047286543      113.60950199950226
C          122.85367674488334      100.01369697879694      114.12859475231566
H          121.17090641334480      100.23395713027887      112.85663427504930
O          116.99994772729248      105.05237472845312      110.50042520721635
C          123.48634123377525       99.13875230798787      113.05336084324300
H          123.56259346771085      100.78224917846029      114.45252430097992
H          122.56772577583521       99.41952007799900      115.00332905421038
C          124.87559867196963       98.63269709004339      113.44701263080957
H          122.82793476588560       98.29833482953217      112.83277083415696
H          123.57614326945837       99.72455728627801      112.13555222960795
C          124.92725305164257       97.86449466838975      114.76872438764923
H          125.25223106679967       97.99192817026102      112.64593652050178
H          125.55030991220991       99.48972263709283      113.52448493665536
C          124.10436682108555       96.58067641920601      114.76273318409299
H          125.96871226441574       97.61217746572351      114.98164330977350
H          124.57074722818126       98.50085735952460      115.57649300727182
C          124.19150899426458       95.84822017672644      116.09683782138544
H          123.05939796804172       96.81932310482090      114.56122122485534
H          124.45865584017312       95.91502444220282      113.97301451753114
N          123.59495777079474       96.62300250469619      117.16506369307497
H          123.68407530550270       94.87561487056195      116.01890040892006
H          125.23296330782038       95.65049024283633      116.36782593089210
C          123.82146004424366       96.33221722325460      118.45926983330413
H          122.87157657904910       97.29752208303890      116.92166008405860
O          121.74900896795994      102.38562394661137      115.09346257776546
C          122.96583877991912       97.15312876150071      119.42073760265582
C          123.26685433323020       96.81015149810703      120.87623436348682
H          123.12412318361770       98.21490226386830      119.22689859172233
H          121.91816245083436       96.93351813517963      119.19751974923145
C          122.20541823407160       97.35979027315985      121.82441079852757
H          123.31388352538923       95.72345615941657      120.96794101468032
H          124.25160772406753       97.19713757190932      121.14320409717571
C          122.44002803975668       96.91442419651786      123.27059114644312
H          122.19102035837263       98.45174640312308      121.77376470842349
H          121.22360148738628       97.00026950320290      121.50695519731232
C          121.21309114870698       97.14813705885445      124.12729297986721
H          122.63250835704544       95.83829318736917      123.27690441400603
H          123.30061763961291       97.41858999826924      123.70695054869077
N          121.42929127756422       97.78342767190209      125.28083320550276
O          124.61685459102905       95.48714733257457      118.82431988578753
C          120.37438508306320       98.05321524938086      126.22995008586751
H          122.35014627272372       98.16117044209656      125.48580645078073
C          120.38214164438439       99.51484706150232      126.66867118071892
H          119.42914277338423       97.80034464613097      125.74077341930432
H          120.49303930582980       97.40335736421299      127.10549299115152
C          119.15224318404414       99.84745712202186      127.50985581949054
H          121.29545780767414       99.70147620076911      127.23412052523655
H          120.40015207927694      100.14955239387545      125.78126090131079
C          119.10445931352734      101.30935279115796      127.95332204394104
H          118.26070316630687       99.63465324769815      126.91774239810096
H          119.12339939327420       99.20200887340255      128.39017684938614
C          120.08705643387528      101.62294609940811      129.08149751120376
H          119.30718636704862      101.94258668952031      127.08539684748905
H          118.09478037648212      101.54296288288526      128.30000278546711
C          119.98863934436358      103.08139699521577      129.54149267224258
H          119.86670026542082      100.97479010494959      129.93116056041325
H          121.11140936543877      101.41685213200054      128.76267689480559
N          120.55048035188797      104.05719190310275      128.61124189332918
H          118.93597452550377      103.33889631072527      129.69466534044528
H          120.50895181232330      103.20600146859539      130.49408668294276
H          121.56022607956348      103.95970605197535      128.57468274045075
H          120.20437472967606      103.88066250286080      127.67254749929691
O          120.09706359005200       96.75912158273569      123.78593726568444
C          113.74752132064715      130.14781021964205      124.00669406201959
C          112.61361962576886      129.47387789507422      124.73753263670812
C          113.25190947291820      130.98724994046268      122.81705048615427
C          112.51428841232608      130.16211044103147      121.75646268124150
H          112.60505751138692      131.78678494476762      123.18259745270575
H          114.12801917100980      131.45486090562585      122.36329537911469
C          111.00191250869453      130.05794399286034      122.01596690425097
H          112.66515062535422      130.61291471720216      120.77414351333688
H          112.95620417507114      129.16558906858245      121.72683928353212
C          110.42632178070403      128.75515715281719      121.48549314076082
H          110.80127453903596      130.09705634564568      123.08781129303142
H          110.48185323423209      130.89231678533903      121.54361925825258
N          110.86667609393108      127.67847549456306      122.14256203491895
O          112.02701128927372      130.23263217295047      125.63127162832393
O          112.27486956668280      128.32658842792256      124.51847278649143
H          111.24828473161237      129.76770983607355      126.07651458100295
H          114.43300340904197      129.36886501463846      123.66571388620426
H          114.26195220647838      130.80388392299002      124.70946463233911
C          110.45106720131415      126.32945554787081      121.84575351468429
H          111.46526114754150      127.80863695159310      122.95142868182565
C          109.87782534067804      125.62227720703345      123.07367637493766
H          109.69773399465390      126.40166440729622      121.06176589602696
H          111.29763444489798      125.76028375413503      121.45190386356974
C          110.92221202407963      125.32905118479682      124.15211534758927
H          109.08365191680086      126.24096727783564      123.49658344810709
H          109.43166183428008      124.68289696484675      122.73948368855881
C          111.91670727804343      124.24995516763938      123.72898008865120
H          111.45165197594650      126.24504629956198      124.40148414636064
H          110.41152119186464      124.99384910051326      125.05755248097387
C          112.98846829582629      123.99315242093915      124.78766273731790
H          111.36930233716626      123.32082087455834      123.54652428831689
H          112.41067871411339      124.53182295548191      122.79931529675360
C          114.05677824905314      125.08011338197844      124.84557125315919
H          112.51680795188871      123.91550976434412      125.76927066151411
H          113.47706377410647      123.04053369108935      124.57516722725789
N          114.83268033619278      125.13136881746638      123.62694472631539
H          113.61336847500016      126.06877651514885      124.98731129924035
H          114.72312379298420      124.88472052166651      125.69564752567658