3536
 energy: -3716.247619609712 gnorm: 0.000846695195 xtb: 6.6.1 (8d0f1dd)
C           59.37105050615457       56.54920592539877       69.64728484109459
C           60.23144762090799       55.68430900718381       68.72597677364209
C           61.50704751999982       56.43719943035751       68.36332705996931
C           59.42516140930642       55.30354227703904       67.48112444233513
C           60.04826431275968       54.24593183989718       66.55669663860670
C           59.21398735306727       54.17451372199565       65.27975424475402
C           60.13014027940955       52.88712794586093       67.26660148416565
C           60.43370118013708       51.66176039992104       66.39043624353671
C           60.37927307851807       50.41203957195003       67.26783935494048
C           61.79551716651017       51.79302468910245       65.70137917973035
C           62.21366848626860       50.64705835246523       64.76482904607843
C           63.60655719796359       50.96384041011065       64.21777852192004
C           61.20304562219611       50.46436035388334       63.62671879351547
C           61.47924635404664       49.31369470462038       62.64730201973702
C           60.59082099538620       49.50121013394426       61.41791354106117
C           61.21483980316411       47.95102925654667       63.30058548994876
C           61.61482996437504       46.73312973448708       62.44539696809716
C           60.47197564633829       45.71728248510538       62.42112881767216
C           62.88383350487075       46.03037491513646       62.94923408048069
C           64.14935668343745       46.89107859474858       62.99045259725182
C           64.52292089733990       47.37871726692360       61.59176667902529
C           65.36236394199477       46.13718045295383       63.56150941896424
C           65.16684455856651       45.47621917458433       64.93903502991475
C           66.36785655137928       45.75818922075204       65.84191297036638
C           64.96663413432685       43.96404251592985       64.76573782766076
C           64.42087953512076       43.21669585261945       65.98897444092337
C           64.69552575793224       41.72137941099160       65.82613129927547
C           62.91800590610855       43.46649595099599       66.15954769226049
C           62.36267685999905       43.02222829987680       67.52510277620685
C           61.18738707391383       42.06121474289278       67.34144930671525
C           61.91333578242286       44.21484918985253       68.37953533181891
C           63.02179271251067       45.19772914784170       68.78487493918827
C           63.96703338277804       44.56458214912449       69.80335322524334
C           62.36395985676759       46.46634591211965       69.34755576964307
C           63.30752422097539       47.59243065524728       69.79775996862946
C           62.47738811537995       48.68565246406285       70.47071020039623
C           64.10942753422741       48.13685172854817       68.60861555892407
C           65.00578507043653       49.35707074895801       68.87666910112372
C           65.68383213840836       49.75607313530760       67.56679823634256
C           66.04135293775671       49.05105164777542       69.96415335589040
C           66.96359859563319       50.20275632294833       70.39764252216027
C           68.00226235261115       49.62763615174682       71.36234242831840
C           66.16104043793963       51.33272268470549       71.05538793221737
C           66.96708537022872       52.58200038129247       71.46218379703993
C           66.57610438611810       53.01423699510279       72.87703848441656
C           66.75129577741322       53.76525927805442       70.50843274888277
C           67.29780654943312       53.59114437485310       69.08829651642586
C           68.82032295239773       53.45540150519471       69.09076511652387
C           66.92516524239198       54.78924232571416       68.20221104083390
C           65.43244426066273       55.03542278775441       67.95396788253666
C           64.72929730170435       53.77863685733637       67.44196609880703
C           65.24075751784044       56.15952085131232       66.92504486775853
C           65.79379014808408       57.54307568728646       67.29339056281830
C           65.19508917769244       58.03764070463446       68.60840585888234
C           65.46958432102159       58.51240767704986       66.14782511309080
C           66.20829543505657       59.85788810382046       66.18337530042587
C           65.48238847848528       60.83898042375807       65.26170249745445
C           67.68334982235197       59.71245144548909       65.76714310725268
C           68.71826704541387       60.43301454126383       66.64909136434262
C           68.82104963512157       59.77212774918875       68.02425749638346
C           68.45795181955940       61.93616558743729       66.81366484430301
C           68.71766868487481       62.77398920465215       65.55176696833267
C           70.21183490704237       63.02964449420645       65.37460278727546
C           67.94202633134023       64.09402247231812       65.64870903859207
C           67.98956684788975       65.01521296165966       64.41868040007643
C           67.12018146436924       66.23944744580824       64.71121624195085
C           67.52182380024703       64.26521174185531       63.16444212712389
C           67.24198454631897       65.11139418312780       61.91440217588515
C           66.70533942100670       64.19141415969612       60.81952806011767
C           68.49889874353691       65.85319210048243       61.44445894675987
C           68.31578463138766       66.77569807126025       60.22821072131607
C           69.68016518576148       67.31918669212702       59.80524888920233
C           67.33866504853547       67.91223158034208       60.54891209420704
C           67.00778096665472       68.88791639081536       59.40728625859038
C           66.00615148769380       69.91423448751712       59.93892983715008
C           66.46220716149003       68.12888096387746       58.19057260559440
C           65.81635697432617       68.96090964921623       57.07210639522389
C           65.31637279593957       68.00113137098998       55.99423509712121
C           66.79173448391383       69.98031764491394       56.47382677485619
C           66.16716447566608       70.99692856423397       55.50307603516344
C           67.28696008426442       71.69427822971099       54.73057675429055
C           65.30739107929071       72.01089814427141       56.26756295513918
C           64.45142100705280       72.95601824849244       55.41140796848521
C           63.98952350893124       74.12427836297304       56.28462482081611
C           63.24055505711573       72.23677095405989       54.80198022913275
C           62.62087160129983       72.98284585799919       53.60973623872118
C           61.12882686267420       72.67405800129677       53.49314047625804
C           63.36755214112619       72.69388435615620       52.29695422340320
C           63.08972278588992       71.32652774589288       51.67546233709432
C           64.01629541729363       71.05311052566836       50.49700298930103
H           59.91605153331243       56.81050716353560       70.55289105134463
H           59.08694134713673       57.47115815225283       69.14304062463880
H           58.46234134160125       56.02564627179394       69.93890501473592
H           63.90795153959608       71.82476930022435       49.73719029032022
H           65.05493179908463       71.03603256143673       50.82127778364598
H           63.78267218718081       70.09290582671707       50.04280450050707
H           63.10214607140601       73.46406768245603       51.56700237250296
H           64.44110370716312       72.78261773102805       52.48185288129919
H           63.53104014111094       71.23627134585101       54.48177491634647
H           62.48452504497900       72.11844971873030       55.58192293781119
H           65.06485323110114       73.36219928125416       54.60162878268893
H           64.84192478158282       74.70100222244106       56.63776024214636
H           63.33499704894728       74.79454758624480       55.73271276309197
H           63.44488703606271       73.75482596101784       57.15199216567495
H           64.63395129640921       71.47746389198083       56.94098146438945
H           65.97566687962023       72.61642487233226       56.88671756595824
H           67.27478350724746       70.54097259610838       57.27635842686650
H           67.57539779478410       69.42950770803942       55.94636450021125
H           62.71798950620392       74.05922342111998       53.79460320183610
H           60.95928369329238       71.60330295035229       53.43184229602222
H           60.59719051724642       73.05356098327675       54.36349757062140
H           60.70766773602122       73.14632663007204       52.60796343416074
H           65.54348128224723       70.46519413318974       54.78013919275750
H           67.88550201623430       70.96441379900774       54.18945904177026
H           66.88849728680731       72.40056086894269       54.00686171893287
H           67.94028533605734       72.23608589993923       55.41229377214845
H           64.95231197444001       69.48651140962635       57.48607608697496
H           66.15624895436999       67.51646749761822       55.50110500858946
H           64.68690845581047       67.23096604652500       56.43375079165089
H           64.73049519229710       68.52157421251064       55.24330250528292
H           67.27579821262650       67.54903696589055       57.74885630800816
H           65.71051543153335       67.41913732851312       58.54938783018298
H           67.92007155482312       69.42087957194700       59.12196264988268
H           66.37848860865672       70.36206299136062       60.85850576161643
H           65.83634482679331       70.71346992066820       59.22309251986142
H           65.05280077666727       69.43705400702154       60.15887504296902
H           66.39525691103586       67.47679592278685       60.88437322283191
H           67.74778230579155       68.48849327833346       61.38435038395246
H           67.91768552918948       66.18187094827672       59.40265369112436
H           69.60295677323782       67.90511483934554       58.89279163398019
H           70.09846670866189       67.95323094593800       60.58506617386254
H           70.37394829544127       66.50137591032473       59.62165789302234
H           68.88991279740017       66.45473100249718       62.26777679817663
H           69.25964474954394       65.10708807058570       61.19705460037928
H           66.46157959969290       65.83545405991346       62.16052811028351
H           66.37343073342709       64.76246717565856       59.95775353797659
H           67.47365239551473       63.49251585838331       60.49741123937331
H           65.85888514012397       63.61688035284300       61.18949396523975
H           68.27398289070086       63.51856666034781       62.90133780336745
H           66.60080427384301       63.73171076928656       63.41641867332871
H           69.01970053992537       65.35492292699853       64.27378099625420
H           67.40477920834240       66.68326868129687       65.66346977866507
H           67.23036614267994       66.99888142171517       63.94228727822887
H           66.07147336406049       65.95470379096285       64.76947341721009
H           66.89106556324661       63.86589462097427       65.84988764046793
H           68.32012266005121       64.64936453106603       66.51209193821981
H           68.35435898063670       62.21419326273735       64.68689613511516
H           70.76796949980766       62.09548518911197       65.38701309629894
H           70.41203268900165       63.52652068034249       64.42924264821323
H           70.58717970062290       63.65987770368358       66.17900938697704
H           67.42666756387054       62.07931781058219       67.13942842766208
H           69.09783498955680       62.31611243329652       67.61480907920540
H           69.69055059631208       60.30641164602167       66.15699213333505
H           69.62294104029706       60.22383195755788       68.60511985867103
H           67.89600477136594       59.88403292110543       68.58380611401783
H           69.03319071621645       58.70975882343545       67.92430368143926
H           67.95166514293622       58.65461178817100       65.75872940555466
H           67.79163823807582       60.06731451924581       64.74015366010343
H           66.15757336149113       60.25372861549195       67.20072040925929
H           64.46386771808115       61.00644912888519       65.60581759887489
H           65.99385482627055       61.79648538263896       65.23079511899158
H           65.43730135953473       60.44127217349345       64.24981850657431
H           65.69666778620817       58.02842724072760       65.19468481131435
H           64.39381602693480       58.70440077703426       66.16700303200015
H           66.87986156580787       57.48084685089709       67.40212248826302
H           65.50330131416035       59.05857264236843       68.82009151374733
H           64.10842349407288       58.01425379796405       68.56019279930210
H           65.51760321898770       57.41867353886497       69.44185715568581
H           65.70000508579554       55.84021421602281       65.98605685313420
H           64.17065584312078       56.27382819052468       66.73632740737735
H           64.95172288895378       55.33643213485724       68.88951082279911
H           63.69491327098852       54.00155229954935       67.18962811486631
H           65.22276702213999       53.39996869258826       66.54965419933310
H           64.72415452622324       52.99417856984152       68.19411291252185
H           67.35692012246891       55.68482311750937       68.65511318068381
H           67.40695223501530       54.65228390228486       67.23107367596117
H           66.87652614135472       52.68198728642976       68.65242400553834
H           69.14185897981184       52.58530112889716       69.65538577502986
H           69.19439272214508       53.34690594515030       68.07488103931396
H           69.28252843275466       54.33728386117223       69.53083570519789
H           65.67840417029150       53.95976893792060       70.45602901644574
H           67.22090678193709       54.65128617082760       70.94613130938829
H           68.03257879344027       52.34233092818552       71.47896226302007
H           66.76392154117417       52.21408456278289       73.59038151560459
H           67.14897883921785       53.88612741261020       73.18792452201701
H           65.51891159769900       53.26956429163613       72.91487739717287
H           65.36520284533398       51.64250121573885       70.37708365597038
H           65.67990066718416       50.91576339778337       71.94452864574546
H           67.49064386984864       50.59686829855452       69.52450273835430
H           67.51269210756008       49.20389646114349       72.23768866192658
H           68.57529747831464       48.84019822041871       70.87703915729868
H           68.70197089316223       50.38604751206269       71.70391296424998
H           65.52264965103939       48.69936237637111       70.85846452564131
H           66.66820669889768       48.22851298746498       69.60742466934732
H           64.36991658011161       50.18649047781660       69.19805463291411
H           66.21814520793353       50.69680469940154       67.66775633277514
H           66.39353904460873       48.99048811780335       67.25885300242325
H           64.94342222484471       49.87341463549244       66.77948724759567
H           64.74168459834840       47.33635825980159       68.21912986135854
H           63.40134385748069       48.40919867815436       67.82115270942428
H           63.99598933884649       47.18631988882347       70.54414313956758
H           63.11339078320882       49.44511527532919       70.91667479548579
H           61.82106833895965       49.16476451779841       69.74822051632759
H           61.85903591838799       48.26118098038368       71.25934397628345
H           61.68775379659259       46.87186751742058       68.58965185005395
H           61.74972364572848       46.17330970474957       70.20415923382897
H           63.59671508456395       45.46196098225985       67.89379872169903
H           63.44468779163770       44.37094495509547       70.73860161070201
H           64.36109382213870       43.62132731892248       69.43299696746926
H           64.81215665891587       45.21674225019307       70.00904698134299
H           61.14810810955316       44.75998614761729       67.81995829731558
H           61.44118025829866       43.83486492251333       69.28956975587077
H           63.14322269609688       42.48272044494917       68.06992231714027
H           61.48122332722984       41.20663028881122       66.73553227212737
H           60.84090079127950       41.68929454661089       68.30392575096074
H           60.35879467995923       42.56592808528665       66.84783097982964
H           62.71142837315177       44.52803849862504       66.02276747108228
H           62.39499777427584       42.93658884213592       65.36031478878485
H           64.94112986950638       43.56429364635196       66.88680040402299
H           64.28476360165689       41.15114400438524       66.65602496291632
H           64.24342943678951       41.35501360400913       64.90588550727028
H           65.76583889075640       41.52862608469760       65.78192525735511
H           64.28424324269187       43.78427372070584       63.93324462236145
H           65.93336419504917       43.53240110424601       64.49125193614981
H           64.28662589862535       45.91387000046334       65.41976421544712
H           66.22807872111754       45.32205112290208       66.82897330437390
H           67.27450759895255       45.33701224248676       65.41208314990915
H           66.50701228721150       46.83050049654913       65.96521500761547
H           65.67047185095774       45.37399197140111       62.84248192399829
H           66.18057630110748       46.85872353726974       63.62782874607937
H           63.96067028094745       47.75760781918667       63.63291918751611
H           63.76817900633399       48.04205030149502       61.18100040047772
H           65.46974419220084       47.91453440799214       61.61455776116190
H           64.63105606769365       46.52673230673274       60.92308698726529
H           62.67608995199149       45.64680272343284       63.94920632583843
H           63.07436060439587       45.16911924784323       62.30176211353862
H           61.79056661443517       47.05401123517719       61.41623025539227
H           60.72438704705658       44.85972874546660       61.80120859406217
H           60.26175891203847       45.35791535889294       63.42643279301222
H           59.56622015632404       46.16992603764195       62.02476528113012
H           61.73706193647017       47.89973840537996       64.25741461193056
H           60.14512286956484       47.89512666641990       63.51931679569297
H           62.52137557895519       49.36433094263695       62.32581711323080
H           60.70523745584408       48.68363961633464       60.71177072471304
H           59.54520021200331       49.55127489980516       61.71415721354700
H           60.84752917772794       50.42533229428726       60.90505811033609
H           60.20950562807045       50.30277741926220       64.04986043982676
H           61.16802906988978       51.39830545792464       63.05886505015557
H           62.27725946302960       49.72283336618077       65.34801109396147
H           64.03619031323771       50.11067382418290       63.70025299612177
H           63.55922293849001       51.79815391300372       63.52199228627605
H           64.28049030820131       51.23852897708988       65.02642478418225
H           61.80851501847317       52.71514493621836       65.11949375574605
H           62.55779159016208       51.88830970797613       66.47947740119345
H           59.64507443011682       51.57884786081490       65.63853381728865
H           60.44633352167044       49.50780602286641       66.66766118758261
H           61.20436801210590       50.41538168929441       67.97831655860267
H           59.44556974499740       50.37913303189825       67.82693396121739
H           60.89207363377719       52.94483547881058       68.04692191778402
H           59.17132508434794       52.70577878566679       67.75965235103995
H           61.05655136962029       54.57034700235588       66.28240822949672
H           58.22765843871515       53.76599057697402       65.49149390119874
H           59.09443485689459       55.17162362236848       64.85966382146458
H           59.69450909681780       53.55050374892392       64.53164668801635
H           58.44805036771399       54.93527408006515       67.80697137742258
H           59.25028602105976       56.21532260048740       66.90246844914941
H           60.50548521750983       54.77321837969207       69.26618022165526
H           62.16461781073379       55.81916015971282       67.75904283586645
H           61.26888383008595       57.34181638759480       67.80630492789483
H           62.04887484190549       56.72252201099076       69.26274863725811
H           63.22339676037944       70.54249075961332       52.42162553869867
H           62.05570344938073       71.28414207004259       51.32993337576687
C           61.94036246619354       45.98556996834009       37.93536645027103
C           60.64020419986391       46.62098964638734       38.42185501570941
C           60.88764807773517       48.07657588730268       38.81566988913841
C           60.04916547284296       45.86852452251367       39.61928123543690
C           59.62424113300133       44.41883845187464       39.36281415325346
C           58.59437865276399       44.33029009034136       38.23502622465348
C           59.01440339323087       43.79326605028256       40.62627020270623
C           59.91306084634066       43.70149182021547       41.86888873493302
C           61.20718640904958       42.94944991453250       41.57069172157131
C           59.11159313761016       43.00168259590320       42.97575469391602
C           59.69263268156448       43.03874862091669       44.39829065092831
C           58.77986118175031       42.19869958726192       45.29249976629102
C           59.81701598186210       44.48981366160884       44.88395170973866
C           60.10036804974310       44.69270916261115       46.37634446433172
C           59.97470191262868       46.17447566845050       46.73775681547885
C           61.41829455965781       44.07926327188311       46.88488362057661
C           62.70366827333826       44.14118859988861       46.04022721504148
C           63.78194931892817       43.37509686949200       46.81199324159747
C           63.17140068870234       45.56665674851636       45.72960507359541
C           64.40281373177017       45.68575462739917       44.81446878135420
C           64.88941777004264       47.13492992687619       44.84545520189551
C           64.07543446918126       45.24545507595145       43.37600767150499
C           65.11879489187041       44.37774025408983       42.65226551553566
C           65.42851206049576       43.08850643886993       43.41608133172086
C           66.43387219130338       45.09712265699760       42.32248568875706
C           66.33740551474961       46.25678885257501       41.32150757366913
C           65.60677004384782       45.84148490772426       40.04374114168274
C           67.73920088014273       46.75712767008446       40.93670356823019
C           68.49645228856726       47.58714769772686       41.98424114351162
C           67.81826615736287       48.93942667594111       42.18730443083954
C           69.94110811591658       47.77132529487781       41.49301887862158
C           70.93998236974289       48.39188567568192       42.48283411512686
C           72.17866646042030       48.84249110059682       41.70768877940181
C           71.31163135588703       47.38846815436035       43.58043385871986
C           72.14366182281525       47.95578620246093       44.73925813635864
C           72.61119776131041       46.80411866079815       45.63109743369495
C           71.36093888324966       48.99654178132425       45.56182323193200
C           71.91118797214260       50.42507857043316       45.47063126260208
C           73.22359976332369       50.54176449521954       46.24452560079555
C           70.89050408035115       51.43010943762012       46.02486526184535
C           69.77853400170022       51.80101236036529       45.03633669747249
C           70.28803297694178       52.82720016498889       44.02403831655421
C           68.54814216771909       52.36948586092375       45.75641555026358
C           67.70992020055063       51.36243217945509       46.55363789003498
C           67.21057312349518       50.22683225583771       45.66134692229973
C           66.48759526679174       52.05101676806234       47.17800478414117
C           66.76535114797956       53.12556499442093       48.23424490793145
C           67.52097157256775       52.53976532893061       49.42652972105076
C           65.45050104067867       53.74865166536875       48.72926065361077
C           64.62542209186789       54.49922364604470       47.67817891989134
C           65.41905631002309       55.66059224489163       47.08024211364623
C           63.32287781549174       55.04652482124970       48.27848353665974
C           62.33434921382992       54.01875459215678       48.84779224048540
C           62.02852176793412       52.91744983767511       47.83599331105755
C           61.04538314268334       54.75376051961128       49.24522934445486
C           60.12161409177925       53.99198996765163       50.20791323712820
C           58.69868248515412       54.53262595386600       50.07217501075827
C           60.62537451961330       54.13789350584605       51.64859890453458
C           59.99473859778936       53.18767260343623       52.67865622643239
C           60.26955126385446       53.72758543345294       54.08151345432088
C           60.54306655057711       51.76557895846690       52.50226503572581
C           60.12128414959493       50.73042091912803       53.55626317068150
C           60.84799323858252       49.41567643288541       53.27730088519566
C           58.60281952852401       50.52794217849862       53.56326905620114
C           58.04859899156710       49.59256036730134       54.64811220944789
C           56.57663360871296       49.31531279402672       54.34353911180352
C           58.21906906315633       50.21000732087615       56.04075265743040
C           57.94894726425906       49.27969083898665       57.23342518289987
C           57.90660812154528       50.12136121317305       58.50757517605911
C           59.03071263859441       48.19888284539572       57.33325470443636
C           58.85852956691200       47.15345011668175       58.44473666830484
C           60.14800927752393       46.34103524451308       58.55498528554250
C           57.63988417234683       46.26243366562692       58.17313310724307
C           57.41426934221914       45.15200515819279       59.21517927680492
C           57.84846997987081       43.79986639405058       58.64993535796962
C           55.95404176111699       45.03614885480531       59.67713515474603
C           55.35695466652884       46.26819239641275       60.36794349595406
C           56.27783648544308       46.80201097331214       61.46407248628006
C           53.99432703205992       45.93683147575172       60.99643628573260
C           52.90690168902312       45.42166206424440       60.04786802709116
C           52.65034590433498       46.40610861722846       58.90739053562499
C           51.58300368891961       45.19393044334314       60.79410290760843
C           51.59559744707047       44.20680599952453       61.97181688267830
C           52.12289180934435       42.83781713186831       61.55101471124950
C           50.16025068530401       44.11291738814757       62.51149145782058
C           49.92806439488701       43.24442850722657       63.75658910435837
C           48.42241195836272       43.14711484491044       64.01111093442597
C           50.66286864453251       43.80391817000812       64.97855691838673
C           50.49675311346140       42.95965573169323       66.24108634727838
C           51.39556319408690       43.44790071262916       67.37165117513784
H           62.66851154984990       45.94640300780694       38.74298715658599
H           61.77349417486779       44.97477223684610       37.57199603569661
H           62.36706713727688       46.56850500675814       37.12135072964105
H           51.17674873190188       44.48654493631034       67.61208369794323
H           51.23941331653974       42.85171173203564       68.26844820559224
H           52.44228206800896       43.37191686745246       67.08783992140056
H           51.72754777554329       43.86420503980241       64.74948686455674
H           50.30713708407556       44.81864126804550       65.17517472118233
H           49.80905351460971       45.12448420825919       62.73396320942135
H           49.52991638453190       43.72086060292864       61.70800456817868
H           52.24108067233689       44.60630687613676       62.75899757231837
H           51.50822199838157       42.42227152173174       60.75460864403794
H           53.14652546618471       42.91191870973608       61.19311212598526
H           52.11630780767496       42.14478968589355       62.38840990418913
H           51.23012221542650       46.16005297844310       61.16521438249486
H           50.84630041718754       44.83878907573742       60.06769087488099
H           54.16165650997279       45.19164286392725       61.77805018248718
H           53.61444228678240       46.84074082548496       61.48041300375522
H           50.29956876468407       42.23238363509622       63.56368225476373
H           48.02165691465584       44.11497100197137       64.30667778965270
H           47.90386732083233       42.82487250408391       63.11006802461257