3536
 energy: -3716.228885514723 gnorm: 0.000983389794 xtb: 6.6.1 (8d0f1dd)
C           59.37086721329829       56.54938583221659       69.64699897433165
C           60.23176332245034       55.68430855905414       68.72644325808825
C           61.50724590100116       56.43753533283959       68.36291740219971
C           59.42511428553924       55.30348472188769       67.48150378626455
C           60.04865697980057       54.24588054090871       66.55698841233766
C           59.21367809618733       54.17420694330188       65.27998296741737
C           60.13008779178709       52.88671401073531       67.26677501128894
C           60.43281179409114       51.66125917772393       66.39000153620522
C           60.37960452181097       50.41150206111659       67.26765780816476
C           61.79519311677262       51.79305602671412       65.70134985521395
C           62.21385046343637       50.64646089156081       64.76547761404277
C           63.60673747115144       50.96373750859586       64.21805779561784
C           61.20299203603519       50.46403682013354       63.62727067010604
C           61.48003012594211       49.31325145125664       62.64791735409161
C           60.59101997463147       49.50119957515791       61.41853619765390
C           61.21473943071884       47.95055222263768       63.30115924664884
C           61.61523111376597       46.73283976626904       62.44541110644772
C           60.47237510532337       45.71658445100702       62.42243758727192
C           62.88419283309490       46.02995855414979       62.94964035164513
C           64.14939073163718       46.89144467768023       62.99145145577133
C           64.52299680075163       47.37835459639534       61.59213038797083
C           65.36251307514769       46.13703588399264       63.56176642128839
C           65.16638998598036       45.47627586728203       64.93952496892439
C           66.36821124450353       45.75844415539031       65.84153367984635
C           64.96653236214169       43.96383025492952       64.76583887683068
C           64.42054869891651       43.21695004315531       65.98942458977322
C           64.69465423920147       41.72183464075462       65.82554829668948
C           62.91748729895144       43.46746253472248       66.15976932981108
C           62.36266147187822       43.02285195037653       67.52568118091649
C           61.18743414245686       42.06207170630916       67.34157911944952
C           61.91330740403086       44.21560954327057       68.37990752390849
C           63.02232740452984       45.19849956435807       68.78446433752603
C           63.96696756513138       44.56565761660465       69.80337124495357
C           62.36352055474526       46.46678828410020       69.34739361508582
C           63.30718506300399       47.59246875855986       69.79850088809238
C           62.47721685809075       48.68590807114691       70.47141256094142
C           64.10935759730535       48.13652412771210       68.60911204166037
C           65.00555735554651       49.35700442377087       68.87759346847773
C           65.68389964273190       49.75530990430359       67.56715971806373
C           66.04153589200756       49.05103855021260       69.96475246311184
C           66.96403105305190       50.20314036664183       70.39734152062718
C           68.00199253475814       49.62791959302562       71.36257298889761
C           66.16120893149146       51.33302109008654       71.05543378828725
C           66.96760065670288       52.58222974770837       71.46225955565500
C           66.57590631432531       53.01452802820101       72.87662928306776
C           66.75127835087625       53.76557569998791       70.50864805363820
C           67.29807456177838       53.59068657823742       69.08857622421061
C           68.82075183026890       53.45574199314282       69.09121663077785
C           66.92615302846636       54.78927385204614       68.20238834638151
C           65.43335798353061       55.03585750200477       67.95460629560749
C           64.72972300175346       53.77902630739975       67.44235075098015
C           65.24139868878410       56.15988991939521       66.92535415220657
C           65.79448068092249       57.54351010643700       67.29452941275066
C           65.19512670506461       58.03759348726550       68.60925734164580
C           65.46926035621192       58.51253653245858       66.14853488546966
C           66.20848032097668       59.85795625507837       66.18366089630794
C           65.48227579179324       60.83920326256523       65.26214111699605
C           67.68328594980899       59.71209379189097       65.76647539893585
C           68.71826526192581       60.43285849550639       66.64855486313959
C           68.82039698287102       59.77179450365630       68.02343492867290
C           68.45762625623772       61.93584400955510       66.81292980742838
C           68.71713076283673       62.77306257216480       65.55044655771144
C           70.21132913305630       63.02909600231333       65.37380008679028
C           67.94182252636463       64.09334752810481       65.64839505017275
C           67.99006047670863       65.01485114090582       64.41876200743846
C           67.12049749879620       66.23878478275486       64.71075483952971
C           67.52197699401751       64.26462421135643       63.16465817704533
C           67.24210672780823       65.11188929462801       61.91524721360097
C           66.70493812544728       64.19171351463680       60.82024022906558
C           68.49905945445344       65.85329788923819       61.44475026568774
C           68.31548558471829       66.77525613777141       60.22788163140572
C           69.67994652227495       67.31901061287041       59.80554507038968
C           67.33849158571986       67.91200438477689       60.54917693260101
C           67.00848024157617       68.88798717465026       59.40750805792365
C           66.00649877773017       69.91398388118010       59.93861238492372
C           66.46301322741938       68.12871535286473       58.19067176315713
C           65.81734887713812       68.96165284466437       57.07256693304763
C           65.31734756889190       68.00171105244637       55.99430133406605
C           66.79275299710609       69.98054580333994       56.47367663644047
C           66.16753826007216       70.99661289039307       55.50257279487857
C           67.28765965801546       71.69351687017884       54.73043456669869
C           65.30841587900510       72.01094064534087       56.26763401269748
C           64.45281179131103       72.95606033499773       55.41109374859031
C           63.99089697134050       74.12386929871198       56.28427892740659
C           63.24136403598138       72.23659971075311       54.80252119756500
C           62.62155035825361       72.98262393811689       53.61013886512774
C           61.12930290036382       72.67378423000483       53.49389805032607
C           63.36802104461415       72.69377809319218       52.29741871235967
C           63.08990331845143       71.32612140176725       51.67638225867666
C           64.01752521893249       71.05277520460132       50.49859793313156
H           59.91659040944219       56.81001001706050       70.55176493746369
H           59.08743078267651       57.47077007013977       69.14182421653672
H           58.46245568856592       56.02537361745698       69.93773192293015
H           63.90943375609265       71.82514191745658       49.73992617054328
H           65.05578952734329       71.03500485300981       50.82383470423967
H           63.78364292624249       70.09313009350063       50.04299727491590
H           63.10174982015830       73.46266194059025       51.56730091526998
H           64.44129790063910       72.78167489667921       52.48208455994973
H           63.53105481507128       71.23548034722822       54.48301349039524
H           62.48540760184635       72.11941408195651       55.58254338974726
H           65.06601792538937       73.36097138219509       54.60136580635478
H           64.84341451085116       74.70025015765250       56.63695588388370
H           63.33633451094466       74.79362671567765       55.73219454271337
H           63.44646926017171       73.75419802221624       57.15163742969797
H           64.63514690846134       71.47799284436134       56.94158772359239
H           65.97745096235680       72.61616068939833       56.88535529140697
H           67.27466427748013       70.54088686956611       57.27634601829287
H           67.57573944969795       69.42883275034598       55.94654466878804
H           62.71845513677349       74.05805794895532       53.79550749523487
H           60.95906446090837       71.60298121770610       53.43169851434470
H           60.59782349323286       73.05219851379204       54.36480394985323
H           60.70792769641777       73.14657422804851       52.60926540702762
H           65.54400662540368       70.46452273916923       54.77984724054360
H           67.88599003069102       70.96327174090517       54.18954934076990
H           66.88878729373425       72.39924396471200       54.00677753934010
H           67.94016817311454       72.23482543435540       55.41279733327978
H           64.95308910970002       69.48633638885036       57.48621411039419
H           66.15740072971856       67.51707720130946       55.50136066551695
H           64.68751554077863       67.23120342784135       56.43341464103815
H           64.73169979700536       68.52229595225201       55.24331507608296
H           67.27597984199835       67.54878114998186       57.74808427491260
H           65.71072165831171       67.41884936228335       58.54856914901430
H           67.92051370288991       69.41951170523249       59.12176771937671
H           66.37915639311643       70.36121676017119       60.85792198785216
H           65.83694722798207       70.71296073400778       59.22263276480754
H           65.05325064000398       69.43661630123336       60.15860058086158
H           66.39492121015084       67.47679889319134       60.88444262493228
H           67.74844452456799       68.48780505484781       61.38360498909346
H           67.91704888197364       66.18105065820042       59.40263542814701
H           69.60248002013103       67.90403711216263       58.89268506493053
H           70.09628695392267       67.95319635090398       60.58566734308026
H           70.37384221660174       66.50119819439423       59.62295845989587
H           68.88874123456159       66.45515512659485       62.26760852748316
H           69.25921362050454       65.10687403167857       61.19756436088511
H           66.46147722864251       65.83500600585350       62.16125824345344
H           66.37270830811741       64.76253761523307       59.95827540606469
H           67.47317368503055       63.49275763639595       60.49779296394996
H           65.85855408926311       63.61674115929404       61.19026876813682
H           68.27349104259604       63.51788875853875       62.90035158913298
H           66.60053571426225       63.73113445669309       63.41565590417976
H           69.01973487866672       65.35342909083550       64.27304484174257
H           67.40504718957638       66.68176583375666       65.66301050294236
H           67.23099699964929       66.99827248453974       63.94204127974075
H           66.07170230446296       65.95402171975137       64.76853516496702
H           66.89084811072678       63.86581019322347       65.84949950566775
H           68.32117197890126       64.64787460661108       66.51092546167814
H           68.35343163018712       62.21317081550489       64.68571239929004
H           70.76754721768742       62.09503507873006       65.38600263270490
H           70.41152864572467       63.52646928189632       64.42877571416335
H           70.58507064564856       63.65887672138777       66.17880378373438
H           67.42671414438067       62.07915279230624       67.13911968374043
H           69.09871032656797       62.31506805084296       67.61259744309650
H           69.68940020657391       60.30580044198096       66.15535337380295
H           69.62247707508340       60.22355160430775       68.60325363118464
H           67.89554922532874       59.88402395238064       68.58294046463304
H           69.03237476935884       58.70940493731553       67.92312854630210
H           67.95090737214981       58.65411888081697       65.75758990784115
H           67.79014581857456       60.06662157950744       64.73921377744641
H           66.15811148733695       60.25315278277659       67.20039899688892
H           64.46391807301899       61.00634658171670       65.60645185367304
H           65.99422960258802       61.79619563701951       65.23175732163311
H           65.43731477952809       60.44203879917028       64.24964927279056
H           65.69553349502006       58.02819373493871       65.19516671250302
H           64.39356254009522       58.70457099942504       66.16873885016753
H           66.88002050080250       57.48086379577033       67.40187886024759
H           65.50359091895207       59.05825818433921       68.81961847953045
H           64.10858972872884       58.01406747502146       68.55982335611472
H           65.51777164235303       57.41831296829368       69.44203260415613
H           65.70019594450557       55.84023411253074       65.98611510100363
H           64.17122745075362       56.27380565202885       66.73672290777444
H           64.95224622312277       55.33676884689578       68.88905114895914
H           63.69525452211363       54.00197300629763       67.18995267670655
H           65.22281480457070       53.40034027908459       66.54957745495648
H           64.72494013668907       52.99458255266406       68.19427337634436
H           67.35718169892250       55.68448188339922       68.65533706165357
H           67.40704584952377       54.65233152088717       67.23081717975737
H           66.87658790606073       52.68201529049514       68.65195869179210
H           69.14185850888171       52.58589579547993       69.65592304137360
H           69.19467140569125       53.34727535880494       68.07522789434378
H           69.28129471467673       54.33806996633322       69.53108936219350
H           65.67844739821133       53.95971307475705       70.45551785052992
H           67.22115820715787       54.65124512300218       70.94524645234387
H           68.03253997251625       52.34262821273173       71.47812540127124
H           66.76440337569827       52.21413507841218       73.58908289829866
H           67.14870491383115       53.88637891992992       73.18670624425002
H           65.51871123820257       53.26923152634297       72.91398033725204
H           65.36480894784425       51.64282510658855       70.37756168225222
H           65.68136809668258       50.91571953085953       71.94453522326135
H           67.49018297101934       50.59683205568820       69.52361619628506
H           67.51091264534166       49.20472525836576       72.23688770864133
H           68.57475317351481       48.84053855163828       70.87713908453955
H           68.70095477695693       50.38659402113430       71.70407920976653
H           65.52226359623323       48.70034486470299       70.85846696124847
H           66.66770077922105       48.22882186539256       69.60700051330956
H           64.36965786152584       50.18663107538277       69.19744417309552
H           66.21743798123070       50.69657316354421       67.66741276250568
H           66.39420477986256       48.99003551933394       67.25996590078000
H           64.94400945632111       49.87136413779179       66.77877048381986
H           64.74233495219865       47.33667751474704       68.22015521692400
H           63.40195369582821       48.40863416824256       67.82063027157092
H           63.99558506253594       47.18625664593696       70.54360645091907
H           63.11352489758191       49.44512915295520       70.91698629183711
H           61.82080972840107       49.16500193091014       69.74877125182903
H           61.85907531346012       48.26109137144763       71.25956709429207
H           61.68745845329443       46.87272873489000       68.58932781774965
H           61.74997719351575       46.17346864069565       70.20371184750404
H           63.59622759102311       45.46332255644566       67.89304193102130
H           63.44341659239602       44.37310406001556       70.73772161793507
H           64.36029805679067       43.62242557436317       69.43294810560620
H           64.81198951512577       45.21790460162100       70.00855216429849
H           61.14798764666170       44.76080140705476       67.82038298509941
H           61.44246831730475       43.83567533307684       69.28999150043194
H           63.14335976918628       42.48426241155811       68.06953449649478
H           61.48246568254427       41.20789504769914       66.73593564396680
H           60.84098594116411       41.69070247550437       68.30388922525435
H           60.35916918520574       42.56656908697821       66.84688678586843
H           62.71038378190592       44.52911456428495       66.02287909927273
H           62.39412744097292       42.93795223125580       65.36047689825686
H           64.94069720742965       43.56537513900929       66.88613547248156
H           64.28392957447460       41.15254418481031       66.65555897335170
H           64.24172869278962       41.35647866276950       64.90534397668321
H           65.76486675559077       41.52975513648050       65.78078050149810
H           64.28499618717208       43.78380485525701       63.93256613298472
H           65.93379521519678       43.53361914145535       64.49259520682749
H           64.28650341902920       45.91507219336020       65.41904368634283
H           66.22785085480571       45.32291263339061       66.82829199704788
H           67.27372248652335       45.33645957936457       65.41073117908641
H           66.50761429295400       46.83103820871718       65.96338535345922
H           65.66942027108051       45.37450842563126       62.84186659316536
H           66.18002713350825       46.85922752627147       63.62771274014509
H           63.96070441569643       47.75783228700485       63.63337166198465
H           63.76828414450544       48.04145863376670       61.18052713202776
H           65.46977848024859       47.91411766052715       61.61511008650737
H           64.63101235481842       46.52558082071381       60.92461330878243
H           62.67592181349293       45.64679759226307       63.94907885935189
H           63.07476570063719       45.17021959760692       62.30102751112191
H           61.79069229701522       47.05408124609291       61.41657300321324
H           60.72513987811867       44.85981983984959       61.80195789238036
H           60.26440302647219       45.35798668604637       63.42815479799561
H           59.56645976684636       46.16984672874787       62.02704284210157
H           61.73689533421643       47.89937163082183       64.25746422167558
H           60.14490384510759       47.89533404341888       63.51807242315096
H           62.52163706165105       49.36429904946146       62.32642303691213
H           60.70540064538065       48.68357211988667       60.71253077248890
H           59.54572828732013       49.55120088427224       61.71564996814641
H           60.84793907042683       50.42540787499412       60.90598264683813
H           60.20983148829593       50.30161860019154       64.05006791535880
H           61.16824764110815       51.39737291580914       63.05884406799738
H           62.27690931636970       49.72291123113564       65.34802781289243
H           64.03653647985759       50.11076428657764       63.70041638735375
H           63.55868451140199       51.79812121590543       63.52239412336773
H           64.27995640976879       51.23850082934974       65.02697562495500
H           61.80847890391960       52.71469558912068       65.11888407582140
H           62.55695930229867       51.88766236189210       66.47940924466502
H           59.64486312951611       51.57879780801809       65.63781570817338
H           60.44635714612775       49.50775913011594       66.66685127082062
H           61.20556168893919       50.41641491378983       67.97659130411677
H           59.44623085401965       50.37946397564228       67.82671200632598
H           60.89264013974871       52.94389664845048       68.04583065234468
H           59.17141008124311       52.70526827446287       67.75894644554965
H           61.05644500240625       54.56965499037511       66.28201123339112
H           58.22784890183743       53.76508016278351       65.49234078338807
H           59.09373820932920       55.17147319710634       64.86046496843932
H           59.69434475414172       53.55047841860698       64.53153262597499
H           58.44854903101917       54.93436454834027       67.80655083563734
H           59.25065698729925       56.21438985546662       66.90170278302377
H           60.50604260066056       54.77299364540547       69.26518823143049
H           62.16502968092470       55.81891962268169       67.75915603681626
H           61.26873992138140       57.34133441361923       67.80478166828975
H           62.04798825922803       56.72313857237566       69.26245495771259
H           63.22271421216867       70.54203998361989       52.42285958953077
H           62.05618105079561       71.28358359230437       51.32996398619252
C           61.94075394937369       45.98598779559900       37.93656767854127
C           60.64034663829448       46.62091107106252       38.42225452849814
C           60.88693265642450       48.07683643095453       38.81583447656982
C           60.04944989035656       45.86873792125035       39.62011224653361
C           59.62500549640458       44.41878832009028       39.36321431424498
C           58.59531935822240       44.33032314884301       38.23567302997080
C           59.01457455586541       43.79311574069865       40.62632122727079
C           59.91358927081839       43.70239787491751       41.86898891639737
C           61.20736039769085       42.94979966639829       41.57069490772282
C           59.11180620587244       43.00183226035358       42.97541345845256
C           59.69304948876672       43.03782147916301       44.39789639831575
C           58.77983875163859       42.19832674708218       45.29236147746057
C           59.81741229937074       44.48915632763983       44.88346216795254
C           60.10036093579586       44.69154510371807       46.37617039642937
C           59.97471425045878       46.17375147659531       46.73768510258288
C           61.41880650735903       44.07876194293132       46.88473002511275
C           62.70395699968974       44.14061960523746       46.03952810411166
C           63.78216184318029       43.37445902140526       46.81131938180605
C           63.17136469857707       45.56657771190281       45.72921676319442
C           64.40288473666199       45.68518803868739       44.81373217079433
C           64.88934801419292       47.13463479996603       44.84517925805657
C           64.07520893147911       45.24544453802537       43.37509148559103
C           65.11943456056210       44.37776128694475       42.65215138900044
C           65.42893458006309       43.08917165949772       43.41678638313343
C           66.43424676886680       45.09771175718138       42.32293562758633
C           66.33707593027306       46.25763252879042       41.32209046013782
C           65.60652059536211       45.84155266618983       40.04447911429035
C           67.73916060301049       46.75714267720385       40.93703872112302
C           68.49653796338804       47.58681133778457       41.98476451590422
C           67.81814251512512       48.93951206434699       42.18699363250181
C           69.94099145001650       47.77162276506234       41.49331376079144
C           70.93915631216952       48.39268925119747       42.48352761803492
C           72.17799921890010       48.84251546462804       41.70860530848259
C           71.31086409682830       47.38864585035536       43.58067637429268
C           72.14333711052679       47.95594346828064       44.73910488479331
C           72.61069517939502       46.80457347906319       45.63107845252445
C           71.36053526166594       48.99658417746514       45.56209839215239
C           71.91124944044513       50.42514855287283       45.47068131698647
C           73.22303547565461       50.54149098032324       46.24523299509745
C           70.89073801137565       51.43024830479190       46.02557339588500
C           69.77884650108011       51.80080831662089       45.03659227260642
C           70.28798348550545       52.82721889554590       44.02457148666827
C           68.54856822429035       52.36999339612053       45.75680016240901
C           67.71036528617077       51.36260474347007       46.55398985146353
C           67.21055098214256       50.22714589846001       45.66138971356482
C           66.48734045730900       52.05110534915577       47.17781189248299
C           66.76561255052525       53.12609553122978       48.23381881693999
C           67.52093489131633       52.54012458420988       49.42639769336442
C           65.45052440053163       53.74862385723203       48.72967176404153
C           64.62523158801291       54.49867259888774       47.67803926765051
C           65.41880940773844       55.66050678380109       47.08049953042187
C           63.32281737899893       55.04623208807524       48.27893226436408
C           62.33503738890536       54.01768365468663       48.84885520371184
C           62.02875782093342       52.91651241506530       47.83666758445787
C           61.04602021889860       54.75350637296561       49.24590276996140
C           60.12211400949741       53.99131538451341       50.20844433619568
C           58.69923915998056       54.53302791819964       50.07318609381761
C           60.62614931519774       54.13809921159287       51.64912905899973
C           59.99452079192161       53.18783163320200       52.67889371472968
C           60.27054652817172       53.72783277525771       54.08178615823377
C           60.54320329180891       51.76558071124693       52.50210616166143
C           60.12154489006916       50.73076502403220       53.55691461571191
C           60.84784208167328       49.41570406008760       53.27704325210991
C           58.60272816343479       50.52830113872098       53.56351726009255
C           58.04875459310272       49.59192845846207       54.64808899818115
C           56.57638209075945       49.31564101811171       54.34340086349358
C           58.21908665864324       50.20968364465930       56.04093779211136
C           57.94806251172464       49.27881755246956       57.23334612060820
C           57.90627201132082       50.12078608034867       58.50757044898954
C           59.03058345033524       48.19833838541657       57.33303822145152
C           58.85854323050317       47.15327449595166       58.44531928219123
C           60.14822693030563       46.34052275577079       58.55466157761125
C           57.63959626260387       46.26241123118475       58.17326054241268
C           57.41429923645481       45.15190764616108       59.21575850904231
C           57.84786413711735       43.79969534537182       58.64977240168697
C           55.95370840483796       45.03607712702567       59.67706715211470
C           55.35673085704829       46.26870901075941       60.36735899994657
C           56.27791805779547       46.80148616157130       61.46425009531924
C           53.99432289517552       45.93630065658530       60.99635688899197
C           52.90700037277259       45.42071836567597       60.04758345965752
C           52.65053944100574       46.40601760591514       58.90739845132544
C           51.58310006359446       45.19383678887966       60.79437421262529
C           51.59627575635883       44.20646468040217       61.97216084155531
C           52.12292512629919       42.83764614355951       61.54982704399793
C           50.16035554397455       44.11327302245608       62.51119829526663
C           49.92845491761424       43.24449984327105       63.75630552503356
C           48.42299537447994       43.14793113444441       64.01081872009370
C           50.66350216596945       43.80426819002394       64.97819482591724
C           50.49691011217043       42.95958238723693       66.24054410259104
C           51.39574378782059       43.44801126478254       67.37095849880019
H           62.66890233252851       45.94699883087019       38.74420529108966
H           61.77373264985538       44.97547753963233       37.57316500281076
H           62.36686903459841       46.56944374781621       37.12289869666983
H           51.17690753498644       44.48652475590865       67.61203039660374
H           51.23947071815041       42.85143841326434       68.26710594518306
H           52.44272724031374       43.37234509423738       67.08774796435583
H           51.72822238797413       43.86482919968081       64.74898539060435
H           50.30768964011593       44.81901266162046       65.17410314017276
H           49.81046704251862       45.12543815622282       62.73304111186827
H           49.53135168294059       43.72120513417552       61.70730579270035
H           52.24181905558079       44.60654899625234       62.75848038775563
H           51.50791396995925       42.42450642016941       60.75276556534023
H           53.14678016412714       42.91180967582961       61.19248924908671
H           52.11507503318384       42.14506755538271       62.38705963192714
H           51.23133845717891       46.16050443334407       61.16468521841922
H           50.84756977264504       44.83874876382120       60.06748387245840
H           54.16275698128982       45.19117699430462       61.77691855454871
H           53.61481280821035       46.84035678966665       61.47976790094463
H           50.30024488580751       42.23352849612311       63.56254645068405
H           48.02242721212261       44.11561891259876       64.30675974462855
H           47.90494605252029       42.82596195034475       63.10963087781242