      -----------------------------------------------------------      
     |                   =====================                   |     
     |                           x T B                           |     
     |                   =====================                   |     
     |                         S. Grimme                         |     
     |          Mulliken Center for Theoretical Chemistry        |     
     |                    University of Bonn                     |     
      -----------------------------------------------------------      

   * xtb version 6.6.1 (8d0f1dd) compiled by 'stahn@M-Bot' on 2023-08-01

   xtb is free software: you can redistribute it and/or modify it under
   the terms of the GNU Lesser General Public License as published by
   the Free Software Foundation, either version 3 of the License, or
   (at your option) any later version.
   
   xtb is distributed in the hope that it will be useful,
   but WITHOUT ANY WARRANTY; without even the implied warranty of
   MERCHANTABILITY or FITNESS FOR A PARTICULAR PURPOSE.  See the
   GNU Lesser General Public License for more details.
   
   Cite this work as:
   * C. Bannwarth, E. Caldeweyher, S. Ehlert, A. Hansen, P. Pracht,
     J. Seibert, S. Spicher, S. Grimme, WIREs Comput. Mol. Sci., 2020, 11,
     e01493. DOI: 10.1002/wcms.1493
   
   for GFN2-xTB:
   * C. Bannwarth, S. Ehlert and S. Grimme., J. Chem. Theory Comput., 2019,
     15, 1652-1671. DOI: 10.1021/acs.jctc.8b01176
   for GFN1-xTB:
   * S. Grimme, C. Bannwarth, P. Shushkov, J. Chem. Theory Comput., 2017,
     13, 1989-2009. DOI: 10.1021/acs.jctc.7b00118
   for GFN0-xTB:
   * P. Pracht, E. Caldeweyher, S. Ehlert, S. Grimme, ChemRxiv, 2019, preprint.
     DOI: 10.26434/chemrxiv.8326202.v1
   for GFN-FF:
   * S. Spicher and S. Grimme, Angew. Chem. Int. Ed., 2020, 59, 15665-15673.
     DOI: 10.1002/anie.202004239
   
   for ALPB and GBSA implicit solvation:
   * S. Ehlert, M. Stahn, S. Spicher, S. Grimme, J. Chem. Theory Comput.,
     2021, 17, 4250-4261. DOI: 10.1021/acs.jctc.1c00471
   
   for DFT-D4:
   * E. Caldeweyher, C. Bannwarth and S. Grimme, J. Chem. Phys., 2017,
     147, 034112. DOI: 10.1063/1.4993215
   * E. Caldeweyher, S. Ehlert, A. Hansen, H. Neugebauer, S. Spicher,
     C. Bannwarth and S. Grimme, J. Chem. Phys., 2019, 150, 154122.
     DOI: 10.1063/1.5090222
   * E. Caldeweyher, J.-M. Mewes, S. Ehlert and S. Grimme, Phys. Chem. Chem. Phys.
     2020, 22, 8499-8512. DOI: 10.1039/D0CP00502A
   
   for sTDA-xTB:
   * S. Grimme and C. Bannwarth, J. Chem. Phys., 2016, 145, 054103.
     DOI: 10.1063/1.4959605
   
   in the mass-spec context:
   * V. Asgeirsson, C. Bauer and S. Grimme, Chem. Sci., 2017, 8, 4879.
     DOI: 10.1039/c7sc00601b
   * J. Koopman and S. Grimme, ACS Omega 2019, 4, 12, 15120-15133.
     DOI: 10.1021/acsomega.9b02011
   
   for metadynamics refer to:
   * S. Grimme, J. Chem. Theory Comput., 2019, 155, 2847-2862
     DOI: 10.1021/acs.jctc.9b00143
   
   for SPH calculations refer to:
   * S. Spicher and S. Grimme, J. Chem. Theory Comput., 2021, 17, 1701-1714
     DOI: 10.1021/acs.jctc.0c01306
   
   with help from (in alphabetical order)
   P. Atkinson, C. Bannwarth, F. Bohle, G. Brandenburg, E. Caldeweyher
   M. Checinski, S. Dohm, S. Ehlert, S. Ehrlich, I. Gerasimov, C. Hölzer
   A. Katbashev, J. Koopman, C. Lavigne, S. Lehtola, F. März, M. Müller,
   F. Musil, H. Neugebauer, J. Pisarek, C. Plett, P. Pracht, F. Pultar,
   J. Seibert, P. Shushkov, S. Spicher, M. Stahn, M. Steiner, T. Strunk,
   J. Stückrath, T. Rose, and J. Unsleber
   
 * started run on 2024/06/17 at 14:58:05.372     

           -------------------------------------------------
          |                Calculation Setup                |
           -------------------------------------------------

          program call               : /home/abt-grimme/AK-bin/xtb input.xyz --input input.inp --opt --gbsa water
          hostname                   : boar065.thch.uni-bonn.de
          coordinate file            : input.xyz
          omp threads                :                     8

   ID    Z sym.   atoms
    1    6 C      1-120, 363-482, 725-844, 1087-1206, 1449-1568, 1811-1930,
                  2173-2292, 2535-2654, 2897-3016
    2    1 H      121-362, 483-724, 845-1086, 1207-1448, 1569-1810,
                  1931-2172, 2293-2534, 2655-2896, 3017-3258

molecular fragmentation (1/2 indicates fragments):
111111111111111111111111111111111111111111111111111111111111111111111111
111111111111111111111111111111111111111111111111111111111111111111111111
111111111111111111111111111111111111111111111111111111111111111111111111
111111111111111111111111111111111111111111111111111111111111111111111111
111111111111111111111111111111111111111111111111111111111111111111111111
112222222222222222222222222222222222222222222222222222222222222222222222
222222222222222222222222222222222222222222222222222222222222222222222222
222222222222222222222222222222222222222222222222222222222222222222222222
222222222222222222222222222222222222222222222222222222222222222222222222
222222222222222222222222222222222222222222222222222222222222222222222222
222222222222222222222222222222222222222222222222222222222222222222222222
222222222222222222222222222222222222222222222222222222222222222222222222
222222222222222222222222222222222222222222222222222222222222222222222222
222222222222222222222222222222222222222222222222222222222222222222222222
222222222222222222222222222222222222222222222222222222222222222222222222
222222222222222222222222222222222222222222222222222222222222222222222222
222222222222222222222222222222222222222222222222222222222222222222222222
222222222222222222222222222222222222222222222222222222222222222222222222
222222222222222222222222222222222222222222222222222222222222222222222222
222222222222222222222222222222222222222222222222222222222222222222222222
222222222222222222222222222222222222222222222222222222222222222222222222
222222222222222222222222222222222222222222222222222222222222222222222222
222222222222222222222222222222222222222222222222222222222222222222222222
222222222222222222222222222222222222222222222222222222222222222222222222
222222222222222222222222222222222222222222222222222222222222222222222222
222222222222222222222222222222222222222222222222222222222222222222222222
222222222222222222222222222222222222222222222222222222222222222222222222
222222222222222222222222222222222222222222222222222222222222222222222222
222222222222222222222222222222222222222222222222222222222222222222222222
222222222222222222222222222222222222222222222222222222222222222222222222
222222222222222222222222222222222222222222222222222222222222222222222222
222222222222222222222222222222222222222222222222222222222222222222222222
222222222222222222222222222222222222222222222222222222222222222222222222
222222222222222222222222222222222222222222222222222222222222222222222222
222222222222222222222222222222222222222222222222222222222222222222222222
222222222222222222222222222222222222222222222222222222222222222222222222
222222222222222222222222222222222222222222222222222222222222222222222222
222222222222222222222222222222222222222222222222222222222222222222222222
222222222222222222222222222222222222222222222222222222222222222222222222
222222222222222222222222222222222222222222222222222222222222222222222222
222222222222222222222222222222222222222222222222222222222222222222222222
222222222222222222222222222222222222222222222222222222222222222222222222
222222222222222222222222222222222222222222222222222222222222222222222222
222222222222222222222222222222222222222222222222222222222222222222222222
222222222222222222222222222222222222222222222222222222222222222222222222
222222222222222222
# atoms in fragment 1/2:   362  2896
 fragment masses (1/2) :     1685.21    13481.68
CMA distance (Bohr)    :  15.041
constraining FC (au)   :  0.0500

           -------------------------------------------------
          |                 G F N 2 - x T B                 |
           -------------------------------------------------

        Reference                      10.1021/acs.jctc.8b01176
      * Hamiltonian:
        H0-scaling (s, p, d)           1.850000    2.230000    2.230000
        zeta-weighting                 0.500000
      * Dispersion:
        s8                             2.700000
        a1                             0.520000
        a2                             5.000000
        s9                             5.000000
      * Repulsion:
        kExp                           1.500000    1.000000
        rExp                           1.000000
      * Coulomb:
        alpha                          2.000000
        third order                    shell-resolved
        anisotropic                    true
        a3                             3.000000
        a5                             4.000000
        cn-shift                       1.200000
        cn-exp                         4.000000
        max-rad                        5.000000

      * Solvation model:               GBSA
        Solvent                        water
        Parameter file                 internal GFN2-xTB/GBSA
        Dielectric constant                8.0200E+01
        Reference state                gsolv [1 M gas/solution]
        Free energy shift                  1.8574E-03 Eh       1.1656E+00 kcal/mol
        Temperature                        2.9815E+02 K
        Density                            1.0000E+00 kg/L
        Solvent mass                       1.8000E+01 g/mol
        Interaction kernel             Still
        Born radius scaling (c1)           1.5524E+00
        Born radii integrator          GBOBC
        Born offset                        2.4628E-02 a0       4.6540E-02 AA
        H-bond correction              true
        Ion screening                  false
        Surface tension                    1.0000E-05 Eh       1.5569E+01 dyn/cm
        Grid points                               230 per atom
q/qsh data taken from xtbrestart
CAMM data taken from xtbrestart

          ...................................................
          :                      SETUP                      :
          :.................................................:
          :  # basis functions                6498          :
          :  # atomic orbitals                6498          :
          :  # shells                         4338          :
          :  # electrons                      6498          :
          :  max. iterations                   250          :
          :  Hamiltonian                  GFN2-xTB          :
          :  restarted?                       true          :
          :  GBSA solvation                   true          :
          :  PC potential                    false          :
          :  electronic temp.          300.0000000     K    :
          :  accuracy                    1.0000000          :
          :  -> integral cutoff          0.2500000E+02      :
          :  -> integral neglect         0.1000000E-07      :
          :  -> SCF convergence          0.1000000E-05 Eh   :
          :  -> wf. convergence          0.1000000E-03 e    :
          :  Broyden damping             0.4000000          :
          ...................................................

 iter      E             dE          RMSdq      gap      omega  full diag
   1  -3472.2408170 -0.347224E+04  0.755E-05   10.93       0.0  T
   2  -3472.2408170 -0.363616E-08  0.578E-05   10.93      30.3  T
   3  -3472.2408170 -0.450336E-08  0.296E-05   10.93      59.2  T

   *** convergence criteria satisfied after 3 iterations ***

         #    Occupation            Energy/Eh            Energy/eV
      -------------------------------------------------------------
         1        2.0000           -0.6171799             -16.7943
       ...           ...                  ...                  ...
      3243        2.0000           -0.3885913             -10.5741
      3244        2.0000           -0.3883722             -10.5681
      3245        2.0000           -0.3875543             -10.5459
      3246        2.0000           -0.3874616             -10.5434
      3247        2.0000           -0.3868826             -10.5276
      3248        2.0000           -0.3864752             -10.5165
      3249        2.0000           -0.3861503             -10.5077 (HOMO)
      3250                          0.0155889               0.4242 (LUMO)
      3251                          0.0162909               0.4433
      3252                          0.0167435               0.4556
      3253                          0.0176025               0.4790
      3254                          0.0189760               0.5164
       ...                                ...                  ...
      6498                          0.3751012              10.2070
      -------------------------------------------------------------
                  HL-Gap            0.4017392 Eh           10.9319 eV
             Fermi-level           -0.1852807 Eh           -5.0417 eV

 SCC (total)                   0 d,  0 h,  6 min, 41.910 sec
 SCC setup                      ...        0 min,  1.734 sec (  0.432%)
 Dispersion                     ...        0 min,  4.173 sec (  1.038%)
 classical contributions        ...        0 min,  0.125 sec (  0.031%)
 integral evaluation            ...        0 min,  5.928 sec (  1.475%)
 iterations                     ...        2 min, 58.167 sec ( 44.330%)
 molecular gradient             ...        3 min, 23.121 sec ( 50.539%)
 printout                       ...        0 min,  8.661 sec (  2.155%)

         :::::::::::::::::::::::::::::::::::::::::::::::::::::
         ::                     SUMMARY                     ::
         :::::::::::::::::::::::::::::::::::::::::::::::::::::
         :: total energy           -3426.830483585537 Eh    ::
         :: total w/o Gsasa/hb     -3426.732977135147 Eh    ::
         :: gradient norm              0.632325459091 Eh/a0 ::
         :: HOMO-LUMO gap             10.931878934238 eV    ::
         ::.................................................::
         :: SCC energy             -3472.240817042434 Eh    ::
         :: -> isotropic ES            0.282192902719 Eh    ::
         :: -> anisotropic ES          1.292093184117 Eh    ::
         :: -> anisotropic XC          2.136705277173 Eh    ::
         :: -> dispersion             -4.187850846923 Eh    ::
         :: -> Gsolv                  -0.033421668884 Eh    ::
         ::    -> Gelec                0.064084781506 Eh    ::
         ::    -> Gsasa               -0.094860055354 Eh    ::
         ::    -> Ghb                 -0.004503838163 Eh    ::
         ::    -> Gshift               0.001857443127 Eh    ::
         :: repulsion energy          44.742320020796 Eh    ::
         :: add. restraining           0.000000000000 Eh    ::
         :: total charge              -0.000000000015 e     ::
         :::::::::::::::::::::::::::::::::::::::::::::::::::::

      ----------------------------------------------------------- 
     |              Fast Inertial Relaxation Engine              |
      ----------------------------------------------------------- 

          ...................................................
          :                      SETUP                      :
          :.................................................:
          :   energy convergence        0.5000000E-05 Eh    :
          :   grad. convergence         0.1000000E-02 Eh/a0 :
          :   optimization log               true           :
          :   writing optlog all                1     steps :
          :   Hessian reset                    20     steps :
          :   time step scaling                 5     steps :
          :   maximium step len.        1.0000000     a0    :
          :   initial time step         0.2500000     fs    :
          :   maximum time step         1.2500000     fs    :
          :   power reset thr           0.0000000     au    :
          :   alpha parameter           0.1000000           :
          :   BFGS update                   false           :
          :   preconditioning               false           :
          ...................................................

........................................................................
.............................. CYCLE    1 ..............................
........................................................................

 iter      E             dE          RMSdq      gap      omega  full diag
   1  -3472.4744476 -0.347247E+04  0.746E-03   10.96       0.0  T
   2  -3472.4744915 -0.439175E-04  0.392E-03   10.96       1.0  T
   3  -3472.4744919 -0.406007E-06  0.181E-03   10.96       1.0  T
   4  -3472.4744921 -0.137774E-06  0.217E-04   10.96       8.1  T
   5  -3472.4744921 -0.338036E-07  0.135E-04   10.96      12.9  T
     SCC iter.                  ...        4 min, 54.055 sec
     gradient                   ...        3 min, 26.111 sec
 * total energy  : -3426.8758995 Eh     change    :  -0.4541596E-01 Eh
   gradient norm :     0.5984319 Eh/a0  converged?    E=F G=F D=F
   time step     :     0.2500000 fs     power     :   0.2343804E-05
   step length   :     0.0741072 a0     speed     :   0.7170269E-02

........................................................................
.............................. CYCLE    2 ..............................
........................................................................

 iter      E             dE          RMSdq      gap      omega  full diag
   1  -3472.8187615 -0.347282E+04  0.109E-02   10.99       0.0  T
   2  -3472.8188555 -0.939885E-04  0.572E-03   10.99       1.0  T
   3  -3472.8188564 -0.928118E-06  0.265E-03   10.99       1.0  T
   4  -3472.8188567 -0.329907E-06  0.333E-04   10.99       5.3  T
   5  -3472.8188568 -0.779378E-07  0.213E-04   10.99       8.2  T
     SCC iter.                  ...        4 min, 48.090 sec
     gradient                   ...        3 min, 23.718 sec
 * total energy  : -3426.9383740 Eh     change    :  -0.6247447E-01 Eh
   gradient norm :     0.5499426 Eh/a0  converged?    E=F G=F D=F
   time step     :     0.2500000 fs     power     :   0.3171446E-05
   step length   :     0.1090632 a0     speed     :   0.1055245E-01

........................................................................
.............................. CYCLE    3 ..............................
........................................................................

 iter      E             dE          RMSdq      gap      omega  full diag
   1  -3473.2646631 -0.347326E+04  0.140E-02   11.00       0.0  T
   2  -3473.2648160 -0.152843E-03  0.733E-03   11.00       1.0  T
   3  -3473.2648176 -0.159895E-05  0.337E-03   11.00       1.0  T
   4  -3473.2648181 -0.561393E-06  0.435E-04   11.00       4.0  T
   5  -3473.2648183 -0.128988E-06  0.280E-04   11.00       6.3  T
     SCC iter.                  ...        4 min, 48.290 sec
     gradient                   ...        3 min, 25.095 sec
 * total energy  : -3427.0114189 Eh     change    :  -0.7304493E-01 Eh
   gradient norm :     0.4894221 Eh/a0  converged?    E=F G=F D=F
   time step     :     0.2500000 fs     power     :   0.3637090E-05
   step length   :     0.1411753 a0     speed     :   0.1365947E-01

........................................................................
.............................. CYCLE    4 ..............................
........................................................................

 iter      E             dE          RMSdq      gap      omega  full diag
   1  -3473.8006158 -0.347380E+04  0.166E-02   11.00       0.0  T
   2  -3473.8008263 -0.210531E-03  0.868E-03   11.00       1.0  T
   3  -3473.8008287 -0.237620E-05  0.395E-03   11.00       1.0  T
   4  -3473.8008295 -0.806084E-06  0.526E-04   11.00       3.3  T
   5  -3473.8008297 -0.178685E-06  0.338E-04   11.00       5.2  T
     SCC iter.                  ...        4 min, 54.711 sec
     gradient                   ...        3 min, 23.672 sec
 * total energy  : -3427.0877426 Eh     change    :  -0.7632368E-01 Eh
   gradient norm :     0.4213015 Eh/a0  converged?    E=F G=F D=F
   time step     :     0.2500000 fs     power     :   0.3711268E-05
   step length   :     0.1695902 a0     speed     :   0.1640876E-01

........................................................................
.............................. CYCLE    5 ..............................
........................................................................

 iter      E             dE          RMSdq      gap      omega  full diag
   1  -3474.4127390 -0.347441E+04  0.185E-02   11.00       0.0  T
   2  -3474.4129954 -0.256372E-03  0.971E-03   11.00       1.0  T
   3  -3474.4129986 -0.321156E-05  0.435E-03   11.00       1.0  T
   4  -3474.4129996 -0.103407E-05  0.604E-04   11.00       2.9  T
   5  -3474.4129999 -0.217134E-06  0.386E-04   11.00       4.5  T
   6  -3474.4130000 -0.104224E-06  0.152E-04   11.00      11.5  T
     SCC iter.                  ...        5 min, 53.968 sec
     gradient                   ...        3 min, 22.530 sec
 * total energy  : -3427.1602867 Eh     change    :  -0.7254404E-01 Eh
   gradient norm :     0.3523064 Eh/a0  converged?    E=F G=F D=F
   time step     :     0.2500000 fs     power     :   0.3423387E-05
   step length   :     0.1935772 a0     speed     :   0.1872963E-01

........................................................................
.............................. CYCLE    6 ..............................
........................................................................

 iter      E             dE          RMSdq      gap      omega  full diag
   1  -3475.1581671 -0.347516E+04  0.220E-02   11.00       0.0  T
   2  -3475.1585101 -0.343039E-03  0.115E-02   11.00       1.0  T
   3  -3475.1585150 -0.493179E-05  0.503E-03   11.00       1.0  T
   4  -3475.1585165 -0.143543E-05  0.730E-04   11.00       2.4  T
   5  -3475.1585167 -0.280775E-06  0.457E-04   11.00       3.8  T
   6  -3475.1585169 -0.122110E-06  0.164E-04   11.00      10.7  T
     SCC iter.                  ...        5 min, 47.298 sec
     gradient                   ...        3 min, 23.709 sec
 * total energy  : -3427.2292498 Eh     change    :  -0.6896314E-01 Eh
   gradient norm :     0.2859313 Eh/a0  converged?    E=F G=F D=F
   time step     :     0.2750000 fs     power     :   0.2781302E-05
   step length   :     0.2358835 a0     speed     :   0.2074818E-01

........................................................................
.............................. CYCLE    7 ..............................
........................................................................

 iter      E             dE          RMSdq      gap      omega  full diag
   1  -3476.0313743 -0.347603E+04  0.251E-02   11.00       0.0  T
   2  -3476.0317770 -0.402685E-03  0.132E-02   11.00       1.0  T
   3  -3476.0317842 -0.729106E-05  0.545E-03   11.00       1.0  T
   4  -3476.0317861 -0.189229E-05  0.864E-04   11.00       2.0  T
   5  -3476.0317865 -0.320505E-06  0.531E-04   10.99       3.3  T
   6  -3476.0317866 -0.140621E-06  0.172E-04   10.99      10.2  T
     SCC iter.                  ...        5 min, 52.291 sec
     gradient                   ...        3 min, 22.974 sec
 * total energy  : -3427.2865308 Eh     change    :  -0.5728100E-01 Eh
   gradient norm :     0.2421838 Eh/a0  converged?    E=F G=F D=F
   time step     :     0.3025000 fs     power     :   0.1881895E-05
   step length   :     0.2779279 a0     speed     :   0.2222398E-01

........................................................................
.............................. CYCLE    8 ..............................
........................................................................

 iter      E             dE          RMSdq      gap      omega  full diag
   1  -3476.9959837 -0.347700E+04  0.275E-02   11.00       0.0  T
   2  -3476.9963693 -0.385560E-03  0.146E-02   11.00       1.0  T
   3  -3476.9963793 -0.999894E-05  0.537E-03   11.00       1.0  T
   4  -3476.9963814 -0.215835E-05  0.975E-04   10.99       1.8  T
   5  -3476.9963817 -0.291718E-06  0.582E-04   10.99       3.0  T
   6  -3476.9963818 -0.135378E-06  0.161E-04   10.99      10.9  T
     SCC iter.                  ...        5 min, 48.504 sec
     gradient                   ...        3 min, 23.476 sec
 * total energy  : -3427.3266857 Eh     change    :  -0.4015490E-01 Eh
   gradient norm :     0.2363802 Eh/a0  converged?    E=F G=F D=F
   time step     :     0.3327500 fs     power     :   0.9654778E-06
   step length   :     0.3137656 a0     speed     :   0.2280879E-01

........................................................................
.............................. CYCLE    9 ..............................
........................................................................

 iter      E             dE          RMSdq      gap      omega  full diag
   1  -3477.9757284 -0.347798E+04  0.294E-02   11.00       0.0  T
   2  -3477.9760032 -0.274803E-03  0.160E-02   11.00       1.0  T
   3  -3477.9760156 -0.123336E-04  0.450E-03   11.00       1.0  T
   4  -3477.9760175 -0.194731E-05  0.103E-03   11.00       1.7  T
   5  -3477.9760177 -0.186297E-06  0.581E-04   10.99       3.0  T
   6  -3477.9760178 -0.103951E-06  0.126E-04   10.99      14.0  T
     SCC iter.                  ...        5 min, 51.805 sec
     gradient                   ...        3 min, 22.884 sec
 * total energy  : -3427.3502615 Eh     change    :  -0.2357578E-01 Eh
   gradient norm :     0.2498825 Eh/a0  converged?    E=F G=F D=F
   time step     :     0.3660250 fs     power     :   0.2907844E-06
   step length   :     0.3376014 a0     speed     :   0.2231046E-01

........................................................................
.............................. CYCLE   10 ..............................
........................................................................

 iter      E             dE          RMSdq      gap      omega  full diag
   1  -3478.8765702 -0.347888E+04  0.317E-02   11.00       0.0  T
   2  -3478.8767007 -0.130507E-03  0.179E-02   11.00       1.0  T
   3  -3478.8767143 -0.135191E-04  0.288E-03   11.00       1.0  T
   4  -3478.8767156 -0.138319E-05  0.104E-03   11.00       1.7  T
   5  -3478.8767157 -0.630712E-07  0.510E-04   11.00       3.4  T
   6  -3478.8767158 -0.676687E-07  0.741E-05   11.00      23.7  T
     SCC iter.                  ...        5 min, 45.508 sec
     gradient                   ...        3 min, 23.823 sec
 * total energy  : -3427.3618184 Eh     change    :  -0.1155697E-01 Eh
   gradient norm :     0.2491609 Eh/a0  converged?    E=F G=F D=F
   time step     :     0.4026275 fs     power     :  -0.1105202E-06
   step length   :     0.3504471 a0     speed     :   0.2105397E-01

........................................................................
.............................. CYCLE   11 ..............................
........................................................................
 * reset velocities

 iter      E             dE          RMSdq      gap      omega  full diag
   1  -3478.8596551 -0.347886E+04  0.117E-03   11.00       0.0  T
   2  -3478.8596558 -0.768003E-06  0.671E-04   11.00       2.6  T
   3  -3478.8596558 -0.398086E-08  0.262E-04   11.00       6.7  T
     SCC iter.                  ...        2 min, 55.517 sec
     gradient                   ...        3 min, 22.713 sec
 * total energy  : -3427.3641439 Eh     change    :  -0.2325473E-02 Eh
   gradient norm :     0.2421012 Eh/a0  converged?    E=F G=F D=F
   time step     :     0.2013138 fs     power     :   0.1510805E-06
   step length   :     0.0094675 a0     speed     :   0.1137570E-02

........................................................................
.............................. CYCLE   12 ..............................
........................................................................

 iter      E             dE          RMSdq      gap      omega  full diag
   1  -3478.8259695 -0.347883E+04  0.230E-03   11.00       0.0  T
   2  -3478.8259725 -0.297118E-05  0.132E-03   11.00       1.3  T
   3  -3478.8259725 -0.173973E-07  0.516E-04   11.00       3.4  T
   4  -3478.8259725 -0.823866E-08  0.427E-05   11.00      41.0  T
     SCC iter.                  ...        3 min, 50.559 sec
     gradient                   ...        3 min, 26.110 sec
 * total energy  : -3427.3685339 Eh     change    :  -0.4390021E-02 Eh
   gradient norm :     0.2282660 Eh/a0  converged?    E=F G=F D=F
   time step     :     0.2013138 fs     power     :   0.2808319E-06
   step length   :     0.0186667 a0     speed     :   0.2242900E-02

........................................................................
.............................. CYCLE   13 ..............................
........................................................................

 iter      E             dE          RMSdq      gap      omega  full diag
   1  -3478.7765248 -0.347878E+04  0.337E-03   11.00       0.0  T
   2  -3478.7765312 -0.642991E-05  0.193E-03   11.00       1.0  T
   3  -3478.7765312 -0.423302E-07  0.761E-04   11.00       2.3  T
   4  -3478.7765313 -0.215327E-07  0.705E-05   11.00      24.9  T
     SCC iter.                  ...        3 min, 50.491 sec
     gradient                   ...        3 min, 24.096 sec
 * total energy  : -3427.3744980 Eh     change    :  -0.5964046E-02 Eh
   gradient norm :     0.2081017 Eh/a0  converged?    E=F G=F D=F
   time step     :     0.2013138 fs     power     :   0.3748613E-06
   step length   :     0.0273396 a0     speed     :   0.3284992E-02

........................................................................
.............................. CYCLE   14 ..............................
........................................................................

 iter      E             dE          RMSdq      gap      omega  full diag
   1  -3478.7126168 -0.347871E+04  0.433E-03   11.01       0.0  T
   2  -3478.7126275 -0.106959E-04  0.248E-03   11.01       1.0  T
   3  -3478.7126276 -0.729833E-07  0.982E-04   11.01       1.8  T
   4  -3478.7126276 -0.377377E-07  0.937E-05   11.01      18.7  T
     SCC iter.                  ...        3 min, 50.088 sec
     gradient                   ...        3 min, 22.827 sec
 * total energy  : -3427.3813738 Eh     change    :  -0.6875779E-02 Eh
   gradient norm :     0.1823331 Eh/a0  converged?    E=F G=F D=F
   time step     :     0.2013138 fs     power     :   0.4230071E-06
   step length   :     0.0352439 a0     speed     :   0.4234734E-02

........................................................................
.............................. CYCLE   15 ..............................
........................................................................

 iter      E             dE          RMSdq      gap      omega  full diag
   1  -3478.6359687 -0.347864E+04  0.516E-03   11.01       0.0  T
   2  -3478.6359840 -0.153033E-04  0.296E-03   11.01       1.0  T
   3  -3478.6359842 -0.105791E-06  0.118E-03   11.01       1.5  T
   4  -3478.6359842 -0.551677E-07  0.114E-04   11.01      15.4  T
   5  -3478.6359842 -0.152104E-07  0.752E-05   11.01      23.3  T
     SCC iter.                  ...        4 min, 56.211 sec
     gradient                   ...        3 min, 23.577 sec
 * total energy  : -3427.3884057 Eh     change    :  -0.7031889E-02 Eh
   gradient norm :     0.1519425 Eh/a0  converged?    E=F G=F D=F
   time step     :     0.2013138 fs     power     :   0.4205367E-06
   step length   :     0.0421616 a0     speed     :   0.5065925E-02

........................................................................
.............................. CYCLE   16 ..............................
........................................................................

 iter      E             dE          RMSdq      gap      omega  full diag
   1  -3478.5487455 -0.347855E+04  0.583E-03   11.01       0.0  T
   2  -3478.5487652 -0.196959E-04  0.334E-03   11.01       1.0  T
   3  -3478.5487653 -0.126479E-06  0.133E-03   11.01       1.3  T
   4  -3478.5487654 -0.639898E-07  0.122E-04   11.01      14.4  T
   5  -3478.5487654 -0.179693E-07  0.784E-05   11.01      22.3  T
     SCC iter.                  ...        4 min, 48.867 sec
     gradient                   ...        3 min, 22.049 sec
 * total energy  : -3427.3948357 Eh     change    :  -0.6430034E-02 Eh
   gradient norm :     0.1183478 Eh/a0  converged?    E=F G=F D=F
   time step     :     0.2013138 fs     power     :   0.3689276E-06
   step length   :     0.0479028 a0     speed     :   0.5755760E-02

........................................................................
.............................. CYCLE   17 ..............................
........................................................................

 iter      E             dE          RMSdq      gap      omega  full diag
   1  -3478.4431856 -0.347844E+04  0.699E-03   11.01       0.0  T
   2  -3478.4432143 -0.286677E-04  0.401E-03   11.01       1.0  T
   3  -3478.4432144 -0.179774E-06  0.161E-03   11.01       1.1  T
   4  -3478.4432145 -0.903683E-07  0.145E-04   11.01      12.1  T
   5  -3478.4432146 -0.258801E-07  0.919E-05   11.01      19.1  T
     SCC iter.                  ...        4 min, 50.518 sec
     gradient                   ...        3 min, 23.241 sec
 * total energy  : -3427.4004456 Eh     change    :  -0.5609940E-02 Eh
   gradient norm :     0.0802578 Eh/a0  converged?    E=F G=F D=F
   time step     :     0.2214451 fs     power     :   0.2640991E-06
   step length   :     0.0580231 a0     speed     :   0.6337966E-02

........................................................................
.............................. CYCLE   18 ..............................
........................................................................

 iter      E             dE          RMSdq      gap      omega  full diag
   1  -3478.3208609 -0.347832E+04  0.802E-03   11.01       0.0  T
   2  -3478.3208992 -0.383017E-04  0.461E-03   11.01       1.0  T
   3  -3478.3208995 -0.238804E-06  0.186E-03   11.01       1.0  T
   4  -3478.3208996 -0.118580E-06  0.167E-04   11.01      10.5  T
   5  -3478.3208996 -0.347982E-07  0.104E-04   11.01      16.8  T
     SCC iter.                  ...        4 min, 48.448 sec
     gradient                   ...        3 min, 22.375 sec
 * total energy  : -3427.4040916 Eh     change    :  -0.3645970E-02 Eh
   gradient norm :     0.0470759 Eh/a0  converged?    E=F G=F D=F
   time step     :     0.2435896 fs     power     :   0.1118564E-06
   step length   :     0.0678022 a0     speed     :   0.6732864E-02

........................................................................
.............................. CYCLE   19 ..............................
........................................................................

 iter      E             dE          RMSdq      gap      omega  full diag
   1  -3478.1913617 -0.347819E+04  0.840E-03   11.01       0.0  T
   2  -3478.1914046 -0.429678E-04  0.484E-03   11.01       1.0  T
   3  -3478.1914049 -0.272154E-06  0.198E-03   11.01       1.0  T
   4  -3478.1914050 -0.131573E-06  0.178E-04   11.01       9.8  T
   5  -3478.1914051 -0.395953E-07  0.108E-04   11.01      16.3  T
     SCC iter.                  ...        4 min, 51.740 sec
     gradient                   ...        3 min, 23.346 sec
 * total energy  : -3427.4048510 Eh     change    :  -0.7594016E-03 Eh
   gradient norm :     0.0533947 Eh/a0  converged?    E=F G=F D=F
   time step     :     0.2679486 fs     power     :  -0.5035913E-07
   step length   :     0.0744472 a0     speed     :   0.6720661E-02

........................................................................
.............................. CYCLE   20 ..............................
........................................................................
 * reset velocities

 iter      E             dE          RMSdq      gap      omega  full diag
   1  -3478.1925552 -0.347819E+04  0.117E-04   11.01       0.0  T
   2  -3478.1925552 -0.509226E-08  0.740E-05   11.01      23.7  T
   3  -3478.1925552 -0.246655E-08  0.309E-05   11.01      56.6  T
     SCC iter.                  ...        2 min, 59.225 sec
     gradient                   ...        3 min, 21.255 sec
 * total energy  : -3427.4048988 Eh     change    :  -0.4781017E-04 Eh
   gradient norm :     0.0530266 Eh/a0  converged?    E=F G=F D=T
   time step     :     0.1339743 fs     power     :   0.4719197E-08
   step length   :     0.0008986 a0     speed     :   0.1622349E-03
 * RMSD in coord.:     0.0347548 a0     energy gain  -0.5744152E+00 Eh

........................................................................
.............................. CYCLE   21 ..............................
........................................................................

 iter      E             dE          RMSdq      gap      omega  full diag
   1  -3478.1986396 -0.347820E+04  0.548E-04   11.01       0.0  T
   2  -3478.1986397 -0.850468E-07  0.312E-04   11.01       5.6  T
   3  -3478.1986397 -0.674845E-09  0.844E-05   11.01      20.7  T
     SCC iter.                  ...        2 min, 52.061 sec
     gradient                   ...        3 min, 23.296 sec
 * total energy  : -3427.4051481 Eh     change    :  -0.2492894E-03 Eh
   gradient norm :     0.0512303 Eh/a0  converged?    E=F G=F D=F
   time step     :     0.2500000 fs     power     :   0.1300028E-07
   step length   :     0.0047840 a0     speed     :   0.4628807E-03

........................................................................
.............................. CYCLE   22 ..............................
........................................................................

 iter      E             dE          RMSdq      gap      omega  full diag
   1  -3478.2083648 -0.347821E+04  0.891E-04   11.01       0.0  T
   2  -3478.2083650 -0.217134E-06  0.508E-04   11.01       3.4  T
   3  -3478.2083651 -0.337241E-08  0.135E-04   11.01      12.9  T
     SCC iter.                  ...        2 min, 57.065 sec
     gradient                   ...        3 min, 22.315 sec
 * total energy  : -3427.4055357 Eh     change    :  -0.3876212E-03 Eh
   gradient norm :     0.0484976 Eh/a0  converged?    E=F G=F D=F
   time step     :     0.2500000 fs     power     :   0.1997689E-07
   step length   :     0.0077848 a0     speed     :   0.7532229E-03

........................................................................
.............................. CYCLE   23 ..............................
........................................................................

 iter      E             dE          RMSdq      gap      omega  full diag
   1  -3478.2212382 -0.347822E+04  0.120E-03   11.01       0.0  T
   2  -3478.2212386 -0.379103E-06  0.682E-04   11.01       2.6  T
   3  -3478.2212386 -0.737782E-08  0.179E-04   11.01       9.8  T
     SCC iter.                  ...        2 min, 56.523 sec
     gradient                   ...        3 min, 22.437 sec
 * total energy  : -3427.4060305 Eh     change    :  -0.4947790E-03 Eh
   gradient norm :     0.0451656 Eh/a0  converged?    E=F G=F D=F
   time step     :     0.2500000 fs     power     :   0.2520754E-07
   step length   :     0.0106193 a0     speed     :   0.1027473E-02

........................................................................
.............................. CYCLE   24 ..............................
........................................................................

 iter      E             dE          RMSdq      gap      omega  full diag
   1  -3478.2365685 -0.347824E+04  0.146E-03   11.01       0.0  T
   2  -3478.2365691 -0.532856E-06  0.831E-04   11.01       2.1  T
   3  -3478.2365691 -0.119908E-07  0.212E-04   11.01       8.3  T
     SCC iter.                  ...        2 min, 57.335 sec
     gradient                   ...        3 min, 23.430 sec
 * total energy  : -3427.4065974 Eh     change    :  -0.5669390E-03 Eh
   gradient norm :     0.0417033 Eh/a0  converged?    E=F G=F D=F
   time step     :     0.2500000 fs     power     :   0.2858416E-07
   step length   :     0.0132397 a0     speed     :   0.1281009E-02

........................................................................
.............................. CYCLE   25 ..............................
........................................................................

 iter      E             dE          RMSdq      gap      omega  full diag
   1  -3478.2534671 -0.347825E+04  0.166E-03   11.01       0.0  T
   2  -3478.2534677 -0.637689E-06  0.946E-04   11.01       1.9  T
   3  -3478.2534677 -0.166501E-07  0.230E-04   11.01       7.6  T
     SCC iter.                  ...        3 min,  0.139 sec
     gradient                   ...        3 min, 22.136 sec
 * total energy  : -3427.4072048 Eh     change    :  -0.6074004E-03 Eh
   gradient norm :     0.0386738 Eh/a0  converged?    E=F G=F D=F
   time step     :     0.2500000 fs     power     :   0.3038124E-07
   step length   :     0.0156127 a0     speed     :   0.1510615E-02

........................................................................
.............................. CYCLE   26 ..............................
........................................................................

 iter      E             dE          RMSdq      gap      omega  full diag
   1  -3478.2727472 -0.347827E+04  0.198E-03   11.01       0.0  T
   2  -3478.2727480 -0.809292E-06  0.113E-03   11.01       1.5  T
   3  -3478.2727480 -0.245905E-07  0.256E-04   11.01       6.8  T
   4  -3478.2727480 -0.941645E-08  0.556E-05   11.01      31.5  T
     SCC iter.                  ...        4 min,  2.138 sec
     gradient                   ...        3 min, 23.393 sec
 * total energy  : -3427.4078981 Eh     change    :  -0.6932899E-03 Eh
   gradient norm :     0.0364208 Eh/a0  converged?    E=F G=F D=F
   time step     :     0.2750000 fs     power     :   0.3121336E-07
   step length   :     0.0197353 a0     speed     :   0.1735902E-02

........................................................................
.............................. CYCLE   27 ..............................
........................................................................

 iter      E             dE          RMSdq      gap      omega  full diag
   1  -3478.2931041 -0.347829E+04  0.227E-03   11.01       0.0  T
   2  -3478.2931050 -0.875340E-06  0.130E-03   11.01       1.3  T
   3  -3478.2931050 -0.307173E-07  0.262E-04   11.01       6.7  T
   4  -3478.2931051 -0.124164E-07  0.620E-05   11.01      28.3  T
     SCC iter.                  ...        4 min,  1.415 sec
     gradient                   ...        3 min, 21.926 sec
 * total energy  : -3427.4086776 Eh     change    :  -0.7794748E-03 Eh
   gradient norm :     0.0355502 Eh/a0  converged?    E=F G=F D=F
   time step     :     0.3025000 fs     power     :   0.3181434E-07
   step length   :     0.0244144 a0     speed     :   0.1952254E-02

........................................................................
.............................. CYCLE   28 ..............................
........................................................................

 iter      E             dE          RMSdq      gap      omega  full diag
   1  -3478.3123825 -0.347831E+04  0.248E-03   11.01       0.0  T
   2  -3478.3123833 -0.734379E-06  0.142E-03   11.01       1.2  T
   3  -3478.3123833 -0.382688E-07  0.233E-04   11.01       7.5  T
   4  -3478.3123833 -0.146074E-07  0.678E-05   11.01      25.8  T
     SCC iter.                  ...        3 min, 55.480 sec
     gradient                   ...        3 min, 23.100 sec
 * total energy  : -3427.4095681 Eh     change    :  -0.8905266E-03 Eh
   gradient norm :     0.0359801 Eh/a0  converged?    E=F G=F D=F
   time step     :     0.3327500 fs     power     :   0.3334598E-07
   step length   :     0.0297107 a0     speed     :   0.2159784E-02

........................................................................
.............................. CYCLE   29 ..............................
........................................................................

 iter      E             dE          RMSdq      gap      omega  full diag
   1  -3478.3278351 -0.347833E+04  0.262E-03   11.01       0.0  T
   2  -3478.3278355 -0.440780E-06  0.151E-03   11.01       1.2  T
   3  -3478.3278355 -0.434093E-07  0.177E-04   11.01       9.9  T
   4  -3478.3278356 -0.170276E-07  0.709E-05   11.01      24.7  T
     SCC iter.                  ...        3 min, 55.976 sec
     gradient                   ...        3 min, 23.843 sec
 * total energy  : -3427.4106276 Eh     change    :  -0.1059489E-02 Eh
   gradient norm :     0.0366150 Eh/a0  converged?    E=F G=F D=F
   time step     :     0.3660250 fs     power     :   0.3666092E-07
   step length   :     0.0358481 a0     speed     :   0.2369031E-02

........................................................................
.............................. CYCLE   30 ..............................
........................................................................

 iter      E             dE          RMSdq      gap      omega  full diag
   1  -3478.3367157 -0.347834E+04  0.276E-03   11.01       0.0  T
   2  -3478.3367159 -0.244014E-06  0.161E-03   11.01       1.1  T
   3  -3478.3367160 -0.448490E-07  0.140E-04   11.01      12.5  T
   4  -3478.3367160 -0.204782E-07  0.709E-05   11.01      24.7  T
     SCC iter.                  ...        4 min,  0.769 sec
     gradient                   ...        3 min, 23.884 sec
 * total energy  : -3427.4119293 Eh     change    :  -0.1301699E-02 Eh
   gradient norm :     0.0359071 Eh/a0  converged?    E=F G=F D=F
   time step     :     0.4026275 fs     power     :   0.4135919E-07
   step length   :     0.0432638 a0     speed     :   0.2599178E-02

........................................................................
.............................. CYCLE   31 ..............................
........................................................................

 iter      E             dE          RMSdq      gap      omega  full diag
   1  -3478.3371618 -0.347834E+04  0.302E-03   11.01       0.0  T
   2  -3478.3371623 -0.523799E-06  0.179E-03   11.01       1.0  T
   3  -3478.3371624 -0.446621E-07  0.164E-04   11.01      10.7  T
   4  -3478.3371624 -0.247774E-07  0.670E-05   11.01      26.2  T
     SCC iter.                  ...        3 min, 50.696 sec
     gradient                   ...        3 min, 24.021 sec
 * total energy  : -3427.4135111 Eh     change    :  -0.1581769E-02 Eh
   gradient norm :     0.0328320 Eh/a0  converged?    E=F G=F D=F
   time step     :     0.4428903 fs     power     :   0.4537534E-07
   step length   :     0.0524667 a0     speed     :   0.2865514E-02

........................................................................
.............................. CYCLE   32 ..............................
........................................................................

 iter      E             dE          RMSdq      gap      omega  full diag
   1  -3478.3296825 -0.347833E+04  0.347E-03   11.01       0.0  T
   2  -3478.3296839 -0.145618E-05  0.208E-03   11.01       1.0  T
   3  -3478.3296840 -0.523660E-07  0.269E-04   11.01       6.5  T
   4  -3478.3296840 -0.282334E-07  0.692E-05   11.01      25.3  T
     SCC iter.                  ...        3 min, 55.277 sec
     gradient                   ...        3 min, 22.867 sec
 * total energy  : -3427.4153184 Eh     change    :  -0.1807297E-02 Eh
   gradient norm :     0.0281426 Eh/a0  converged?    E=F G=F D=F
   time step     :     0.4871793 fs     power     :   0.4595371E-07
   step length   :     0.0637698 a0     speed     :   0.3166224E-02

........................................................................
.............................. CYCLE   33 ..............................
........................................................................

 iter      E             dE          RMSdq      gap      omega  full diag
   1  -3478.3195303 -0.347832E+04  0.401E-03   11.02       0.0  T
   2  -3478.3195327 -0.236674E-05  0.241E-03   11.01       1.0  T
   3  -3478.3195328 -0.641717E-07  0.350E-04   11.01       5.0  T
   4  -3478.3195328 -0.317796E-07  0.735E-05   11.01      23.8  T
     SCC iter.                  ...        3 min, 57.685 sec
     gradient                   ...        3 min, 22.922 sec
 * total energy  : -3427.4172173 Eh     change    :  -0.1898900E-02 Eh
   gradient norm :     0.0253589 Eh/a0  converged?    E=F G=F D=F
   time step     :     0.5358972 fs     power     :   0.4252181E-07
   step length   :     0.0770295 a0     speed     :   0.3476886E-02

........................................................................
.............................. CYCLE   34 ..............................
........................................................................

 iter      E             dE          RMSdq      gap      omega  full diag
   1  -3478.3187768 -0.347832E+04  0.445E-03   11.02       0.0  T
   2  -3478.3187786 -0.181018E-05  0.268E-03   11.02       1.0  T
   3  -3478.3187787 -0.785985E-07  0.258E-04   11.02       6.8  T
   4  -3478.3187787 -0.322784E-07  0.769E-05   11.02      22.8  T
     SCC iter.                  ...        3 min, 51.189 sec
     gradient                   ...        3 min, 25.359 sec
 * total energy  : -3427.4191487 Eh     change    :  -0.1931442E-02 Eh
   gradient norm :     0.0264416 Eh/a0  converged?    E=F G=F D=F
   time step     :     0.5894869 fs     power     :   0.3916406E-07
   step length   :     0.0913727 a0     speed     :   0.3749361E-02

........................................................................
.............................. CYCLE   35 ..............................
........................................................................

 iter      E             dE          RMSdq      gap      omega  full diag
   1  -3478.3412171 -0.347834E+04  0.502E-03   11.02       0.0  T
   2  -3478.3412175 -0.429615E-06  0.297E-03   11.02       1.0  T
   3  -3478.3412176 -0.107763E-06  0.153E-04   11.02      11.4  T
   4  -3478.3412177 -0.220184E-07  0.832E-05   11.02      21.1  T
     SCC iter.                  ...        3 min, 50.358 sec
     gradient                   ...        3 min, 26.575 sec
 * total energy  : -3427.4212381 Eh     change    :  -0.2089395E-02 Eh
   gradient norm :     0.0262501 Eh/a0  converged?    E=F G=F D=F
   time step     :     0.6484356 fs     power     :   0.3930700E-07
   step length   :     0.1063204 a0     speed     :   0.3966112E-02

........................................................................
.............................. CYCLE   36 ..............................
........................................................................

 iter      E             dE          RMSdq      gap      omega  full diag
   1  -3478.3930074 -0.347839E+04  0.604E-03   11.02       0.0  T
   2  -3478.3930086 -0.122755E-05  0.350E-03   11.02       1.0  T
   3  -3478.3930088 -0.146656E-06  0.234E-04   11.02       7.5  T
   4  -3478.3930088 -0.176742E-07  0.940E-05   11.02      18.6  T
     SCC iter.                  ...        4 min,  4.304 sec
     gradient                   ...        3 min, 22.821 sec
 * total energy  : -3427.4235384 Eh     change    :  -0.2300262E-02 Eh
   gradient norm :     0.0220041 Eh/a0  converged?    E=F G=F D=F
   time step     :     0.7132792 fs     power     :   0.3853267E-07
   step length   :     0.1234157 a0     speed     :   0.4185292E-02

........................................................................
.............................. CYCLE   37 ..............................
........................................................................

 iter      E             dE          RMSdq      gap      omega  full diag
   1  -3478.4628588 -0.347846E+04  0.690E-03   11.02       0.0  T
   2  -3478.4628619 -0.316342E-05  0.395E-03   11.02       1.0  T
   3  -3478.4628621 -0.163704E-06  0.406E-04   11.02       4.3  T
   4  -3478.4628621 -0.272225E-07  0.100E-04   11.02      17.5  T
     SCC iter.                  ...        3 min, 50.955 sec
     gradient                   ...        3 min, 22.465 sec
 * total energy  : -3427.4258336 Eh     change    :  -0.2295265E-02 Eh
   gradient norm :     0.0215739 Eh/a0  converged?    E=F G=F D=F
   time step     :     0.7846071 fs     power     :   0.3327817E-07
   step length   :     0.1434632 a0     speed     :   0.4422861E-02

........................................................................
.............................. CYCLE   38 ..............................
........................................................................

 iter      E             dE          RMSdq      gap      omega  full diag
   1  -3478.5153250 -0.347852E+04  0.652E-03   11.02       0.0  T
   2  -3478.5153260 -0.948596E-06  0.378E-03   11.02       1.0  T
   3  -3478.5153261 -0.148147E-06  0.203E-04   11.02       8.6  T
   4  -3478.5153262 -0.163741E-07  0.861E-05   11.02      20.3  T
     SCC iter.                  ...        4 min,  1.836 sec
     gradient                   ...        3 min, 24.530 sec
 * total energy  : -3427.4281852 Eh     change    :  -0.2351593E-02 Eh
   gradient norm :     0.0240235 Eh/a0  converged?    E=F G=F D=F
   time step     :     0.8630678 fs     power     :   0.3232937E-07
   step length   :     0.1638356 a0     speed     :   0.4591752E-02

........................................................................
.............................. CYCLE   39 ..............................
........................................................................

 iter      E             dE          RMSdq      gap      omega  full diag
   1  -3478.5255317 -0.347853E+04  0.601E-03   11.03       0.0  T
   2  -3478.5255336 -0.198289E-05  0.360E-03   11.03       1.0  T
   3  -3478.5255338 -0.174135E-06  0.230E-04   11.03       7.6  T
   4  -3478.5255338 -0.220111E-07  0.106E-04   11.03      16.6  T
     SCC iter.                  ...        3 min, 59.177 sec
     gradient                   ...        3 min, 24.444 sec
 * total energy  : -3427.4308794 Eh     change    :  -0.2694134E-02 Eh
   gradient norm :     0.0206095 Eh/a0  converged?    E=F G=F D=F
   time step     :     0.9493746 fs     power     :   0.3368734E-07
   step length   :     0.1862190 a0     speed     :   0.4744620E-02

........................................................................
.............................. CYCLE   40 ..............................
........................................................................

 iter      E             dE          RMSdq      gap      omega  full diag
   1  -3478.5107245 -0.347851E+04  0.609E-03   11.03       0.0  T
   2  -3478.5107296 -0.506262E-05  0.367E-03   11.03       1.0  T
   3  -3478.5107298 -0.242115E-06  0.468E-04   11.03       3.7  T
   4  -3478.5107298 -0.461728E-07  0.144E-04   11.03      12.1  T
     SCC iter.                  ...        3 min, 57.291 sec
     gradient                   ...        3 min, 22.772 sec
 * total energy  : -3427.4337291 Eh     change    :  -0.2849712E-02 Eh
   gradient norm :     0.0228953 Eh/a0  converged?    E=F G=F D=F
   time step     :     1.0443120 fs     power     :   0.3146836E-07
   step length   :     0.2136076 a0     speed     :   0.4947679E-02

........................................................................
.............................. CYCLE   41 ..............................
........................................................................

 iter      E             dE          RMSdq      gap      omega  full diag
   1  -3478.5279217 -0.347853E+04  0.683E-03   11.04       0.0  T
   2  -3478.5279225 -0.816479E-06  0.401E-03   11.04       1.0  T
   3  -3478.5279227 -0.237558E-06  0.226E-04   11.04       7.8  T
   4  -3478.5279227 -0.286773E-07  0.132E-04   11.04      13.3  T
     SCC iter.                  ...        4 min,  0.073 sec
     gradient                   ...        3 min, 22.199 sec
 * total energy  : -3427.4370663 Eh     change    :  -0.3337228E-02 Eh
   gradient norm :     0.0210330 Eh/a0  converged?    E=F G=F D=F
   time step     :     1.1487432 fs     power     :   0.3550066E-07
   step length   :     0.2429696 a0     speed     :   0.5116159E-02

........................................................................
.............................. CYCLE   42 ..............................
........................................................................

 iter      E             dE          RMSdq      gap      omega  full diag
   1  -3478.5757611 -0.347858E+04  0.847E-03   11.04       0.0  T
   2  -3478.5757650 -0.393672E-05  0.491E-03   11.05       1.0  T
   3  -3478.5757652 -0.231245E-06  0.411E-04   11.05       4.3  T
   4  -3478.5757653 -0.396772E-07  0.118E-04   11.05      14.8  T
     SCC iter.                  ...        3 min, 53.955 sec
     gradient                   ...        3 min, 22.468 sec
 * total energy  : -3427.4407464 Eh     change    :  -0.3680095E-02 Eh
   gradient norm :     0.0213841 Eh/a0  converged?    E=F G=F D=F
   time step     :     1.2500000 fs     power     :   0.3375027E-07
   step length   :     0.2772363 a0     speed     :   0.5364820E-02
 * RMSD in coord.:     0.0316024 a0     energy gain  -0.3584760E-01 Eh

........................................................................
.............................. CYCLE   43 ..............................
........................................................................

 iter      E             dE          RMSdq      gap      omega  full diag
   1  -3478.5785328 -0.347858E+04  0.135E-03   11.05       0.0  T
   2  -3478.5785328 -0.338023E-07  0.791E-04   11.05       2.2  T
   3  -3478.5785328 -0.885984E-08  0.467E-05   11.05      37.5  T
     SCC iter.                  ...        3 min,  2.488 sec
     gradient                   ...        3 min, 23.885 sec
 * total energy  : -3427.4414532 Eh     change    :  -0.7067787E-03 Eh
   gradient norm :     0.0213788 Eh/a0  converged?    E=F G=F D=F
   time step     :     0.2500000 fs     power     :   0.3692774E-07
   step length   :     0.0538546 a0     speed     :   0.5210719E-02

........................................................................
.............................. CYCLE   44 ..............................
........................................................................

 iter      E             dE          RMSdq      gap      omega  full diag
   1  -3478.5751978 -0.347858E+04  0.128E-03   11.05       0.0  T
   2  -3478.5751980 -0.154830E-06  0.751E-04   11.05       2.3  T
   3  -3478.5751980 -0.947466E-08  0.807E-05   11.05      21.7  T
     SCC iter.                  ...        2 min, 55.028 sec
     gradient                   ...        3 min, 23.282 sec
 * total energy  : -3427.4422070 Eh     change    :  -0.7537895E-03 Eh
   gradient norm :     0.0198262 Eh/a0  converged?    E=F G=F D=F
   time step     :     0.2500000 fs     power     :   0.3924763E-07
   step length   :     0.0527463 a0     speed     :   0.5103485E-02

........................................................................
.............................. CYCLE   45 ..............................
........................................................................

 iter      E             dE          RMSdq      gap      omega  full diag
   1  -3478.5674780 -0.347857E+04  0.140E-03   11.05       0.0  T
   2  -3478.5674784 -0.383542E-06  0.823E-04   11.05       2.1  T
   3  -3478.5674784 -0.118407E-07  0.155E-04   11.05      11.3  T
     SCC iter.                  ...        2 min, 56.440 sec
     gradient                   ...        3 min, 22.996 sec
 * total energy  : -3427.4429763 Eh     change    :  -0.7692958E-03 Eh
   gradient norm :     0.0177348 Eh/a0  converged?    E=F G=F D=F
   time step     :     0.2500000 fs     power     :   0.3956012E-07
   step length   :     0.0522214 a0     speed     :   0.5052702E-02

........................................................................
.............................. CYCLE   46 ..............................
........................................................................

 iter      E             dE          RMSdq      gap      omega  full diag
   1  -3478.5581738 -0.347856E+04  0.154E-03   11.05       0.0  T
   2  -3478.5581743 -0.504143E-06  0.898E-04   11.05       2.0  T
   3  -3478.5581743 -0.135633E-07  0.183E-04   11.05       9.6  T
     SCC iter.                  ...        3 min,  1.563 sec
     gradient                   ...        3 min, 21.542 sec
 * total energy  : -3427.4437283 Eh     change    :  -0.7520328E-03 Eh
   gradient norm :     0.0165813 Eh/a0  converged?    E=F G=F D=F
   time step     :     0.2500000 fs     power     :   0.3831580E-07
   step length   :     0.0521708 a0     speed     :   0.5047801E-02

........................................................................
.............................. CYCLE   47 ..............................
........................................................................

 iter      E             dE          RMSdq      gap      omega  full diag
   1  -3478.5507802 -0.347855E+04  0.156E-03   11.05       0.0  T
   2  -3478.5507806 -0.384486E-06  0.912E-04   11.05       1.9  T
   3  -3478.5507806 -0.129494E-07  0.149E-04   11.05      11.8  T
     SCC iter.                  ...        2 min, 59.721 sec
     gradient                   ...        3 min, 24.172 sec
 * total energy  : -3427.4444542 Eh     change    :  -0.7258692E-03 Eh
   gradient norm :     0.0167962 Eh/a0  converged?    E=F G=F D=F
   time step     :     0.2500000 fs     power     :   0.3711647E-07
   step length   :     0.0522295 a0     speed     :   0.5053485E-02

........................................................................
.............................. CYCLE   48 ..............................
........................................................................

 iter      E             dE          RMSdq      gap      omega  full diag
   1  -3478.5478309 -0.347855E+04  0.167E-03   11.05       0.0  T
   2  -3478.5478311 -0.187422E-06  0.977E-04   11.05       1.8  T
   3  -3478.5478311 -0.132513E-07  0.848E-05   11.05      20.7  T
     SCC iter.                  ...        3 min,  2.402 sec
     gradient                   ...        3 min, 25.946 sec
 * total energy  : -3427.4452406 Eh     change    :  -0.7863998E-03 Eh
   gradient norm :     0.0172542 Eh/a0  converged?    E=F G=F D=F
   time step     :     0.2750000 fs     power     :   0.3686603E-07
   step length   :     0.0573892 a0     speed     :   0.5047922E-02

........................................................................
.............................. CYCLE   49 ..............................
........................................................................

 iter      E             dE          RMSdq      gap      omega  full diag
   1  -3478.5517904 -0.347855E+04  0.184E-03   11.06       0.0  T
   2  -3478.5517905 -0.559498E-07  0.107E-03   11.06       1.6  T
   3  -3478.5517905 -0.147002E-07  0.542E-05   11.06      32.3  T
   4  -3478.5517905 -0.334830E-08  0.268E-05   11.06      65.3  T
     SCC iter.                  ...        3 min, 58.732 sec
     gradient                   ...        3 min, 23.054 sec
 * total energy  : -3427.4461093 Eh     change    :  -0.8686778E-03 Eh
   gradient norm :     0.0166200 Eh/a0  converged?    E=F G=F D=F
   time step     :     0.3025000 fs     power     :   0.3714566E-07
   step length   :     0.0630348 a0     speed     :   0.5040461E-02

........................................................................
.............................. CYCLE   50 ..............................
........................................................................

 iter      E             dE          RMSdq      gap      omega  full diag
   1  -3478.5633985 -0.347856E+04  0.212E-03   11.06       0.0  T
   2  -3478.5633987 -0.195677E-06  0.123E-03   11.06       1.4  T
   3  -3478.5633988 -0.185041E-07  0.886E-05   11.06      19.8  T
   4  -3478.5633988 -0.409909E-08  0.318E-05   11.06      55.1  T
     SCC iter.                  ...        3 min, 56.284 sec
     gradient                   ...        3 min, 22.956 sec
 * total energy  : -3427.4470580 Eh     change    :  -0.9487503E-03 Eh
   gradient norm :     0.0147691 Eh/a0  converged?    E=F G=F D=F
   time step     :     0.3327500 fs     power     :   0.3650641E-07
   step length   :     0.0696111 a0     speed     :   0.5060290E-02

........................................................................
.............................. CYCLE   51 ..............................
........................................................................

 iter      E             dE          RMSdq      gap      omega  full diag
   1  -3478.5804328 -0.347858E+04  0.240E-03   11.06       0.0  T
   2  -3478.5804333 -0.478515E-06  0.139E-03   11.06       1.3  T
   3  -3478.5804333 -0.240248E-07  0.152E-04   11.06      11.5  T
   4  -3478.5804333 -0.527916E-08  0.390E-05   11.06      44.9  T
     SCC iter.                  ...        3 min, 57.147 sec
     gradient                   ...        3 min, 22.112 sec
 * total energy  : -3427.4480542 Eh     change    :  -0.9961867E-03 Eh
   gradient norm :     0.0135643 Eh/a0  converged?    E=F G=F D=F
   time step     :     0.3660250 fs     power     :   0.3428791E-07
   step length   :     0.0775253 a0     speed     :   0.5123274E-02

........................................................................
.............................. CYCLE   52 ..............................
........................................................................

 iter      E             dE          RMSdq      gap      omega  full diag
   1  -3478.5961089 -0.347860E+04  0.244E-03   11.06       0.0  T
   2  -3478.5961093 -0.400275E-06  0.142E-03   11.06       1.2  T
   3  -3478.5961093 -0.264113E-07  0.132E-04   11.06      13.3  T
   4  -3478.5961093 -0.521686E-08  0.396E-05   11.06      44.3  T
     SCC iter.                  ...        3 min, 56.597 sec
     gradient                   ...        3 min, 21.944 sec
 * total energy  : -3427.4490830 Eh     change    :  -0.1028831E-02 Eh
   gradient norm :     0.0143395 Eh/a0  converged?    E=F G=F D=F
   time step     :     0.4026275 fs     power     :   0.3222502E-07
   step length   :     0.0864243 a0     speed     :   0.5192154E-02

........................................................................
.............................. CYCLE   53 ..............................
........................................................................

 iter      E             dE          RMSdq      gap      omega  full diag
   1  -3478.6026356 -0.347860E+04  0.230E-03   11.06       0.0  T
   2  -3478.6026357 -0.100600E-06  0.135E-03   11.06       1.3  T
   3  -3478.6026358 -0.269620E-07  0.711E-05   11.06      24.7  T
   4  -3478.6026358 -0.430282E-08  0.374E-05   11.06      46.9  T
     SCC iter.                  ...        3 min, 58.664 sec
     gradient                   ...        3 min, 21.878 sec
 * total energy  : -3427.4501835 Eh     change    :  -0.1100472E-02 Eh
   gradient norm :     0.0145334 Eh/a0  converged?    E=F G=F D=F
   time step     :     0.4428903 fs     power     :   0.3175977E-07
   step length   :     0.0955096 a0     speed     :   0.5216343E-02

........................................................................
.............................. CYCLE   54 ..............................
........................................................................

 iter      E             dE          RMSdq      gap      omega  full diag
   1  -3478.5967501 -0.347860E+04  0.234E-03   11.07       0.0  T
   2  -3478.5967504 -0.374669E-06  0.138E-03   11.07       1.3  T
   3  -3478.5967505 -0.333230E-07  0.114E-04   11.07      15.4  T
   4  -3478.5967505 -0.533828E-08  0.451E-05   11.07      38.9  T
     SCC iter.                  ...        3 min, 56.244 sec
     gradient                   ...        3 min, 22.123 sec
 * total energy  : -3427.4513790 Eh     change    :  -0.1195517E-02 Eh
   gradient norm :     0.0129860 Eh/a0  converged?    E=F G=F D=F
   time step     :     0.4871793 fs     power     :   0.3115650E-07
   step length   :     0.1055335 a0     speed     :   0.5239823E-02

........................................................................
.............................. CYCLE   55 ..............................
........................................................................

 iter      E             dE          RMSdq      gap      omega  full diag
   1  -3478.5832981 -0.347858E+04  0.246E-03   11.07       0.0  T
   2  -3478.5832990 -0.895163E-06  0.145E-03   11.07       1.2  T
   3  -3478.5832990 -0.434425E-07  0.217E-04   11.07       8.1  T
   4  -3478.5832991 -0.816726E-08  0.580E-05   11.07      30.2  T
     SCC iter.                  ...        3 min, 53.909 sec
     gradient                   ...        3 min, 23.132 sec
 * total energy  : -3427.4526355 Eh     change    :  -0.1256462E-02 Eh
   gradient norm :     0.0129538 Eh/a0  converged?    E=F G=F D=F
   time step     :     0.5358972 fs     power     :   0.2936306E-07
   step length   :     0.1174815 a0     speed     :   0.5302772E-02

........................................................................
.............................. CYCLE   56 ..............................
........................................................................

 iter      E             dE          RMSdq      gap      omega  full diag
   1  -3478.5769204 -0.347858E+04  0.238E-03   11.07       0.0  T
   2  -3478.5769208 -0.401605E-06  0.141E-03   11.07       1.2  T
   3  -3478.5769208 -0.432419E-07  0.131E-04   11.07      13.4  T
   4  -3478.5769208 -0.725822E-08  0.575E-05   11.07      30.5  T
     SCC iter.                  ...        3 min, 55.899 sec
     gradient                   ...        3 min, 23.244 sec
 * total energy  : -3427.4539757 Eh     change    :  -0.1340217E-02 Eh
   gradient norm :     0.0138770 Eh/a0  converged?    E=F G=F D=F
   time step     :     0.5894869 fs     power     :   0.2897538E-07
   step length   :     0.1302791 a0     speed     :   0.5345838E-02

........................................................................
.............................. CYCLE   57 ..............................
........................................................................

 iter      E             dE          RMSdq      gap      omega  full diag
   1  -3478.5878095 -0.347859E+04  0.274E-03   11.08       0.0  T
   2  -3478.5878098 -0.264562E-06  0.160E-03   11.08       1.1  T
   3  -3478.5878098 -0.354567E-07  0.127E-04   11.08      13.8  T
   4  -3478.5878098 -0.989485E-08  0.527E-05   11.08      33.2  T
     SCC iter.                  ...        3 min, 59.020 sec
     gradient                   ...        3 min, 22.196 sec
 * total energy  : -3427.4554601 Eh     change    :  -0.1484444E-02 Eh
   gradient norm :     0.0124197 Eh/a0  converged?    E=F G=F D=F
   time step     :     0.6484356 fs     power     :   0.2915504E-07
   step length   :     0.1440228 a0     speed     :   0.5372538E-02

........................................................................
.............................. CYCLE   58 ..............................
........................................................................

 iter      E             dE          RMSdq      gap      omega  full diag
   1  -3478.6114239 -0.347861E+04  0.327E-03   11.08       0.0  T
   2  -3478.6114246 -0.723816E-06  0.189E-03   11.08       1.0  T
   3  -3478.6114247 -0.355330E-07  0.205E-04   11.08       8.5  T
   4  -3478.6114247 -0.117093E-07  0.529E-05   11.08      33.1  T
     SCC iter.                  ...        3 min, 57.114 sec
     gradient                   ...        3 min, 24.358 sec
 * total energy  : -3427.4570503 Eh     change    :  -0.1590124E-02 Eh
   gradient norm :     0.0127204 Eh/a0  converged?    E=F G=F D=F
   time step     :     0.7132792 fs     power     :   0.2796488E-07
   step length   :     0.1606953 a0     speed     :   0.5449524E-02

........................................................................
.............................. CYCLE   59 ..............................
........................................................................

 iter      E             dE          RMSdq      gap      omega  full diag
   1  -3478.6266527 -0.347863E+04  0.308E-03   11.09       0.0  T
   2  -3478.6266528 -0.182300E-06  0.182E-03   11.09       1.0  T
   3  -3478.6266529 -0.428436E-07  0.109E-04   11.09      16.0  T
   4  -3478.6266529 -0.843283E-08  0.598E-05   11.09      29.3  T
     SCC iter.                  ...        3 min, 54.459 sec
     gradient                   ...        3 min, 22.504 sec
 * total energy  : -3427.4587873 Eh     change    :  -0.1737070E-02 Eh
   gradient norm :     0.0125690 Eh/a0  converged?    E=F G=F D=F
   time step     :     0.7846071 fs     power     :   0.2830758E-07
   step length   :     0.1786672 a0     speed     :   0.5508175E-02

........................................................................
.............................. CYCLE   60 ..............................
........................................................................

 iter      E             dE          RMSdq      gap      omega  full diag
   1  -3478.6278132 -0.347863E+04  0.324E-03   11.09       0.0  T
   2  -3478.6278144 -0.126725E-05  0.197E-03   11.09       1.0  T
   3  -3478.6278145 -0.574628E-07  0.228E-04   11.09       7.7  T
   4  -3478.6278145 -0.139053E-07  0.726E-05   11.09      24.1  T
     SCC iter.                  ...        4 min,  0.334 sec
     gradient                   ...        3 min, 23.183 sec
 * total energy  : -3427.4606829 Eh     change    :  -0.1895606E-02 Eh
   gradient norm :     0.0113795 Eh/a0  converged?    E=F G=F D=F
   time step     :     0.8630678 fs     power     :   0.2742372E-07
   step length   :     0.1994067 a0     speed     :   0.5588689E-02

........................................................................
.............................. CYCLE   61 ..............................
........................................................................

 iter      E             dE          RMSdq      gap      omega  full diag
   1  -3478.6438273 -0.347864E+04  0.374E-03   11.10       0.0  T
   2  -3478.6438277 -0.392058E-06  0.223E-03   11.10       1.0  T
   3  -3478.6438278 -0.529431E-07  0.120E-04   11.10      14.5  T
   4  -3478.6438278 -0.996170E-08  0.616E-05   11.10      28.4  T
     SCC iter.                  ...        3 min, 54.233 sec
     gradient                   ...        3 min, 22.284 sec
 * total energy  : -3427.4627037 Eh     change    :  -0.2020732E-02 Eh
   gradient norm :     0.0114118 Eh/a0  converged?    E=F G=F D=F
   time step     :     0.9493746 fs     power     :   0.2687925E-07
   step length   :     0.2235017 a0     speed     :   0.5694535E-02

........................................................................
.............................. CYCLE   62 ..............................
........................................................................

 iter      E             dE          RMSdq      gap      omega  full diag
   1  -3478.6876162 -0.347869E+04  0.529E-03   11.10       0.0  T
   2  -3478.6876174 -0.116675E-05  0.306E-03   11.11       1.0  T
   3  -3478.6876175 -0.739506E-07  0.239E-04   11.11       7.3  T
   4  -3478.6876175 -0.132395E-07  0.701E-05   11.11      25.0  T
     SCC iter.                  ...        3 min, 54.613 sec
     gradient                   ...        3 min, 21.047 sec
 * total energy  : -3427.4648435 Eh     change    :  -0.2139800E-02 Eh
   gradient norm :     0.0104852 Eh/a0  converged?    E=F G=F D=F
   time step     :     1.0443120 fs     power     :   0.2504143E-07
   step length   :     0.2503374 a0     speed     :   0.5798433E-02

........................................................................
.............................. CYCLE   63 ..............................
........................................................................

 iter      E             dE          RMSdq      gap      omega  full diag
   1  -3478.7052003 -0.347871E+04  0.503E-03   11.11       0.0  T
   2  -3478.7052010 -0.640499E-06  0.297E-03   11.11       1.0  T
   3  -3478.7052011 -0.682380E-07  0.153E-04   11.11      11.4  T
   4  -3478.7052011 -0.215487E-07  0.697E-05   11.11      25.1  T
     SCC iter.                  ...        4 min,  0.681 sec
     gradient                   ...        3 min, 22.275 sec
 * total energy  : -3427.4670570 Eh     change    :  -0.2213495E-02 Eh
   gradient norm :     0.0093317 Eh/a0  converged?    E=F G=F D=F
   time step     :     1.1487432 fs     power     :   0.2380645E-07
   step length   :     0.2802575 a0     speed     :   0.5901322E-02

........................................................................
.............................. CYCLE   64 ..............................
........................................................................

 iter      E             dE          RMSdq      gap      omega  full diag
   1  -3478.7015947 -0.347870E+04  0.507E-03   11.12       0.0  T
   2  -3478.7015966 -0.190872E-05  0.303E-03   11.12       1.0  T
   3  -3478.7015967 -0.683444E-07  0.241E-04   11.12       7.3  T
   4  -3478.7015967 -0.279788E-07  0.747E-05   11.12      23.5  T
     SCC iter.                  ...        3 min, 56.911 sec
     gradient                   ...        3 min, 22.545 sec
 * total energy  : -3427.4692753 Eh     change    :  -0.2218322E-02 Eh
   gradient norm :     0.0108727 Eh/a0  converged?    E=F G=F D=F
   time step     :     1.2500000 fs     power     :   0.2139203E-07
   step length   :     0.3111882 a0     speed     :   0.6021826E-02

........................................................................
.............................. CYCLE   65 ..............................
........................................................................

 iter      E             dE          RMSdq      gap      omega  full diag
   1  -3478.7425206 -0.347874E+04  0.620E-03   11.13       0.0  T
   2  -3478.7425225 -0.188637E-05  0.359E-03   11.13       1.0  T
   3  -3478.7425226 -0.694358E-07  0.302E-04   11.13       5.8  T
   4  -3478.7425226 -0.272694E-07  0.731E-05   11.13      24.0  T
     SCC iter.                  ...        3 min, 55.879 sec
     gradient                   ...        3 min, 23.630 sec
 * total energy  : -3427.4713526 Eh     change    :  -0.2077324E-02 Eh
   gradient norm :     0.0104664 Eh/a0  converged?    E=F G=F D=F
   time step     :     1.2500000 fs     power     :   0.1964969E-07
   step length   :     0.3119106 a0     speed     :   0.6035806E-02

........................................................................
.............................. CYCLE   66 ..............................
........................................................................

 iter      E             dE          RMSdq      gap      omega  full diag
   1  -3478.7448960 -0.347874E+04  0.459E-03   11.14       0.0  T
   2  -3478.7448973 -0.132708E-05  0.275E-03   11.14       1.0  T
   3  -3478.7448974 -0.705427E-07  0.200E-04   11.14       8.8  T
   4  -3478.7448974 -0.196246E-07  0.793E-05   11.14      22.1  T
     SCC iter.                  ...        4 min,  4.908 sec
     gradient                   ...        3 min, 24.334 sec
 * total energy  : -3427.4733249 Eh     change    :  -0.1972279E-02 Eh
   gradient norm :     0.0087883 Eh/a0  converged?    E=F G=F D=F
   time step     :     1.2500000 fs     power     :   0.1926905E-07
   step length   :     0.3112044 a0     speed     :   0.6022140E-02

[...]
  3011   6 C     3012   6 C                                       1.5275202
  3012   6 C     3013   6 C                                       1.5272866
  3013   6 C     3014   6 C                                       1.5279101
  3014   6 C     3015   6 C                                       1.5297076
  3015   6 C     3016   6 C                                       1.5234046
  3015   6 C     3017   1 H                                       1.0927736
  3015   6 C     3018   1 H                                       1.0936199
  3014   6 C     3019   1 H                                       1.0936531
  3014   6 C     3020   1 H                                       1.0931249
  3013   6 C     3021   1 H                                       1.0908135
  3013   6 C     3022   1 H                                       1.0934827
  3012   6 C     3023   1 H                                       1.0928766
  3012   6 C     3024   1 H                                       1.0931719
  3011   6 C     3025   1 H                                       1.0925214
  3011   6 C     3026   1 H                                       1.0928963
  3010   6 C     3027   1 H                                       1.0911255
  3010   6 C     3028   1 H                                       1.0931927
  3009   6 C     3029   1 H                                       1.0930943
  3009   6 C     3030   1 H                                       1.0929432
  3008   6 C     3031   1 H                                       1.0929844
  3008   6 C     3032   1 H                                       1.0932397
  3007   6 C     3033   1 H                                       1.0914744
  3007   6 C     3034   1 H                                       1.0893802
  3006   6 C     3035   1 H                                       1.0930488
  3006   6 C     3036   1 H                                       1.0935923
  3005   6 C     3037   1 H                                       1.0934778
  3005   6 C     3038   1 H                                       1.0926172
  3004   6 C     3039   1 H                                       1.0893520
  3004   6 C     3040   1 H                                       1.0928935
  3003   6 C     3041   1 H                                       1.0934958
  3003   6 C     3042   1 H                                       1.0929053
  3002   6 C     3043   1 H                                       1.0926737
  3002   6 C     3044   1 H                                       1.0931068
  3001   6 C     3045   1 H                                       1.0926961
  3001   6 C     3046   1 H                                       1.0914441
  3000   6 C     3047   1 H                                       1.0925840
  3000   6 C     3048   1 H                                       1.0919750
  2999   6 C     3049   1 H                                       1.0920342
  2999   6 C     3050   1 H                                       1.0929458
  2998   6 C     3051   1 H                                       1.0925739
  2998   6 C     3052   1 H                                       1.0925921
  2997   6 C     3053   1 H                                       1.0932233
  2997   6 C     3054   1 H                                       1.0929339
  2996   6 C     3055   1 H                                       1.0928568
  2996   6 C     3056   1 H                                       1.0927374
  2995   6 C     3057   1 H                                       1.0914945
  2995   6 C     3058   1 H                                       1.0930993
  2994   6 C     3059   1 H                                       1.0933289
  2994   6 C     3060   1 H                                       1.0925081
  2993   6 C     3061   1 H                                       1.0929891
  2993   6 C     3062   1 H                                       1.0933128
  2992   6 C     3063   1 H                                       1.0925579
  2992   6 C     3064   1 H                                       1.0915590
  2991   6 C     3065   1 H                                       1.0932087
  2991   6 C     3066   1 H                                       1.0927004
  2990   6 C     3067   1 H                                       1.0929741
  2990   6 C     3068   1 H                                       1.0932709
  2989   6 C     3069   1 H                                       1.0932865
  2989   6 C     3070   1 H                                       1.0925003
  2988   6 C     3071   1 H                                       1.0933556
  2988   6 C     3072   1 H                                       1.0930220
  2987   6 C     3073   1 H                                       1.0933186
  2987   6 C     3074   1 H                                       1.0921551
  2986   6 C     3075   1 H                                       1.0933216
  2986   6 C     3076   1 H                                       1.0935387
  2985   6 C     3077   1 H                                       1.0935202
  2985   6 C     3078   1 H                                       1.0920277
  2984   6 C     3079   1 H                                       1.0932118
  2984   6 C     3080   1 H                                       1.0936244
  2983   6 C     3081   1 H                                       1.0937462
  2983   6 C     3082   1 H                                       1.0921093
  2982   6 C     3083   1 H                                       1.0930735
  2982   6 C     3084   1 H                                       1.0919068
  2981   6 C     3085   1 H                                       1.0918115
  2981   6 C     3086   1 H                                       1.0926485
  2980   6 C     3087   1 H                                       1.0925910
  2980   6 C     3088   1 H                                       1.0924944
  2979   6 C     3089   1 H                                       1.0912476
  2979   6 C     3090   1 H                                       1.0914656
  2978   6 C     3091   1 H                                       1.0919501
  2978   6 C     3092   1 H                                       1.0926604
  2977   6 C     3093   1 H                                       1.0931930
  2977   6 C     3094   1 H                                       1.0940116
  2976   6 C     3095   1 H                                       1.0926535
  2976   6 C     3096   1 H                                       1.0909262
  2975   6 C     3097   1 H                                       1.0932842
  2975   6 C     3098   1 H                                       1.0938550
  2974   6 C     3099   1 H                                       1.0925903
  2974   6 C     3100   1 H                                       1.0923166
  2973   6 C     3101   1 H                                       1.0912436
  2973   6 C     3102   1 H                                       1.0936024
  2972   6 C     3103   1 H                                       1.0933968
  2972   6 C     3104   1 H                                       1.0913506
  2971   6 C     3105   1 H                                       1.0934450
  2971   6 C     3106   1 H                                       1.0936440
  2970   6 C     3107   1 H                                       1.0927838
  2970   6 C     3108   1 H                                       1.0898213
  2969   6 C     3109   1 H                                       1.0933127
  2969   6 C     3110   1 H                                       1.0939278
  2968   6 C     3111   1 H                                       1.0934531
  2968   6 C     3112   1 H                                       1.0907319
  2967   6 C     3113   1 H                                       1.0914150
  2967   6 C     3114   1 H                                       1.0936124
  2966   6 C     3115   1 H                                       1.0923378
  2966   6 C     3116   1 H                                       1.0932550
  2965   6 C     3117   1 H                                       1.0914030
  2965   6 C     3118   1 H                                       1.0909437
  2964   6 C     3119   1 H                                       1.0930237
  2964   6 C     3120   1 H                                       1.0937259
  2963   6 C     3121   1 H                                       1.0915097
  2963   6 C     3122   1 H                                       1.0917298
  2962   6 C     3123   1 H                                       1.0933810
  2962   6 C     3124   1 H                                       1.0938248
  2961   6 C     3125   1 H                                       1.0911539
  2961   6 C     3126   1 H                                       1.0930827
  2960   6 C     3127   1 H                                       1.0938523
  2960   6 C     3128   1 H                                       1.0931427
  2959   6 C     3129   1 H                                       1.0925025
  2959   6 C     3130   1 H                                       1.0940648
  2958   6 C     3131   1 H                                       1.0921268
  2958   6 C     3132   1 H                                       1.0906925
  2957   6 C     3133   1 H                                       1.0924151
  2957   6 C     3134   1 H                                       1.0936186
  2956   6 C     3135   1 H                                       1.0921055
  2956   6 C     3136   1 H                                       1.0919736
  2955   6 C     3137   1 H                                       1.0930619
  2955   6 C     3138   1 H                                       1.0936454
  2954   6 C     3139   1 H                                       1.0926779
  2954   6 C     3140   1 H                                       1.0928071
  2953   6 C     3141   1 H                                       1.0931078
  2953   6 C     3142   1 H                                       1.0927517
  2952   6 C     3143   1 H                                       1.0919351
  2952   6 C     3144   1 H                                       1.0925256
  2951   6 C     3145   1 H                                       1.0921902
  2951   6 C     3146   1 H                                       1.0929932
  2950   6 C     3147   1 H                                       1.0921483
  2950   6 C     3148   1 H                                       1.0934717
  2949   6 C     3149   1 H                                       1.0936069
  2949   6 C     3150   1 H                                       1.0898120
  2948   6 C     3151   1 H                                       1.0919823
  2948   6 C     3152   1 H                                       1.0932676
  2947   6 C     3153   1 H                                       1.0936985
  2947   6 C     3154   1 H                                       1.0928859
  2946   6 C     3155   1 H                                       1.0937864
  2946   6 C     3156   1 H                                       1.0933978
  2945   6 C     3157   1 H                                       1.0933908
  2945   6 C     3158   1 H                                       1.0909862
  2944   6 C     3159   1 H                                       1.0926013
  2944   6 C     3160   1 H                                       1.0930025
  2943   6 C     3161   1 H                                       1.0930133
  2943   6 C     3162   1 H                                       1.0930603
  2942   6 C     3163   1 H                                       1.0922046
  2942   6 C     3164   1 H                                       1.0928026
  2941   6 C     3165   1 H                                       1.0934497
  2941   6 C     3166   1 H                                       1.0934648
  2940   6 C     3167   1 H                                       1.0922277
  2940   6 C     3168   1 H                                       1.0927575
  2939   6 C     3169   1 H                                       1.0934348
  2939   6 C     3170   1 H                                       1.0936114
  2938   6 C     3171   1 H                                       1.0923473
  2938   6 C     3172   1 H                                       1.0928885
  2937   6 C     3173   1 H                                       1.0918003
  2937   6 C     3174   1 H                                       1.0933990
  2936   6 C     3175   1 H                                       1.0927638
  2936   6 C     3176   1 H                                       1.0929241
  2935   6 C     3177   1 H                                       1.0909918
  2935   6 C     3178   1 H                                       1.0931091
  2934   6 C     3179   1 H                                       1.0935271
  2934   6 C     3180   1 H                                       1.0915177
  2933   6 C     3181   1 H                                       1.0917118
  2933   6 C     3182   1 H                                       1.0934879
  2932   6 C     3183   1 H                                       1.0933331
  2932   6 C     3184   1 H                                       1.0908186
  2931   6 C     3185   1 H                                       1.0934343
  2931   6 C     3186   1 H                                       1.0933625
  2930   6 C     3187   1 H                                       1.0922168
  2930   6 C     3188   1 H                                       1.0917374
  2929   6 C     3189   1 H                                       1.0933598
  2929   6 C     3190   1 H                                       1.0927206
  2928   6 C     3191   1 H                                       1.0911248
  2928   6 C     3192   1 H                                       1.0932059
  2927   6 C     3193   1 H                                       1.0934285
  2927   6 C     3194   1 H                                       1.0924027
  2926   6 C     3195   1 H                                       1.0933573
  2926   6 C     3196   1 H                                       1.0934295
  2925   6 C     3197   1 H                                       1.0927071
  2925   6 C     3198   1 H                                       1.0895367
  2924   6 C     3199   1 H                                       1.0917674
  2924   6 C     3200   1 H                                       1.0936410
  2923   6 C     3201   1 H                                       1.0934090
  2923   6 C     3202   1 H                                       1.0932855
  2922   6 C     3203   1 H                                       1.0936110
  2922   6 C     3204   1 H                                       1.0910978
  2921   6 C     3205   1 H                                       1.0915997
  2921   6 C     3206   1 H                                       1.0930302
  2920   6 C     3207   1 H                                       1.0928799
  2920   6 C     3208   1 H                                       1.0913288
  2919   6 C     3209   1 H                                       1.0932552
  2919   6 C     3210   1 H                                       1.0931999
  2918   6 C     3211   1 H                                       1.0934156
  2918   6 C     3212   1 H                                       1.0930003
  2917   6 C     3213   1 H                                       1.0916181
  2917   6 C     3214   1 H                                       1.0932503
  2916   6 C     3215   1 H                                       1.0931934
  2916   6 C     3216   1 H                                       1.0922636
  2915   6 C     3217   1 H                                       1.0916436
  2915   6 C     3218   1 H                                       1.0934570
  2914   6 C     3219   1 H                                       1.0929177
  2914   6 C     3220   1 H                                       1.0920135
  2913   6 C     3221   1 H                                       1.0923371
  2913   6 C     3222   1 H                                       1.0934087
  2912   6 C     3223   1 H                                       1.0927877
  2912   6 C     3224   1 H                                       1.0922959
  2911   6 C     3225   1 H                                       1.0927250
  2911   6 C     3226   1 H                                       1.0930983
  2910   6 C     3227   1 H                                       1.0931882
  2910   6 C     3228   1 H                                       1.0936601
  2909   6 C     3229   1 H                                       1.0923032
  2909   6 C     3230   1 H                                       1.0927896
  2908   6 C     3231   1 H                                       1.0934906
  2908   6 C     3232   1 H                                       1.0938312
  2907   6 C     3233   1 H                                       1.0916827
  2907   6 C     3234   1 H                                       1.0921194
  2906   6 C     3235   1 H                                       1.0934498
  2906   6 C     3236   1 H                                       1.0926366
  2905   6 C     3237   1 H                                       1.0922318
  2905   6 C     3238   1 H                                       1.0924823
  2904   6 C     3239   1 H                                       1.0936292
  2904   6 C     3240   1 H                                       1.0928734
  2903   6 C     3241   1 H                                       1.0921927
  2903   6 C     3242   1 H                                       1.0928046
  2902   6 C     3243   1 H                                       1.0934074
  2902   6 C     3244   1 H                                       1.0935398
  2901   6 C     3245   1 H                                       1.0918167
  2901   6 C     3246   1 H                                       1.0914535
  2900   6 C     3247   1 H                                       1.0932111
  2900   6 C     3248   1 H                                       1.0930073
  2899   6 C     3249   1 H                                       1.0932085
  2899   6 C     3250   1 H                                       1.0923727
  2898   6 C     3251   1 H                                       1.0908777
  2898   6 C     3252   1 H                                       1.0929657
  2897   6 C     3253   1 H                                       1.0883179
  2897   6 C     3254   1 H                                       1.0881721
  2897   6 C     3255   1 H                                       1.0878379
  3016   6 C     3256   1 H                                       1.0867419 (min)
  3016   6 C     3257   1 H                                       1.0879652
  3016   6 C     3258   1 H                                       1.0884300

 * 2 distinct bonds (by element types)

   Z      Z             #   av. dist./Å        max./Å        min./Å
   1 H    6 C        2178     1.0925822     1.0945430     1.0867419
   6 C    6 C        1071     1.5271608     1.5388295     1.5202276


optimized geometry written to: xtbopt.xyz


           -------------------------------------------------
          | TOTAL ENERGY            -3427.541844975286 Eh   |
          | GRADIENT NORM               0.000793188301 Eh/α |
          | HOMO-LUMO GAP              11.345523813408 eV   |
           -------------------------------------------------

------------------------------------------------------------------------
 * finished run on 2024/06/20 at 16:13:54.615     
------------------------------------------------------------------------
 total:
 * wall-time:     3 d,  1 h, 15 min, 49.241 sec
 *  cpu-time:    16 d, 18 h, 57 min, 15.080 sec
 * ratio c/w:     5.500 speedup
 SCF:
 * wall-time:     0 d,  0 h,  6 min, 42.056 sec
 *  cpu-time:     0 d,  0 h, 36 min, 20.980 sec
 * ratio c/w:     5.425 speedup
 ANC optimizer:
 * wall-time:     3 d,  1 h,  8 min, 25.532 sec
 *  cpu-time:    16 d, 18 h, 19 min, 57.460 sec
 * ratio c/w:     5.501 speedup

