3258
 energy: -3427.541844975286 gnorm: 0.000793188301 xtb: 6.6.1 (8d0f1dd)
C          110.31801311050222      108.32963410859165      111.31168415495577
C          110.28234816711347      109.85139246305053      111.26463629496622
C          111.48276226104025      110.47530693174933      111.97093862019342
C          111.40429231746039      111.99825241631663      112.00330895123615
C          112.61295678498864      112.63228080249893      112.68473513656122
C          112.51271960568616      114.15440678439805      112.73376761799196
C          113.80263521798477      114.78428891284800      113.25118607982373
C          113.70156235668185      116.28697591918271      113.51614279311812
C          113.23518242903332      117.12031922032268      112.32240206275725
C          114.13918383974789      116.98906513929552      111.09994966436922
C          113.72205098061072      117.89681787636738      109.94269336575356
C          112.37186996477878      117.51142766397754      109.33998473121363
C          112.08308607583298      118.26948683541627      108.04711273302686
C          110.73881927325293      117.90622092380870      107.41382675816250
C          109.50132865165068      118.26375467649100      108.24026696049579
C          109.39011894680462      119.75522437460015      108.55129740621268
C          108.06197054200982      120.13803442273026      109.20834292912899
C          106.89379526239418      120.17823898537033      108.22734148679071
C          105.57927119384115      120.57920810245680      108.89314688465124
C          104.42533888510094      120.57760975572928      107.89382757411859
C          103.06121076689161      120.76841789917441      108.55190169156472
C          101.92722196755616      120.60417844385157      107.54325851303926
C          100.54403806949482      120.60964276636231      108.18978445280706
C           99.45662405963967      120.23675431764885      107.18635688838071
C           98.07302653510727      120.09750919333706      107.81791446929178
C           97.07686384892921      119.48729671903594      106.83466079708175
C           95.68880048481574      119.28761524675812      107.43786780295333
C           94.72418079974227      118.59243539873161      106.47224371749542
C           94.92085027461124      117.07776907203537      106.44556072095526
C           94.08666550028373      116.35969650544152      105.38331616172316
C           94.57732226962602      116.63692848953832      103.96425904130818
C           94.00770950754890      115.66352773680832      102.93462177250062
C           94.48673006840994      115.96412098137145      101.51202614979366
C           96.00042800281757      115.84187230820687      101.36916458960434
C           96.51222272551487      116.01081647387775       99.94065323222837
C           98.03718209734498      116.08709928289296       99.94466687037047
C           98.67219010077638      116.18900323678267       98.56139012024241
C          100.17779830001194      116.41212664427383       98.68556283614819
C          100.91711764706922      116.38189973898697       97.35121649104738
C          102.40084302431970      116.68483319580099       97.54278470341214
C          103.19886676996926      116.62436747177168       96.24311806119042
C          104.63906521833161      117.08047583795936       96.45749050418810
C          105.47198395674528      117.05810185279759       95.17875628579793
C          106.86410291213495      117.63630876805283       95.41907456701159
C          107.67394631747491      117.79051323309929       94.13388914909207
C          109.05261986822534      118.41452272015140       94.36782271491285
C          109.00551580986064      119.86980157177179       94.84018940613460
C          108.68581483675595      120.86414057860777       93.72139535238269
C          108.15344005931524      122.20668958717202       94.25255913684425
C          106.68836211120492      122.46235989494697       93.88894280410339
C          105.72186638890950      121.44308888991198       94.48828515518615
C          104.27909422961177      121.69224411985429       94.04913237605787
C          103.36807633542625      120.51722808893341       94.39554142930550
C          101.91850390145127      120.74793932900737       93.97530466766635
C          101.06270010246983      119.50635675684556       94.21238361815905
C           99.60362205034033      119.70319132539784       93.81061770372833
C           98.79418262595038      118.42035883425395       93.98707161659154
C           97.33975051667237      118.58691584622656       93.55274988939280
C           96.56161595589123      117.26963060131467       93.54582371203908
C           96.25676588711627      116.73639578362626       94.94345890288625
C           95.54174895143879      115.38833401262393       94.89773535215997
C           95.17205380253547      114.88837330736392       96.29194544651462
C           94.57080699059760      113.48578481539596       96.25113568884287
C           94.18120054925099      112.94747282161163       97.62807280124939
C           92.95933427435739      113.63880726013923       98.22811119659586
C           92.51089153103247      112.97474203521588       99.52782769825191
C           91.24845366071469      113.61774898576245      100.09642849518364
C           90.81752155215358      112.97046610111545      101.41014305429769
C           89.47073539867588      113.49924958066543      101.89728357552208
C           88.95908579135626      112.78907238357966      103.15276443897490
C           89.75615353763791      113.06929627580614      104.42816315381492
C           89.67564515986844      114.52567452660880      104.87886187346474
C           90.34453239473999      114.75268680820639      106.23208305258122
C           90.28781741895486      116.21774437888131      106.65576035687093
C           91.07988005048279      116.48773149670507      107.93282499921678
C           91.13246659816471      117.97798145002248      108.26258921258746
C           92.10718936896552      118.29293151934586      109.39429493921888
C           92.22703770322416      119.79269268664639      109.65404245049920
C           93.35612507718726      120.12423680813698      110.62700056248134
C           93.42108667217964      121.61948606884053      110.93003150199660
C           94.62305550135910      122.01570008381101      111.79038271782422
C           95.93756416419220      122.05476670305909      111.01248222898717
C           97.08296546229454      122.60734471340979      111.85767958962275
C           98.38880050287487      122.70813825839640      111.07282182080137
C           99.51512784680747      123.31551406200474      111.90680457158237
C          100.85833832551464      123.27653533716183      111.18261500420269
C          101.97131803779435      123.96776814166967      111.96856504286423
C          103.31384057650784      123.86467399133312      111.24858994721257
C          104.44193025635892      124.60477891395198      111.96529219914265
C          105.70695175713936      124.62937615804829      111.11026141175908
C          106.84835236975005      125.45807075407593      111.70050024064167
C          107.60179742720119      124.76475064259465      112.83415476850874
C          108.89026293135582      125.51063147062831      113.17560000809105
C          109.78107524579563      124.76092622145647      114.16410083303430
C          111.15159825055876      125.42443948763422      114.28046712964984
C          112.11033956551263      124.69278888497810      115.21867060420564
C          113.50488859927034      125.31577094116308      115.16523777052045
C          114.57614156553508      124.53809606505527      115.93095337725403
C          114.46198901662902      124.64878857420386      117.45013699934975
C          115.64913976694686      123.97591251406449      118.13629884084948
C          115.70796188294922      124.18288478402907      119.64978203009065
C          114.49103150561126      123.66951353761024      120.41822320171914
C          114.26781186754596      122.16339064004923      120.30411927876618
C          113.02976796163512      121.74330860768589      121.09102517986689
C          112.69849706126080      120.25395268489899      121.00138753444688
C          113.69829829503975      119.37990357017138      121.75311839160673
C          113.27466985791699      117.91607003776643      121.87333885853162
C          111.99868833293991      117.72691713535818      122.69380119859029
C          111.78017886048777      116.28557254189703      123.15185574180147
C          111.69729295496114      115.28605896885399      122.00034893380230
C          111.11951307081813      113.94796561864085      122.45404696217815
C          111.13348419406934      112.90836153716619      121.33787843935831
C          110.34637639508787      111.65522638650280      121.70581294737917
C          110.25913996301350      110.67069912870647      120.54414378801259
C          109.28555473209232      109.53341950066637      120.82879202277753
C          109.10728730417883      108.60262901619463      119.63422731580803
C          108.06215323437392      107.53155623768643      119.91973898764461
C          107.82233639300208      106.59471368118884      118.74179982228002
C          106.74007720606301      105.57344069005860      119.07200691918153
C          106.48633595182267      104.59354853805860      117.93775906135288
H          107.03626101538845      105.01791323593861      119.96365165754156
H          105.81248232645353      106.10238795781108      119.30471407488227
H          107.51944541805442      107.17515680136019      117.86664320577385
H          108.75096293098510      106.07713545817197      118.49023228051020
H          108.37582377265723      106.94351531957362      120.78506128605048
H          107.11886409206664      108.02114275347586      120.17730942395252
H          108.79272936101894      109.18832602739093      118.76688817683696
H          110.06177758751105      108.13055098468388      119.39086235022172
H          109.63141085431256      108.95723985188988      121.68977115279405
H          108.31247687464131      109.95995969080806      121.08753622131610
H          109.92318849260808      111.20366005006021      119.65313033394413
H          111.25062065316240      110.26462973915136      120.33486932465857
H          110.80323794647346      111.16780518644880      122.57028972245186
H          109.33472802258811      111.94947013395358      121.99759335968670
H          110.69612964544491      113.34585737908705      120.43819916362318
H          112.16514852340261      112.63959427546529      121.10349641726511
H          111.68547804197024      113.57371603535478      123.31136744725482
H          110.08872341699563      114.10340005783377      122.78551988331031
H          111.06087235529345      115.69654438502621      121.21199999217629
H          112.68984006595525      115.12691378389137      121.57492160189354
H          112.58539573775506      115.98963746509237      123.82959452134101
H          110.84606149062151      116.24590302011735      123.71977696420059
H          112.04314866431346      118.36909912002594      123.57847960334369
H          111.13274481836437      118.03856065323471      122.10559818027940
H          113.13596434578777      117.49688209805129      120.87528841829419
H          114.08773645906463      117.36373500287426      122.35170844255940
H          114.66463646479954      119.42194870882247      121.24765852678949
H          113.83234915541534      119.79049239860733      122.75781312104958
H          111.70456889791781      120.10517184173612      121.42833607289373
H          112.66085255224918      119.94800359543295      119.95395514998275
H          113.15958043696187      122.01580894249025      122.14177564425589
H          112.17957547377695      122.31492826790134      120.71128118723449
H          114.13064675049992      121.88672403340247      119.25754192947259
H          115.14889032819109      121.63955354701785      120.67847094000302
H          114.62452318521505      123.92333700139743      121.47434259884700
H          113.59913342637694      124.19365230450066      120.07171462367076
H          116.60462748089654      123.68389959510583      120.02876758628500
H          115.81852659026919      125.25197555000761      119.85360746499376
H          115.62778161759331      122.90717092390655      117.91653769004067
H          116.57172582021759      124.37869680987562      117.70853225580937
H          114.43079829807219      125.70393971237368      117.73493850919900
H          113.53306166038406      124.18146594886629      117.77854327785536
H          114.53609061892719      123.48527072539092      115.64059019197761
H          115.55557462670235      124.92357647182753      115.63188113213425
H          113.81071160003229      125.37345451546301      114.11656471611174
H          113.45941569574816      126.33933867497073      115.54682971235002
H          111.72055524113782      124.72557597328776      116.23762492407516
H          112.17576567151616      123.64250384734264      114.92357586708367
H          111.60145331472458      125.46705615319560      113.28401041419225
H          111.02771254488802      126.45588397700644      114.62161466102062
H          109.30084988523585      124.72168629267853      115.14426602780976
H          109.90979773978816      123.73394424576264      113.81671793171259
H          109.45595153067543      125.66604508604566      112.25188916113336
H          108.64783019100787      126.49806339024441      113.57664093562224
H          106.96825409721011      124.69333217062578      113.71986649407516
H          107.85407149297696      123.74950126368738      112.52094876829257
H          107.56406238063623      125.67092410570235      110.90087514574037
H          106.45987802332866      126.41831229192243      112.04901057336906
H          106.05414543583818      123.60657121419737      110.94371869268907
H          105.44769887410069      125.04511694597213      110.13252091223451
H          104.12742593809909      125.63236500545710      112.16707027446482
H          104.64483109383025      124.12523100974462      112.92396410995730
H          103.58705692210268      122.81167065634902      111.14271677262008
H          103.20448328157752      124.27747010327430      110.24147857222228
H          101.71460586094287      125.02162216487427      112.10668612040914
H          102.05271598802211      123.51939228621166      112.96058922166245
H          101.13605827485652      122.23511057696963      111.00390351305741
H          100.75629565550183      123.76215071678797      110.20821165753483
H           99.26421999746852      124.35008641128124      112.15665997102246
H           99.60170372659891      122.76507251267577      112.84653347879296
H           98.68361066931030      121.71221321922782      110.73813767440086
H           98.22818504473550      123.32165436667162      110.18236001497029
H           96.80921450387854      123.59806339348452      112.23148941164496
H           97.23402558981824      121.96036006943747      112.72557523182395
H           96.19789191574797      121.05301413037213      110.66708031353203
H           95.80899143017513      122.68910631422494      110.13140372112957
H           94.44082427960468      123.00922527346805      112.20915803378224
H           94.71434641610037      121.31987002831096      112.62804309779898
H           93.45599081224671      122.17854092351638      109.99118353202024
H           92.50233247396642      121.91008795820747      111.44652640257662
H           93.20681927676580      119.57293530417365      111.55815350773952
H           94.30273846066461      119.79627475378318      110.19566406257526
H           92.41447331827865      120.30720204549201      108.70795090802018
H           91.28015173376099      120.17154284448544      110.04742744175246
H           91.78002846039499      117.79258875042269      110.30806018051646
H           93.09212383807767      117.89933828214907      109.13260854299118
H           91.44484540166485      118.52236145052856      107.36701062244684
H           90.13310538320073      118.33320422546613      108.52669988090943
H           90.63302929788722      115.93997550567927      108.76612132781057
H           92.09846958564741      116.11563813875715      107.80165532108300
H           90.69712651385682      116.83310795242818      105.84930801566635
H           89.24680394708413      116.51937669069406      106.79726793050324
H           89.85851120673692      114.13628692190642      106.99136004246633
H           91.38981794944523      114.44064781997164      106.16940668199599
H           90.16372895180761      115.16243202576834      104.13823993759431
H           88.62652988300040      114.82767990726198      104.93795576752785
H           89.35767335849916      112.43306206686674      105.22351910435545
H           90.80184225102836      112.79255964248128      104.28225800433103
H           87.92121060144400      113.08806407854102      103.32287701399915
H           88.96243806480372      111.71152131446541      102.96713662156812
H           89.54126592809351      114.57292308477507      102.07846462490618
H           88.73372879205267      113.35496961057972      101.10214682483246
H           90.74303375228827      111.88949551981553      101.26663189942816
H           91.58557315708582      113.15599055160412      102.16281799838882
H           91.42362775217438      114.68468688860318      100.25741679573061
H           90.44073471755806      113.52621882342621       99.36515923766275
H           92.31738154351869      111.91491692130877       99.34206031278710
H           93.31524880008990      113.03714910208068      100.26508494503013
H           93.18467261845814      114.68945450437330       98.42252712574603
H           92.13797892760770      113.60497530013991       97.50732106161077
H           93.96152758218940      111.88083330980744       97.53589865779172
H           95.02670402465522      113.05164052830699       98.31186265405599
H           93.68979609121170      113.48760423908546       95.60386901393528
H           95.30417876245980      112.81012628422890       95.80277696544532
H           96.06794370028297      114.87684938321293       96.91604490531115
H           94.46253317668547      115.58441252614362       96.74308926421058
H           94.63578654901183      115.47731986513973       94.29254216905156
H           96.18980582483643      114.65472503160613       94.41120066710570
H           97.18460395360586      116.62343855025426       95.50701031506611
H           95.62987998221108      117.45948748436061       95.47069190513041
H           95.61680585264409      117.41977527910028       93.01688223394252
H           97.13199538590273      116.52123911970456       92.98954742435333
H           96.84156379315756      119.30030748659320       94.21330816958411
H           97.32460285608998      119.00610819890188       92.54318864825262
H           99.25467415980096      117.62516834197973       93.39481637134739
H           98.83340096463435      118.11715588540196       95.03458593328172
H           99.16268811747862      120.49801695079631       94.41646640013327
H           99.55566430209933      120.01975551706926       92.76537751365096
H          101.47925302338395      118.67332854208482       93.63912775229029
H          101.10876221089079      119.23819756400376       95.26962623302688
H          101.50459138888144      121.58913718574480       94.53640542775754
H          101.88529277673042      121.01251410274868       92.91502736547369
H          103.74280545129905      119.62220100321449       93.89219405691726
H          103.40539414525004      120.33189629435164       95.47008188512092
H          103.90168132472793      122.60300733694071       94.52078110513025
H          104.25514722867328      121.85214823705746       92.96748170109541
H          106.01203834298481      120.44051808228002       94.17321286182728
H          105.78226550944979      121.47853710178241       95.57800162997327
H          106.40907233166197      123.46267393662987       94.23104316415373
H          106.58828106132680      122.45163768623834       92.79991899476772
H          108.26055469505084      122.24016107606275       95.33890069742421
H          108.74944966715854      123.02698341512306       93.84671246262184
H          109.58972042915860      121.02890940938616       93.13065975312925
H          107.94760398762421      120.43013333287244       93.04636851452160
H          108.26223827025439      119.96482654161649       95.63133456500550
H          109.97319922034802      120.13143097467137       95.27421186166393
H          109.57789254571662      117.81599935019268       95.11600961337678
H          109.63140761076377      118.36107958958769       93.44170690952502
H          107.80842116187313      116.80518241536151       93.67823109767475
H          107.11005127603343      118.39715742624460       93.42146963232005
H          106.74659364809852      118.61030759017974       95.89638167211758
H          107.40987756275571      116.99329251085503       96.11321785805789
H          105.55170969108748      116.03394979793180       94.80424651037612
H          104.96436338643805      117.64749774548240       94.41067689948621
H          104.62970402627775      118.09996551873600       96.85218634877484
H          105.11317273542001      116.44489779419341       97.20908713797373
H          103.18864346792870      115.60328544029107       95.85188149898188
H          102.72626674182521      117.26649092489968       95.49599504820675
H          102.50611118492684      117.68144236624070       97.97935340158148
H          102.82364118411337      115.97412669770482       98.25747650095241
H          100.79981597883879      115.39957430155243       96.88664070379329
H          100.48101616557898      117.11787782171257       96.67013174199487
H          100.35433607270609      117.37750855128995       99.16672012978532
H          100.59767675781546      115.64248605665158       99.33874374220765
H           98.48143845857390      115.27096731918932       98.00050877872303
H           98.22073912380428      117.01613360358795       98.00792751714680
H           98.34115011311452      116.95677793069537      100.53397786559566
H           98.43433773622951      115.20156020643918      100.44686201426285
H           96.17919887853728      115.17245706779718       99.32478295647928
H           96.10029148176592      116.92334673825998       99.50269500271982
H           96.48087514747544      116.60078467963950      101.98810903988854
H           96.31039757490477      114.86157164734925      101.73918198701413
H           94.00318301268557      115.27048661398949      100.82090855681575
H           94.17662948369032      116.97340341449713      101.23413720111189
H           94.29993939686452      114.64488746616796      103.20410616078497
H           92.91573487877390      115.71058812579696      102.96058734154255
H           94.31343225884774      117.65532850151216      103.67190254876652
H           95.66551039098911      116.55814221136313      103.96037781686553
H           94.14756536107815      115.28260013069129      105.56664828109098
H           93.03906937931507      116.64997760177889      105.47755215878763
H           95.97549531964292      116.85192091189980      106.26886461763192
H           94.66302785253565      116.67823237193338      107.43029246984591
H           93.69583810565847      118.80542167891636      106.76974956791040
H           94.86802758874913      119.00535165990274      105.47238427549085
H           95.77282081079268      118.69439693894483      108.35272537662210
H           95.28479362155362      120.26339593038261      107.71547761502133
H           96.99727812347261      120.13365239874176      105.95779456325610
H           97.46624589166427      118.52480325203913      106.49365610387385
H           98.14245080386328      119.45689016659630      108.70069640881249
H           97.71627969980149      121.07566173718240      108.14843054878713
H           99.42146905398391      120.98613160951028      106.39248570380634
H           99.72682692038762      119.28567396834690      106.72025354268933
H          100.53236458854032      119.88584592155318      109.00882736276994
H          100.33487867191805      121.59291988213523      108.61618489080058
H          101.98505124872135      121.40031620363037      106.79736860415150
H          102.06412880212221      119.65677739355736      107.01641178050996
H          102.94315986118465      120.02660933419982      109.34605681071312
H          103.00546227716661      121.75665310331381      109.01383975934463
H          104.58606297934452      121.36256344426472      107.15138364584733
H          104.42571008723843      119.62521622101289      107.35824616101907
H          105.35602325932176      119.87717402465887      109.70081514232862
H          105.67815829818440      121.57217319744697      109.34103765256654
H          107.12166607722985      120.88287661027651      107.42410289725935
H          106.76562616006299      119.19518988102531      107.76923078857405
H          107.84046658574212      119.43133305691551      110.01238096304562
H          108.16425150553114      121.12599433405023      109.66669594607190
H          110.20011886767170      120.03325448077456      109.22781889420648
H          109.51480631862390      120.32881761826725      107.62971706103292
H          108.62238903846459      117.94683507360075      107.67351480614079
H          109.50124288748641      117.69851969319336      109.17478984985537
H          110.66707464854564      118.41706896084993      106.44973876748725
H          110.72503682766425      116.83100337984543      107.21294568008524
H          112.12362568930379      119.34369626771154      108.23649187546280
H          112.87168023735816      118.04361467202321      107.32291666788241
H          112.36217311257150      116.43735959404529      109.13235162249407
H          111.58421730986031      117.71748431523905      110.06475016729392
H          113.68306416667203      118.93294548285154      110.28668760137167
H          114.48697342376192      117.84036630002063      109.16309942199817
H          115.16438124511730      117.23516289989787      111.39238231842693
H          114.13558283400586      115.95599675755362      110.74891107076019
H          112.21639814911023      116.83208934799650      112.06275659320161
H          113.20989461164916      118.17002893638777      112.62758920754021
H          113.00668299328235      116.45638492497002      114.34345189345964
H          114.68443910626630      116.64479570263410      113.83630586421995
H          114.08338693038174      114.29083326391356      114.18574674992938
H          114.60558067762643      114.59280233046871      112.53682091735755
H          112.29649526805323      114.52775532212490      111.73096224703576
H          111.67878009510255      114.44216183450858      113.37947846741412
H          112.70727991756461      112.24311126985920      113.70023728210663
H          113.52120921375010      112.35185405594619      112.14532730972216
H          111.33115649501248      112.37560153523890      110.98071106472979
H          110.49526741375448      112.29919199808251      112.53022826694381
H          111.53492802508609      110.09918708238915      112.99551144839441
H          112.39934884709113      110.16820505483851      111.46166991284187
H          110.26597092723019      110.18253268754749      110.22338560749425
H          109.36312028183205      110.20526379604037      111.73755228715495
H          110.29809044273830      107.97954211845402      112.34251182227393
H          109.46267273895003      107.90528913193110      110.79011990053533
H          111.22611403457796      107.95301604422545      110.84499615548710
H          105.70297066760617      103.89254839025638      118.21771781848931
H          106.17814482564486      105.11522130394604      117.03418088893659
H          107.39186570053683      104.03105236996217      117.71737984877694
C           96.52871165865868       98.47999406379567      103.63058013729547
C           97.95465710454522       98.36366557087318      103.10807916324987
C           98.94741763941526       98.12372240154875      104.24171220705327
C          100.37313227014452       97.84730912182705      103.76641059114321
C          101.01984415799799       99.02882545432374      103.04811796756493
C          102.49965371771141       98.78367759985954      102.76959241445832
C          103.16475518174768       99.98703144761070      102.10667796013433
C          104.65099257470592       99.76807824594299      101.82546054757026
C          105.51654410319425       99.81010245932970      103.08051795387560
C          106.97657854099965       99.47550693891004      102.78662217964893
C          107.80945761046924       99.44007695917720      104.06380473756630
C          109.24979221200104       98.99437079704745      103.82947060419805
C          110.02894791731450       98.90257050625983      105.13998626272999
C          111.47029741035544       98.44528602708630      104.92925992772869
C          112.16664770280504       98.03939838633136      106.22949770184957
C          112.33067979979116       99.16140647738520      107.25539420288420
C          113.24548422496409      100.28973155914720      106.78391770165473
C          113.59798298923396      101.24553002136338      107.92121901565703
C          114.50410245919954      102.38413126215679      107.46048253368308
C          114.86743424152476      103.33154691627556      108.60159804661056
C          115.77283658294060      104.47031166280340      108.13844650896097