3864
 energy: -5104.210996507243 gnorm: 0.000940142456 xtb: 6.6.1 (8d0f1dd)
C           63.94610456224341       50.28011050961560       57.23210214739999
C           63.82436382510816       50.03758505341061       55.86920815786862
C           62.72222461395160       49.31560357503097       55.42577809591168
C           61.75522921383800       48.87603378888168       56.31206987387630
C           61.87462907517559       49.14934763729700       57.66376583172879
C           62.98012216022839       49.84439507276808       58.12165988060749
C           64.87379300900706       50.55343100714307       54.91493538118768
C           65.36325715046642       49.45348899543058       53.96841140131070
C           64.35707898398712       51.75232594560308       54.10230204696805
C           64.06998282003201       53.00477321349231       54.94543909568162
C           65.25177701281703       53.38511986145263       55.79973131912168
C           66.49870302438171       53.63786434272088       55.23911083872093
C           67.57452594181234       53.99483115034004       56.03186532934014
C           67.42129752471861       54.10958679943015       57.40329411368992
C           66.18335932110033       53.86670625200500       57.97326367773375
C           65.11014560946772       53.50814848150385       57.17672668944042
C           63.68377829216229       54.17311409279326       54.02238605008981
C           63.40358288103510       55.47891395660682       54.78367837861725
C           62.27183376677429       55.31833071695482       55.76405291467037
C           62.45543363209659       55.63402436818868       57.10510240825734
C           61.40778224115769       55.54182295551858       58.00482332404635
C           60.16026201156675       55.12483736718097       57.57505786660668
C           59.96948749997189       54.78624462168087       56.24699298321865
C           61.01706559826150       54.88635949981832       55.35112167527007
C           63.12004544374015       56.61546126313829       53.78644409805050
C           63.17803652091916       58.03059003949532       54.39538901760864
C           63.49459639633692       59.01544708402897       53.29543421716313
C           62.57632333213500       59.28718415426409       52.28843383851614
C           62.86836993646476       60.19009637438462       51.28366253287585
C           64.09238792270227       60.83631891557039       51.26257777641962
C           65.02044922908533       60.56788198837405       52.25388741161673
C           64.72197992722668       59.66456886033775       53.25959313953473
C           61.88053610299856       58.41893139399411       55.12368890195680
C           61.86066922182430       59.90300913428923       55.51580522237039
C           63.03571458724115       60.25098118466656       56.39615949314299
C           63.91161297209980       61.26684997590058       56.03607640867232
C           64.97984363575419       61.60770519323977       56.84745178356722
C           65.19102495294491       60.93256678401747       58.03665089605333
C           64.32441487786339       59.91805454168551       58.40721491332443
C           63.25656946290071       59.58385529605231       57.59600083013230
C           60.57416800928192       60.32114764615526       56.24860253332468
C           59.25076235958701       59.95120871192074       55.55972216038336
C           58.12046419375578       60.52400133590704       56.38008803947037
C           57.35726306618530       59.69530598906995       57.19269331071664
C           56.32605458635274       60.20211315321190       57.96318649295326
C           56.04214803460838       61.55604661220452       57.93338935276789
C           56.79582731322391       62.39449881517432       57.12967139590632
C           57.82759895530740       61.88307193351311       56.36333011399192
C           59.18171378122865       60.41824745882653       54.10057487885631
C           57.82209052256486       60.09910315267241       53.45911134173450
C           57.39973525438393       58.68350776083403       53.76929499961564
C           56.23466020044548       58.44720526123027       54.48676551532394
C           55.85842836543248       57.15911486916326       54.82422572776291
C           56.64266023768167       56.08247452258361       54.45182294493093
C           57.79387157386038       56.30485851053701       53.71518387223024
C           58.16651678777350       57.59200093973106       53.37370007740407
C           57.84815735705897       60.30920221456059       51.93835953126647
C           58.13896408176100       61.75238238827819       51.50579225640767
C           57.26489123239069       62.73377809457623       52.24731678455036
C           55.87812072583613       62.64142192389713       52.20922063424688
C           55.08505911029919       63.53967561705264       52.89954334926509
C           55.66744168966110       64.55596450354697       53.63799024207978
C           57.04605764862450       64.67028814168650       53.67133141365132
C           57.83485102852330       63.76477342893510       52.98278152255591
C           57.94484152875010       61.93290807586003       49.98984202043073
C           58.89302605977168       61.06332517562363       49.13090195982470
C           59.54676907517367       61.91636185218606       48.07108451995474
C           58.87359785661354       62.31719617640824       46.92234466891055
C           59.49780472884208       63.10626941404979       45.97301501538099
C           60.80105263727266       63.53217868529376       46.16508859883633
C           61.47909988547416       63.15327091482613       47.31058209372634
C           60.85621626006059       62.34772888036498       48.24727631135990
C           58.15253765393447       59.86193930896146       48.52838758367628
C           59.05686276712866       59.00998220954897       47.63037773095446
C           60.24779106417870       58.46707066244050       48.38045482905116
C           61.53666115349509       58.72477408399256       47.93040317341171
C           62.63766663248180       58.18164780240477       48.57115355236875
C           62.46816297223398       57.37315367134556       49.68071666346022
C           61.18882598330015       57.12126918870246       50.14488155236871
C           60.08988618661476       57.65832405991828       49.50062229609811
C           58.30887035669610       57.82281062912603       46.99771477093550
C           57.19118800487038       58.21639322559313       46.02862558494068
C           57.62434001090625       59.11481963641391       44.89634496101104
C           58.91234976923980       59.11806419148014       44.37208673784333
C           59.23920345015208       59.93335460128844       43.30179734052511
C           58.28332531952236       60.74957500264534       42.72454107792358
C           56.99460196015133       60.74774446146776       43.23002085434141
C           56.67484548585748       59.94467736543021       44.30844222321922
C           56.49652288226892       56.96194611565647       45.45319980083097
C           57.37566557779156       56.16493005943002       44.47002035640837
C           56.70721922879728       56.03510363000792       43.12369602022260
C           55.53622242918281       55.30357167604546       42.96236685412740
C           54.94014447082340       55.17135027773294       41.72200914436070
C           55.50423604035897       55.78225179384727       40.61492871297808
C           56.65897368981764       56.53085576476160       40.76355012841454
C           57.25437517004303       56.65414639993521       42.00679021993425
C           57.77181586057086       54.78386675414858       45.01678859399480
C           58.84591835145605       54.15994136404647       44.11782304739853
C           60.08032071924726       55.03089684776106       44.08486000551554
C           60.62495552588572       55.43493568961938       42.87227682034925
C           61.74603373565234       56.24610794975231       42.82886016662601
C           62.34070104521890       56.67343653000157       44.00360975750409
C           61.81565967559450       56.26914915100804       45.21924633991234
C           60.70291191393992       55.44818897977046       45.25684824100976
C           59.27408703233166       52.74568858864872       44.53596240335008
C           58.16889701453082       51.67357519058304       44.60720815850775
C           58.86843665401619       50.34237984028800       44.75485501115204
C           58.90878155691859       49.69508622367334       45.98333354600306
C           59.65068087212216       48.53886381312724       46.15967371884977
C           60.35775603610200       47.99845471172011       45.09890683902236
C           60.28693589793085       48.60760624385826       43.85739674583636
C           59.55648270408104       49.77040133227363       43.68928496625814
C           57.22615322483976       51.70035397892831       43.39962449363090
C           56.13828771790882       50.62187542222625       43.49595620326680
C           55.39895169309610       50.70891661451910       44.81266746883887
C           54.70028230021364       51.85875050372773       45.16335408899187
C           53.98844198835953       51.93048434684505       46.34709385726153
C           53.96104883854451       50.84487818635183       47.20544686318637
C           54.65510145281920       49.69532251732579       46.87190915410645
C           55.36657019893018       49.62870018653469       45.68599183725429
C           55.10766049894593       50.73374585681799       42.35757153359126
C           55.49803178064403       50.08617982313169       41.02107585169989
C           56.67662709513287       50.77548954019970       40.38639582310080
C           57.86549273683277       50.08522090509104       40.18123060876397
C           58.96756683033180       50.71348406592947       39.62767734195515
C           58.89756642600757       52.04734558647373       39.26435385010060
C           57.71677331136001       52.74464545954653       39.45914465303499
C           56.61727808808848       52.11400492937856       40.01160412217381
C           54.27763644835080       50.10074638023073       40.08572967486796
C           54.51626210873294       49.32903966514357       38.78099828306806
C           54.64885903637090       47.85044534186489       39.06026976969295
C           53.54251026529381       47.09208851084890       39.42699847643922
C           53.66426091588421       45.74246631800271       39.69936618264141
C           54.90220705159953       45.12680236823361       39.62290211394151
C           56.01188114281483       45.86747075823969       39.25721016980983
C           55.88114930289450       47.21534269117888       38.96952730802903
C           53.38952648698408       49.57016906319080       37.76636030392505
C           53.37743154436342       50.97669770496944       37.13666009073245
C           52.50194204006549       51.94209492020747       37.89566659293000
C           53.02179487563674       53.13153946874191       38.39205200876005
C           52.21607363266148       54.03643024710529       39.06181140975024
C           50.87090195229661       53.76842609441072       39.24190457538934
C           50.33939548719469       52.58715981463443       38.75432602857713
C           51.14824971680649       51.68632466821619       38.08690282046920
C           52.90801286691556       50.85812726717108       35.67803205391510
C           52.83685749481079       52.20191324379324       34.91813188974452
H           65.73155620244785       50.89256244086076       55.50759141467715
H           65.10452227415985       51.99429227183015       53.34292305925426
H           63.43951889623466       51.46497940648132       53.58433940045141
H           63.22497924439460       52.78938177740386       55.60909509731389
H           64.49827239004010       54.35552266073906       53.31768604873871
H           62.80574367852610       53.88643894029823       53.44233952331613
H           64.31036270744771       55.74121487964901       55.34161333188159
H           63.87316892315367       56.56198394964437       52.99454229758415
H           62.14504096036765       56.46133303864281       53.32280331712087
H           64.00128020811464       58.06134707841949       55.11852363943760
H           61.76868801028751       57.80461259308357       56.01526564809838
H           61.93935077295446       60.50052424110427       54.60240959257690
H           60.56983483565377       59.87653036990083       57.24725760017117
H           60.60844068361741       61.40499783052101       56.38568726188496
H           59.15593229184520       58.86085393665877       55.57967463606791
H           59.36120256956975       61.49251556747662       54.04947292230202
H           59.97068169529514       59.92974845739319       53.52963719213930
H           57.07485013823160       60.77399167494644       53.89150046920405
H           58.60661907082610       59.65621010399026       51.50505277121650
H           56.87813438968431       60.00739862188654       51.53937805069235
H           59.18332906607127       61.98779198710267       51.73911185839576
H           59.69342747326348       60.68389281619617       49.77482685320307
H           57.75476788675161       59.25165032560565       49.33822760754501
H           57.30889103136062       60.22371614698151       47.94094172720008
H           59.42709479436945       59.65379478877563       46.82642771174109
H           59.04210747186935       57.20235673019696       46.48062881782044
H           57.87323967132402       57.21290008145795       47.79258508235816
H           56.42714677698991       58.75787613768841       46.59582637266205
H           56.19856213762532       56.31980788676774       46.28385634702371
H           55.58982110683829       57.28781456711013       44.93897807184871
H           58.29976313771943       56.72398467004109       44.30788942084497
H           58.14925777703860       54.88737612546209       46.03445759932559
H           56.90029168183967       54.13167219009784       45.05876441411768
H           58.44975464603084       54.11041709205486       43.09776693760642
H           60.02993350750335       52.41545790381394       43.81819397019477
H           59.75569165659023       52.79654468738029       45.51523405965160
H           57.57319435031999       51.85063563000448       45.50822914110045
H           56.74680606383802       52.67701182691242       43.33647643312158
H           57.79625744032259       51.56240949336716       42.48207535236944
H           56.62230360481675       49.64113110114409       43.44228218146277
H           54.19056772607354       50.24420636792376       42.69318485651306
H           54.87928840781298       51.78678787649054       42.18454600456031
H           55.76813366935360       49.03970742741043       41.20583694883426
H           53.42550487375084       49.65838051113900       40.60686613838004
H           54.01490641214856       51.13162197068448       39.84777411775274
H           55.45889549213995       49.68029616730183       38.34341936273302
H           53.50027958589856       48.83059133132910       36.96850460703477
H           52.42824184148800       49.38162872163772       38.24333721255349
H           64.80948971536731       50.81857303321510       57.59896904407911
H           63.09371857424664       50.04960413928382       59.17699326837953
H           61.10879630355365       48.82804114070064       58.35445665969455
H           60.90486756451142       48.32010105926070       55.94491409385975
H           62.61332951932827       49.08027849583866       54.37790719318058
H           66.63725954093074       53.55382922605641       54.17112953902731
H           68.53784365584640       54.18487440012504       55.57969557571864
H           68.26173487485326       54.38751152468612       58.02299625859629
H           66.05423469579183       53.95671928825647       59.04287338307586
H           64.14505934793698       53.32346866905748       57.62773728333720
H           63.42718206113982       55.96964777953957       57.44326670755743
H           61.56612628256611       55.80150828364764       59.04303927356176
H           59.33880775227585       55.06287534610635       58.27072271762619
H           58.99957870464317       54.44675685887812       55.91487367523060
H           60.85471517009711       54.62815002723737       54.31551755442351
H           61.62101018332050       58.78709858753665       52.28235721797326
H           62.14008375382545       60.38115358317445       50.50914449532934
H           64.32299607064047       61.54528936504455       50.48018456851414
H           65.97972694831080       61.06651581454545       52.24679808531536
H           65.45131641023536       59.46706203217008       54.03367954819096
H           61.03179429986950       58.20645850848237       54.47529764790202
H           63.76417277624287       61.79577566309089       55.10443384341965
H           65.64955707905028       62.40228934256424       56.54910220703153
H           66.02489753299599       61.19602002411309       58.67178461669423
H           64.48028359715788       59.38823342463157       59.33622920358925
H           62.58902374478597       58.79239766613873       57.90345608798912
H           57.56908111299710       58.63553691566003       57.21370818796789
H           55.73641054965287       59.53948700144112       58.58021814139654
H           55.23823541038784       61.95764409973030       58.53425582443821
H           56.57940017247284       63.45376190926034       57.09757232791370
H           58.40156465831922       62.55620645978433       55.74278704831242
H           55.62060263515590       59.28156146771883       54.79651420990989
H           54.95085414667067       57.00159046478981       55.38758559287483
H           56.35837297289777       55.07681023297172       54.72598812890414
H           58.40318725044120       55.46622510629745       53.41318559810479
H           59.07009126712640       57.74963147128088       52.80172884710441
H           55.40927426833394       61.87037727067944       51.61876362046524
H           54.00826216231096       63.45765835342974       52.85266482329956
H           55.04890191553938       65.25855885335889       54.17982825714437
H           57.51417960205433       65.46670697666617       54.23408218024306
H           58.90977299285854       63.86696264351299       53.01657083603260
H           56.90879664997066       61.70895561005567       49.72988429143058
H           58.11939355820214       62.98642701856616       49.75518070551179
H           57.85440993449429       62.00593852782924       46.75253985211527
H           58.96609478948918       63.39495524240763       45.07844687983142
H           61.28351559665202       64.15556062199038       45.42539571178958
H           62.49753761072469       63.48059686723995       47.47064044956198
H           61.40128927270520       62.04541893670577       49.13103710748960
H           61.67894455527851       59.36002985960280       47.06525483569720
H           63.63390479056912       58.39039914391603       48.20561421241140
H           63.32730415225131       56.94740212867043       50.17812468919512
H           61.05198907239630       56.49621021662905       51.01471537974483
H           59.10003497394013       57.43683223371770       49.87096895319421
H           59.68397122404373       58.48627586656093       44.78823492203846
H           60.24891178637109       59.92344842192813       42.91288749463740
H           58.54122518295263       61.38133142051232       41.88572739080146
H           56.23634104643338       61.37023223708628       42.77626018073531
H           55.66548835122970       59.95954344326356       44.69611602854511
H           55.08082552997030       54.83347293528301       43.82130747989214
H           54.03292668853568       54.59228552249046       41.61589463091815
H           55.04764596920331       55.68172718390991       39.64019323241035
H           57.10050674883311       57.02118214453267       39.90582999152649
H           58.15655855783405       57.24200321999791       42.11294706596224
H           60.16031178897917       55.11668401040410       41.94875013511125
H           62.15334288139471       56.55128857030596       41.87439212433168
H           63.20912845128269       57.31632515731781       43.97300364533483
H           62.26686791105308       56.60662551147121       46.14228143988122
H           60.31175437934821       55.13868359995060       46.21519261805192
H           58.35416974329681       50.10324858954007       46.81638265344788
H           59.68623855799995       48.06516293735255       47.13033502569535
H           60.96484168756730       47.11327014696010       45.23272947720753
H           60.81312208753775       48.17290641382327       43.01850270735902
H           59.53349128690481       50.24015111133314       42.71649397768086
H           54.70623840871269       52.70859708453995       44.49750605844311
H           53.44893626012231       52.83384157083457       46.59627108571111
H           53.40697880524079       50.89162395923281       48.13122358013013
H           54.63146562977336       48.84561839246634       47.53921321784466
H           55.89845675619622       48.72249291325478       45.43066152521922
H           57.92902075161108       49.04534223584411       40.47108991570922
H           59.88832861392438       50.16249551408720       39.48768637155140
H           59.75700697012599       52.54225517543328       38.83294852239516
H           57.65535307744587       53.79045878519836       39.18979295986196
H           55.71070755154056       52.67988686025052       40.16602367775785
H           52.57001077161280       47.55305050850488       39.50589170455149
H           52.78765045747008       45.17750465430691       39.98265559381136
H           55.00598252419064       44.07707795489204       39.85719358601246
H           56.98381264258965       45.39722347010307       39.20319642940860
H           56.75377455701736       47.78084293032008       38.67416695136075
H           50.71735189025068       50.77403722683039       37.70130466903166
H           49.28941456665252       52.37183797772815       38.88453360237166
H           50.23778707597462       54.48147410504093       39.74850314495287
H           52.63812253117331       54.95848098658922       39.43682442304193
H           54.07135320650485       53.35390725253439       38.24648800334636
H           66.22145746223612       49.80344175288605       53.39818315843291
H           65.66203147942034       48.57295249105648       54.53335497108548
H           64.58719685742957       49.16309642628932       53.26470144008746
H           54.39967863730517       51.37145605561732       37.12540054491235
H           53.60362727084306       50.19458444119979       35.16131521992866
H           51.92899651328794       50.37858937557882       35.66568175511854
C           51.37897121344317       52.54684062644709       34.58645668806822
C           53.68339633395488       52.12846081508220       33.67336714984507
C           53.35726681395095       51.25431950522643       32.64172168904398
C           54.14742096524232       51.15799934344205       31.51164805879155
C           55.28756762683612       51.93544645024064       31.39563657054582
C           55.62373672692757       52.80952273311017       32.41416840087021
C           54.82697856833543       52.90396119027421       33.54168746608041
H           52.47287989664694       50.63954463178208       32.72239611902096
H           53.87531562622660       50.47387742502105       30.72021188845460
H           55.91027517630323       51.86040342882022       30.51567148822619
H           56.51245103708818       53.41851440679982       32.33194938822948
H           55.09967745396203       53.59112381283218       34.33030840176319
C           51.21596597688404       53.81122807730392       33.74469991324768
H           50.93376622637710       51.72382745244791       34.02503024024275
H           50.81707055967455       52.64308535593842       35.51667272001829
C           51.71951515995023       55.08583745178328       34.36400183529093
C           51.64947818202711       55.32780407523446       35.72997263586475
C           52.09548114142181       56.52728813459969       36.25609369909731
C           52.58470964766999       57.52187474422192       35.42824989792398
C           52.64358739427681       57.29969094796193       34.06313950239322
C           52.22766553377149       56.08753247733764       33.54207252199281
H           51.24859308311793       54.57873698873509       36.39504078792714
H           52.06099456727085       56.68276851326214       37.32439617760320
H           52.91577842692083       58.46602275762172       35.83531055295134
H           53.01458526132683       58.07354746754616       33.40513915091607
H           52.29428324575314       55.91758604589678       32.47520459915324
H           53.23927156114701       52.99827702460065       35.55172437171685
H           51.71849534770414       53.67178254174063       32.78314518006942
H           50.14632962378685       53.93112092773374       33.53737667658992
C           61.36730244026883       49.19609653616265       51.39727005392403
C           60.13240889649585       49.83191167141729       51.34463766534252
C           59.11919203641499       49.23803736095162       50.60156778276177
C           59.32399320685352       48.03735797805949       49.94448060722083
C           60.55208210265022       47.40392680381536       50.02358311924869
C           61.57560616086078       47.99301724734496       50.74696096747334
C           59.86408000245898       51.11230017435056       52.09438086593793
C           60.02691494624949       50.90333958740334       53.60367308101130
C           60.77754656978973       52.25329481188901       51.63546956828151
C           60.59135022323633       52.63754722518688       50.16342895603570
C           59.20521684206712       53.15571649313604       49.87333594851523
C           58.69714589854727       54.26972450851044       50.52997444837651
C           57.43629821776006       54.75568831949521       50.23427382625820
C           56.66456128061446       54.13806662925547       49.26500169961110
C           57.15792447277160       53.02981132927810       48.59840210413745
C           58.41750606294963       52.54519233726589       48.90541832701911
C           61.65964914809035       53.67794110245602       49.76147761871103
C           62.81488001200896       53.05935214973116       48.95219769922797
C           64.02813261670677       53.94665173465838       49.08042990622479
C           64.83137274211754       53.80740328541489       50.20881171878987
C           65.92404067458956       54.62737269763947       50.41704367897857
C           66.24524700785948       55.60298767263265       49.48783951172572
C           65.45990016074211       55.74701009153595       48.35829689683837
C           64.35646844192705       54.93401592472119       48.16116072214662
C           62.34921416718153       52.82574631321397       47.51601477253676
C           63.38267189392138       52.14423062739370       46.61207820200484
C           63.79533820089031       50.80548742340431       47.16668462610912
C           65.10669222412001       50.58598640886232       47.56973024347992
C           65.50166798102539       49.35719621334059       48.06974564785700
C           64.58668177307362       48.32356049459123       48.17279880075234
C           63.27593791569173       48.53241719234649       47.78042333500483
C           62.88367807971763       49.76277184805465       47.28793435395180
C           62.77966160245953       52.00185195515069       45.21032999335016
C           63.77341948713646       51.46453025614035       44.17450930796516
C           64.81062199884580       52.50007465842162       43.83234669039292
C           64.45874099479984       53.69588927605516       43.21641025929033
C           65.41850565326300       54.64069239788422       42.90434223767342
C           66.74969829589797       54.40894733239932       43.20621665633050
C           67.11186061025131       53.22440948085344       43.82420122979389
C           66.14872201353811       52.27990090172527       44.13250055344654
C           62.99501264193874       51.00245979036041       42.93730131903379
C           63.88187907763977       50.51392693756155       41.78579705562393
C           64.93798497841858       49.54403917268546       42.24554310380869
C           64.60929746360637       48.40334065882190       42.96839192079111
C           65.58770223566081       47.51125381460411       43.36652988497414
C           66.91372296631764       47.74056621383183       43.04304177502155
C           67.25407826564474       48.87347508743147       42.32447796667093
C           66.27280459305426       49.76687985847484       41.93345444213098
C           62.99798965720288       49.86414737859066       40.71126644356399
C           63.77314767549448       49.54855969616096       39.42953632377341
C           64.29353618375927       50.80291337755484       38.77431399116212
C           63.44577408888788       51.85370024601380       38.44382480229192
C           63.93189456567335       52.98958485714918       37.82282952700280
C           65.27756255031888       53.09427266267513       37.51548355920038
C           66.13111358241693       52.05150702896360       37.83134977789017
C           65.64009402564585       50.91697798562150       38.45358503872705
C           62.90984610974775       48.77682827908789       38.41896325856235
C           62.68369764626476       47.30497628196051       38.79443811468475
C           64.00445142285865       46.58374094754150       38.86157789050645
C           64.76193504116793       46.36566318276909       37.71649203826299
C           65.98928973975660       45.73253426800112       37.79021116748146