      -----------------------------------------------------------      
     |                   =====================                   |     
     |                           x T B                           |     
     |                   =====================                   |     
     |                         S. Grimme                         |     
     |          Mulliken Center for Theoretical Chemistry        |     
     |                    University of Bonn                     |     
      -----------------------------------------------------------      

   * xtb version 6.6.1 (8d0f1dd) compiled by 'stahn@M-Bot' on 2023-08-01

   xtb is free software: you can redistribute it and/or modify it under
   the terms of the GNU Lesser General Public License as published by
   the Free Software Foundation, either version 3 of the License, or
   (at your option) any later version.
   
   xtb is distributed in the hope that it will be useful,
   but WITHOUT ANY WARRANTY; without even the implied warranty of
   MERCHANTABILITY or FITNESS FOR A PARTICULAR PURPOSE.  See the
   GNU Lesser General Public License for more details.
   
   Cite this work as:
   * C. Bannwarth, E. Caldeweyher, S. Ehlert, A. Hansen, P. Pracht,
     J. Seibert, S. Spicher, S. Grimme, WIREs Comput. Mol. Sci., 2020, 11,
     e01493. DOI: 10.1002/wcms.1493
   
   for GFN2-xTB:
   * C. Bannwarth, S. Ehlert and S. Grimme., J. Chem. Theory Comput., 2019,
     15, 1652-1671. DOI: 10.1021/acs.jctc.8b01176
   for GFN1-xTB:
   * S. Grimme, C. Bannwarth, P. Shushkov, J. Chem. Theory Comput., 2017,
     13, 1989-2009. DOI: 10.1021/acs.jctc.7b00118
   for GFN0-xTB:
   * P. Pracht, E. Caldeweyher, S. Ehlert, S. Grimme, ChemRxiv, 2019, preprint.
     DOI: 10.26434/chemrxiv.8326202.v1
   for GFN-FF:
   * S. Spicher and S. Grimme, Angew. Chem. Int. Ed., 2020, 59, 15665-15673.
     DOI: 10.1002/anie.202004239
   
   for ALPB and GBSA implicit solvation:
   * S. Ehlert, M. Stahn, S. Spicher, S. Grimme, J. Chem. Theory Comput.,
     2021, 17, 4250-4261. DOI: 10.1021/acs.jctc.1c00471
   
   for DFT-D4:
   * E. Caldeweyher, C. Bannwarth and S. Grimme, J. Chem. Phys., 2017,
     147, 034112. DOI: 10.1063/1.4993215
   * E. Caldeweyher, S. Ehlert, A. Hansen, H. Neugebauer, S. Spicher,
     C. Bannwarth and S. Grimme, J. Chem. Phys., 2019, 150, 154122.
     DOI: 10.1063/1.5090222
   * E. Caldeweyher, J.-M. Mewes, S. Ehlert and S. Grimme, Phys. Chem. Chem. Phys.
     2020, 22, 8499-8512. DOI: 10.1039/D0CP00502A
   
   for sTDA-xTB:
   * S. Grimme and C. Bannwarth, J. Chem. Phys., 2016, 145, 054103.
     DOI: 10.1063/1.4959605
   
   in the mass-spec context:
   * V. Asgeirsson, C. Bauer and S. Grimme, Chem. Sci., 2017, 8, 4879.
     DOI: 10.1039/c7sc00601b
   * J. Koopman and S. Grimme, ACS Omega 2019, 4, 12, 15120-15133.
     DOI: 10.1021/acsomega.9b02011
   
   for metadynamics refer to:
   * S. Grimme, J. Chem. Theory Comput., 2019, 155, 2847-2862
     DOI: 10.1021/acs.jctc.9b00143
   
   for SPH calculations refer to:
   * S. Spicher and S. Grimme, J. Chem. Theory Comput., 2021, 17, 1701-1714
     DOI: 10.1021/acs.jctc.0c01306
   
   with help from (in alphabetical order)
   P. Atkinson, C. Bannwarth, F. Bohle, G. Brandenburg, E. Caldeweyher
   M. Checinski, S. Dohm, S. Ehlert, S. Ehrlich, I. Gerasimov, C. Hölzer
   A. Katbashev, J. Koopman, C. Lavigne, S. Lehtola, F. März, M. Müller,
   F. Musil, H. Neugebauer, J. Pisarek, C. Plett, P. Pracht, F. Pultar,
   J. Seibert, P. Shushkov, S. Spicher, M. Stahn, M. Steiner, T. Strunk,
   J. Stückrath, T. Rose, and J. Unsleber
   
 * started run on 2024/10/04 at 19:44:48.299     

           -------------------------------------------------
          |                Calculation Setup                |
           -------------------------------------------------

          program call               : /home/abt-grimme/AK-bin/xtb input.xyz --input input.inp --opt
          hostname                   : boar028.thch.uni-bonn.de
          coordinate file            : input.xyz
          omp threads                :                     8

   ID    Z sym.   atoms
    1    6 C      1-146, 294-300, 306, 309-314, 323-468, 616-622, 628,
                  631-636, 645-790, 938-944, 950, 953-958, 967-1112,
                  1260-1266, 1272, 1275-1280, 1289-1434, 1582-1588, 1594,
                  1597-1602, 1611-1756, 1904-1910, 1916, 1919-1924,
                  1933-2078, 2226-2232, 2238, 2241-2246, 2255-2400,
                  2548-2554, 2560, 2563-2568, 2577-2722, 2870-2876, 2882,
                  2885-2890, 2899-3044, 3192-3198, 3204, 3207-3212,
                  3221-3366, 3514-3520, 3526, 3529-3534, 3543-3688,
                  3836-3842, 3848, 3851-3856
    2    1 H      147-293, 301-305, 307, 308, 315-322, 469-615, 623-627, 629,
                  630, 637-644, 791-937, 945-949, 951, 952, 959-966,
                  1113-1259, 1267-1271, 1273, 1274, 1281-1288, 1435-1581,
                  1589-1593, 1595, 1596, 1603-1610, 1757-1903, 1911-1915,
                  1917, 1918, 1925-1932, 2079-2225, 2233-2237, 2239, 2240,
                  2247-2254, 2401-2547, 2555-2559, 2561, 2562, 2569-2576,
                  2723-2869, 2877-2881, 2883, 2884, 2891-2898, 3045-3191,
                  3199-3203, 3205, 3206, 3213-3220, 3367-3513, 3521-3525,
                  3527, 3528, 3535-3542, 3689-3835, 3843-3847, 3849, 3850,
                  3857-3864

molecular fragmentation (1/2 indicates fragments):
111111111111111111111111111111111111111111111111111111111111111111111111
111111111111111111111111111111111111111111111111111111111111111111111111
111111111111111111111111111111111111111111111111111111111111111111111111
111111111111111111111111111111111111111111111111111111111111111111111111
111111111111111111111111111111111122222222222222222222222222222222222222
222222222222222222222222222222222222222222222222222222222222222222222222
222222222222222222222222222222222222222222222222222222222222222222222222
222222222222222222222222222222222222222222222222222222222222222222222222
222222222222222222222222222222222222222222222222222222222222222222222222
222222222222222222222222222222222222222222222222222222222222222222222222
222222222222222222222222222222222222222222222222222222222222222222222222
222222222222222222222222222222222222222222222222222222222222222222222222
222222222222222222222222222222222222222222222222222222222222222222222222
222222222222222222222222222222222222222222222222222222222222222222222222
222222222222222222222222222222222222222222222222222222222222222222222222
222222222222222222222222222222222222222222222222222222222222222222222222
222222222222222222222222222222222222222222222222222222222222222222222222
222222222222222222222222222222222222222222222222222222222222222222222222
222222222222222222222222222222222222222222222222222222222222222222222222
222222222222222222222222222222222222222222222222222222222222222222222222
222222222222222222222222222222222222222222222222222222222222222222222222
222222222222222222222222222222222222222222222222222222222222222222222222
222222222222222222222222222222222222222222222222222222222222222222222222
222222222222222222222222222222222222222222222222222222222222222222222222
222222222222222222222222222222222222222222222222222222222222222222222222
222222222222222222222222222222222222222222222222222222222222222222222222
222222222222222222222222222222222222222222222222222222222222222222222222
222222222222222222222222222222222222222222222222222222222222222222222222
222222222222222222222222222222222222222222222222222222222222222222222222
222222222222222222222222222222222222222222222222222222222222222222222222
222222222222222222222222222222222222222222222222222222222222222222222222
222222222222222222222222222222222222222222222222222222222222222222222222
222222222222222222222222222222222222222222222222222222222222222222222222
222222222222222222222222222222222222222222222222222222222222222222222222
222222222222222222222222222222222222222222222222222222222222222222222222
222222222222222222222222222222222222222222222222222222222222222222222222
222222222222222222222222222222222222222222222222222222222222222222222222
222222222222222222222222222222222222222222222222222222222222222222222222
222222222222222222222222222222222222222222222222222222222222222222222222
222222222222222222222222222222222222222222222222222222222222222222222222
222222222222222222222222222222222222222222222222222222222222222222222222
222222222222222222222222222222222222222222222222222222222222222222222222
222222222222222222222222222222222222222222222222222222222222222222222222
222222222222222222222222222222222222222222222222222222222222222222222222
222222222222222222222222222222222222222222222222222222222222222222222222
222222222222222222222222222222222222222222222222222222222222222222222222
222222222222222222222222222222222222222222222222222222222222222222222222
222222222222222222222222222222222222222222222222222222222222222222222222
222222222222222222222222222222222222222222222222222222222222222222222222
222222222222222222222222222222222222222222222222222222222222222222222222
222222222222222222222222222222222222222222222222222222222222222222222222
222222222222222222222222222222222222222222222222222222222222222222222222
222222222222222222222222222222222222222222222222222222222222222222222222
222222222222222222222222222222222222222222222222
# atoms in fragment 1/2:   322  3542
 fragment masses (1/2) :     2085.00    22935.05
CMA distance (Bohr)    :  24.312
constraining FC (au)   :  0.0500

           -------------------------------------------------
          |                 G F N 2 - x T B                 |
           -------------------------------------------------

        Reference                      10.1021/acs.jctc.8b01176
      * Hamiltonian:
        H0-scaling (s, p, d)           1.850000    2.230000    2.230000
        zeta-weighting                 0.500000
      * Dispersion:
        s8                             2.700000
        a1                             0.520000
        a2                             5.000000
        s9                             5.000000
      * Repulsion:
        kExp                           1.500000    1.000000
        rExp                           1.000000
      * Coulomb:
        alpha                          2.000000
        third order                    shell-resolved
        anisotropic                    true
        a3                             3.000000
        a5                             4.000000
        cn-shift                       1.200000
        cn-exp                         4.000000
        max-rad                        5.000000


          ...................................................
          :                      SETUP                      :
          :.................................................:
          :  # basis functions                9624          :
          :  # atomic orbitals                9624          :
          :  # shells                         5784          :
          :  # electrons                      9624          :
          :  max. iterations                   250          :
          :  Hamiltonian                  GFN2-xTB          :
          :  restarted?                      false          :
          :  GBSA solvation                  false          :
          :  PC potential                    false          :
          :  electronic temp.          300.0000000     K    :
          :  accuracy                    1.0000000          :
          :  -> integral cutoff          0.2500000E+02      :
          :  -> integral neglect         0.1000000E-07      :
          :  -> SCF convergence          0.1000000E-05 Eh   :
          :  -> wf. convergence          0.1000000E-03 e    :
          :  Broyden damping             0.4000000          :
          ...................................................

 iter      E             dE          RMSdq      gap      omega  full diag
   1  -5195.6326174 -0.519563E+04  0.368E+00    4.25       0.0  T
   2  -5198.2431813 -0.261056E+01  0.217E+00    4.26       1.0  T
   3  -5198.1688746  0.743067E-01  0.496E-01    4.08       1.0  T
   4  -5198.3690119 -0.200137E+00  0.244E-01    4.01       1.0  T
   5  -5198.5292795 -0.160268E+00  0.469E-02    4.09       1.0  T
   6  -5198.5315420 -0.226251E-02  0.291E-02    4.09       1.0  T
   7  -5198.5328592 -0.131723E-02  0.111E-02    4.10       1.0  T
   8  -5198.5331608 -0.301599E-03  0.293E-03    4.10       1.0  T
   9  -5198.5331774 -0.166168E-04  0.128E-03    4.10       1.3  T
  10  -5198.5331791 -0.165193E-05  0.554E-04    4.10       2.9  T
  11  -5198.5331794 -0.296290E-06  0.296E-04    4.10       5.4  T
  12  -5198.5331796 -0.199550E-06  0.104E-04    4.10      15.5  T

   *** convergence criteria satisfied after 12 iterations ***

         #    Occupation            Energy/Eh            Energy/eV
      -------------------------------------------------------------
         1        2.0000           -0.6512264             -17.7208
       ...           ...                  ...                  ...
      4806        2.0000           -0.3811903             -10.3727
      4807        2.0000           -0.3809084             -10.3650
      4808        2.0000           -0.3807760             -10.3614
      4809        2.0000           -0.3806404             -10.3578
      4810        2.0000           -0.3799457             -10.3388
      4811        2.0000           -0.3792422             -10.3197
      4812        2.0000           -0.3784898             -10.2992 (HOMO)
      4813                         -0.2278368              -6.1998 (LUMO)
      4814                         -0.2276550              -6.1948
      4815                         -0.2276259              -6.1940
      4816                         -0.2275755              -6.1926
      4817                         -0.2273730              -6.1871
       ...                                ...                  ...
      9624                          0.6819781              18.5576
      -------------------------------------------------------------
                  HL-Gap            0.1506531 Eh            4.0995 eV
             Fermi-level           -0.3031633 Eh           -8.2495 eV

 SCC (total)                   0 d,  0 h, 47 min, 31.772 sec
 SCC setup                      ...        0 min,  0.749 sec (  0.026%)
 Dispersion                     ...        0 min,  7.518 sec (  0.264%)
 classical contributions        ...        0 min,  0.197 sec (  0.007%)
 integral evaluation            ...        0 min, 11.694 sec (  0.410%)
 iterations                     ...       42 min, 14.268 sec ( 88.866%)
 molecular gradient             ...        4 min, 30.027 sec (  9.469%)
 printout                       ...        0 min, 27.319 sec (  0.958%)

         :::::::::::::::::::::::::::::::::::::::::::::::::::::
         ::                     SUMMARY                     ::
         :::::::::::::::::::::::::::::::::::::::::::::::::::::
         :: total energy           -5104.043356326168 Eh    ::
         :: gradient norm              0.023971010744 Eh/a0 ::
         :: HOMO-LUMO gap              4.099478247536 eV    ::
         ::.................................................::
         :: SCC energy             -5198.533179581769 Eh    ::
         :: -> isotropic ES            0.266408085873 Eh    ::
         :: -> anisotropic ES          0.787206733765 Eh    ::
         :: -> anisotropic XC          3.252365404457 Eh    ::
         :: -> dispersion             -6.981431274634 Eh    ::
         :: repulsion energy          93.365081929011 Eh    ::
         :: add. restraining           0.000000000000 Eh    ::
         :: total charge              -0.000000000032 e     ::
         :::::::::::::::::::::::::::::::::::::::::::::::::::::

      ----------------------------------------------------------- 
     |              Fast Inertial Relaxation Engine              |
      ----------------------------------------------------------- 

          ...................................................
          :                      SETUP                      :
          :.................................................:
          :   energy convergence        0.5000000E-05 Eh    :
          :   grad. convergence         0.1000000E-02 Eh/a0 :
          :   optimization log               true           :
          :   writing optlog all                1     steps :
          :   Hessian reset                    20     steps :
          :   time step scaling                 5     steps :
          :   maximium step len.        1.0000000     a0    :
          :   initial time step         0.2500000     fs    :
          :   maximum time step         1.2500000     fs    :
          :   power reset thr           0.0000000     au    :
          :   alpha parameter           0.1000000           :
          :   BFGS update                   false           :
          :   preconditioning               false           :
          ...................................................

........................................................................
.............................. CYCLE    1 ..............................
........................................................................

 iter      E             dE          RMSdq      gap      omega  full diag
   1  -5198.5342904 -0.519853E+04  0.331E-04    4.10       0.0  T
   2  -5198.5342905 -0.164082E-07  0.204E-04    4.10       7.9  T
   3  -5198.5342904  0.342125E-07  0.891E-05    4.10      18.0  T
     SCC iter.                  ...       10 min, 36.417 sec
     gradient                   ...        4 min, 29.830 sec
 * total energy  : -5104.0434215 Eh     change    :  -0.6521604E-04 Eh
   gradient norm :     0.0225123 Eh/a0  converged?    E=F G=F D=F
   time step     :     0.2500000 fs     power     :   0.3354161E-08
   step length   :     0.0028094 a0     speed     :   0.2718198E-03

........................................................................
.............................. CYCLE    2 ..............................
........................................................................

 iter      E             dE          RMSdq      gap      omega  full diag
   1  -5198.5359389 -0.519854E+04  0.487E-04    4.10       0.0  T
   2  -5198.5359389 -0.317414E-07  0.298E-04    4.10       5.4  T
   3  -5198.5359389  0.474547E-07  0.108E-04    4.10      14.9  T
     SCC iter.                  ...       10 min, 37.019 sec
     gradient                   ...        4 min, 33.122 sec
 * total energy  : -5104.0435100 Eh     change    :  -0.8846626E-04 Eh
   gradient norm :     0.0204499 Eh/a0  converged?    E=F G=F D=F
   time step     :     0.2500000 fs     power     :   0.4461504E-08
   step length   :     0.0041277 a0     speed     :   0.3993813E-03

........................................................................
.............................. CYCLE    3 ..............................
........................................................................

 iter      E             dE          RMSdq      gap      omega  full diag
   1  -5198.5381160 -0.519854E+04  0.627E-04    4.10       0.0  T
   2  -5198.5381161 -0.489181E-07  0.384E-04    4.10       4.2  T
   3  -5198.5381160  0.726541E-07  0.130E-04    4.10      12.3  T
     SCC iter.                  ...       10 min, 37.343 sec
     gradient                   ...        4 min, 32.488 sec
 * total energy  : -5104.0436114 Eh     change    :  -0.1013768E-03 Eh
   gradient norm :     0.0179875 Eh/a0  converged?    E=F G=F D=F
   time step     :     0.2500000 fs     power     :   0.5010468E-08
   step length   :     0.0053213 a0     speed     :   0.5148681E-03

........................................................................
.............................. CYCLE    4 ..............................
........................................................................

 iter      E             dE          RMSdq      gap      omega  full diag
   1  -5198.5408150 -0.519854E+04  0.748E-04    4.10       0.0  T
   2  -5198.5408150 -0.648788E-07  0.459E-04    4.10       3.5  T
   3  -5198.5408149  0.111938E-06  0.156E-04    4.10      10.3  T
     SCC iter.                  ...       10 min, 34.624 sec
     gradient                   ...        4 min, 30.806 sec
 * total energy  : -5104.0437151 Eh     change    :  -0.1037178E-03 Eh
   gradient norm :     0.0153932 Eh/a0  converged?    E=F G=F D=F
   time step     :     0.2500000 fs     power     :   0.5001987E-08
   step length   :     0.0063589 a0     speed     :   0.6152616E-03

........................................................................
.............................. CYCLE    5 ..............................
........................................................................

 iter      E             dE          RMSdq      gap      omega  full diag
   1  -5198.5440288 -0.519854E+04  0.848E-04    4.10       0.0  T
   2  -5198.5440289 -0.767395E-07  0.523E-04    4.10       3.1  T
   3  -5198.5440287  0.168903E-06  0.183E-04    4.10       8.8  T
     SCC iter.                  ...       10 min, 37.223 sec
     gradient                   ...        4 min, 32.180 sec
 * total energy  : -5104.0438119 Eh     change    :  -0.9682680E-04 Eh
   gradient norm :     0.0129968 Eh/a0  converged?    E=F G=F D=F
   time step     :     0.2500000 fs     power     :   0.4535893E-08
   step length   :     0.0072157 a0     speed     :   0.6981549E-03

........................................................................
.............................. CYCLE    6 ..............................
........................................................................

 iter      E             dE          RMSdq      gap      omega  full diag
   1  -5198.5481598 -0.519855E+04  0.102E-03    4.10       0.0  T
   2  -5198.5481599 -0.102313E-06  0.636E-04    4.10       2.5  T
   3  -5198.5481596  0.331515E-06  0.246E-04    4.10       6.5  T
     SCC iter.                  ...       10 min, 36.787 sec
     gradient                   ...        4 min, 31.993 sec
 * total energy  : -5104.0439033 Eh     change    :  -0.9138573E-04 Eh
   gradient norm :     0.0109720 Eh/a0  converged?    E=F G=F D=F
   time step     :     0.2750000 fs     power     :   0.3690696E-08
   step length   :     0.0087351 a0     speed     :   0.7683385E-03

........................................................................
.............................. CYCLE    7 ..............................
........................................................................

 iter      E             dE          RMSdq      gap      omega  full diag
   1  -5198.5533395 -0.519855E+04  0.119E-03    4.10       0.0  T
   2  -5198.5533396 -0.124624E-06  0.750E-04    4.10       2.1  T
   3  -5198.5533390  0.594206E-06  0.321E-04    4.10       5.0  T
     SCC iter.                  ...       10 min, 36.896 sec
     gradient                   ...        4 min, 31.313 sec
 * total energy  : -5104.0439813 Eh     change    :  -0.7797804E-04 Eh
   gradient norm :     0.0097368 Eh/a0  converged?    E=F G=F D=F
   time step     :     0.3025000 fs     power     :   0.2644826E-08
   step length   :     0.0102315 a0     speed     :   0.8181465E-03

........................................................................
.............................. CYCLE    8 ..............................
........................................................................

 iter      E             dE          RMSdq      gap      omega  full diag
   1  -5198.5595793 -0.519856E+04  0.134E-03    4.10       0.0  T
   2  -5198.5595795 -0.145405E-06  0.850E-04    4.10       1.9  T
   3  -5198.5595786  0.913497E-06  0.397E-04    4.10       4.1  T
     SCC iter.                  ...       10 min, 36.080 sec
     gradient                   ...        4 min, 31.073 sec
 * total energy  : -5104.0440415 Eh     change    :  -0.6016158E-04 Eh
   gradient norm :     0.0092384 Eh/a0  converged?    E=F G=F D=F
   time step     :     0.3327500 fs     power     :   0.1637319E-08
   step length   :     0.0115542 a0     speed     :   0.8399160E-03

........................................................................
.............................. CYCLE    9 ..............................
........................................................................

 iter      E             dE          RMSdq      gap      omega  full diag
   1  -5198.5666767 -0.519857E+04  0.144E-03    4.10       0.0  T
   2  -5198.5666769 -0.171363E-06  0.922E-04    4.10       1.7  T
   3  -5198.5666758  0.110635E-05  0.448E-04    4.10       3.6  T
   4  -5198.5666771 -0.130653E-05  0.503E-05    4.10      32.0  T
   5  -5198.5666771 -0.664295E-08  0.231E-05    4.10      69.6  T
     SCC iter.                  ...       17 min, 35.614 sec
     gradient                   ...        4 min, 32.113 sec
 * total energy  : -5104.0440848 Eh     change    :  -0.4337359E-04 Eh
   gradient norm :     0.0089428 Eh/a0  converged?    E=F G=F D=F
   time step     :     0.3660250 fs     power     :   0.7966776E-09
   step length   :     0.0125924 a0     speed     :   0.8321748E-03

........................................................................
.............................. CYCLE   10 ..............................
........................................................................

 iter      E             dE          RMSdq      gap      omega  full diag
   1  -5198.5741017 -0.519857E+04  0.150E-03    4.10       0.0  T
   2  -5198.5741019 -0.198158E-06  0.955E-04    4.11       1.7  T
   3  -5198.5741008  0.118769E-05  0.484E-04    4.10       3.3  T
   4  -5198.5741022 -0.144199E-05  0.527E-05    4.11      30.5  T
   5  -5198.5741022 -0.892032E-08  0.226E-05    4.10      71.3  T
     SCC iter.                  ...       17 min, 34.838 sec
     gradient                   ...        4 min, 29.395 sec
 * total energy  : -5104.0441099 Eh     change    :  -0.2503085E-04 Eh
   gradient norm :     0.0087258 Eh/a0  converged?    E=F G=F D=F
   time step     :     0.4026275 fs     power     :   0.1374765E-09
   step length   :     0.0133101 a0     speed     :   0.7996350E-03

........................................................................
.............................. CYCLE   11 ..............................
........................................................................

 iter      E             dE          RMSdq      gap      omega  full diag
   1  -5198.5811149 -0.519858E+04  0.151E-03    4.10       0.0  T
   2  -5198.5811151 -0.205232E-06  0.938E-04    4.11       1.7  T
   3  -5198.5811141  0.101997E-05  0.461E-04    4.10       3.5  T
   4  -5198.5811153 -0.122816E-05  0.567E-05    4.11      28.4  T
   5  -5198.5811153 -0.118926E-07  0.217E-05    4.10      74.1  T
     SCC iter.                  ...       17 min, 37.070 sec
     gradient                   ...        4 min, 29.245 sec
 * total energy  : -5104.0441192 Eh     change    :  -0.9342099E-05 Eh
   gradient norm :     0.0089656 Eh/a0  converged?    E=F G=F D=F
   time step     :     0.4428903 fs     power     :  -0.3442047E-09
   step length   :     0.0136881 a0     speed     :   0.7475865E-03

........................................................................
.............................. CYCLE   12 ..............................
........................................................................
 * reset velocities

 iter      E             dE          RMSdq      gap      omega  full diag
   1  -5198.5809605 -0.519858E+04  0.379E-05    4.10       0.0  T
   2  -5198.5809605 -0.363798E-09  0.291E-05    4.10      55.3  T
   3  -5198.5809605 -0.936780E-10  0.144E-05    4.10     112.1  T
     SCC iter.                  ...       10 min, 36.569 sec
     gradient                   ...        4 min, 31.409 sec
 * total energy  : -5104.0441229 Eh     change    :  -0.3658736E-05 Eh
   gradient norm :     0.0087882 Eh/a0  converged?    E=T G=F D=T
   time step     :     0.2214451 fs     power     :   0.2170640E-09
   step length   :     0.0004122 a0     speed     :   0.4502653E-04

........................................................................
.............................. CYCLE   13 ..............................
........................................................................

 iter      E             dE          RMSdq      gap      omega  full diag
   1  -5198.5806515 -0.519858E+04  0.761E-05    4.10       0.0  T
   2  -5198.5806515 -0.152068E-08  0.547E-05    4.10      29.4  T
   3  -5198.5806515  0.228647E-08  0.240E-05    4.10      66.9  T
     SCC iter.                  ...       10 min, 35.806 sec
     gradient                   ...        4 min, 30.210 sec
 * total energy  : -5104.0441299 Eh     change    :  -0.7039319E-05 Eh
   gradient norm :     0.0084410 Eh/a0  converged?    E=F G=F D=T
   time step     :     0.2214451 fs     power     :   0.4127290E-09
   step length   :     0.0008163 a0     speed     :   0.8916139E-04

........................................................................
.............................. CYCLE   14 ..............................
........................................................................

 iter      E             dE          RMSdq      gap      omega  full diag
   1  -5198.5801903 -0.519858E+04  0.113E-04    4.10       0.0  T
   2  -5198.5801903 -0.292221E-08  0.800E-05    4.10      20.1  T
   3  -5198.5801903  0.534965E-08  0.345E-05    4.10      46.6  T
     SCC iter.                  ...       10 min, 34.604 sec
     gradient                   ...        4 min, 31.756 sec
 * total energy  : -5104.0441397 Eh     change    :  -0.9848127E-05 Eh
   gradient norm :     0.0079382 Eh/a0  converged?    E=F G=F D=F
   time step     :     0.2214451 fs     power     :   0.5721249E-09
   step length   :     0.0012043 a0     speed     :   0.1315430E-03

........................................................................
.............................. CYCLE   15 ..............................
........................................................................

 iter      E             dE          RMSdq      gap      omega  full diag
   1  -5198.5795799 -0.519858E+04  0.148E-04    4.10       0.0  T
   2  -5198.5795799 -0.470300E-08  0.104E-04    4.10      15.5  T
   3  -5198.5795799  0.951877E-08  0.445E-05    4.10      36.2  T
     SCC iter.                  ...       10 min, 36.000 sec
     gradient                   ...        4 min, 31.186 sec
 * total energy  : -5104.0441517 Eh     change    :  -0.1191479E-04 Eh
   gradient norm :     0.0073028 Eh/a0  converged?    E=F G=F D=F
   time step     :     0.2214451 fs     power     :   0.6841008E-09
   step length   :     0.0015688 a0     speed     :   0.1713645E-03

........................................................................
.............................. CYCLE   16 ..............................
........................................................................

 iter      E             dE          RMSdq      gap      omega  full diag
   1  -5198.5788239 -0.519858E+04  0.178E-04    4.10       0.0  T
   2  -5198.5788239 -0.668751E-08  0.125E-04    4.10      12.9  T
   3  -5198.5788239  0.142772E-07  0.536E-05    4.10      30.0  T
     SCC iter.                  ...       10 min, 37.042 sec
     gradient                   ...        4 min, 29.312 sec
 * total energy  : -5104.0441648 Eh     change    :  -0.1310070E-04 Eh
   gradient norm :     0.0065665 Eh/a0  converged?    E=F G=F D=F
   time step     :     0.2214451 fs     power     :   0.7424395E-09
   step length   :     0.0019033 a0     speed     :   0.2079000E-03

........................................................................
.............................. CYCLE   17 ..............................
........................................................................

 iter      E             dE          RMSdq      gap      omega  full diag
   1  -5198.5779262 -0.519858E+04  0.205E-04    4.10       0.0  T
   2  -5198.5779262 -0.859927E-08  0.143E-04    4.10      11.2  T
   3  -5198.5779262  0.198488E-07  0.616E-05    4.10      26.1  T
     SCC iter.                  ...       10 min, 36.340 sec
     gradient                   ...        4 min, 34.016 sec
 * total energy  : -5104.0441781 Eh     change    :  -0.1338365E-04 Eh
   gradient norm :     0.0057713 Eh/a0  converged?    E=F G=F D=F
   time step     :     0.2214451 fs     power     :   0.7465873E-09
   step length   :     0.0022019 a0     speed     :   0.2405171E-03

........................................................................
.............................. CYCLE   18 ..............................
........................................................................

 iter      E             dE          RMSdq      gap      omega  full diag
   1  -5198.5767740 -0.519858E+04  0.250E-04    4.10       0.0  T
   2  -5198.5767740 -0.124865E-07  0.176E-04    4.10       9.1  T
   3  -5198.5767740  0.315922E-07  0.765E-05    4.10      21.0  T
     SCC iter.                  ...       10 min, 35.199 sec
     gradient                   ...        4 min, 32.480 sec
 * total energy  : -5104.0441923 Eh     change    :  -0.1411578E-04 Eh
   gradient norm :     0.0048899 Eh/a0  converged?    E=F G=F D=F
   time step     :     0.2435896 fs     power     :   0.6944121E-09
   step length   :     0.0027344 a0     speed     :   0.2715291E-03

........................................................................
.............................. CYCLE   19 ..............................
........................................................................

 iter      E             dE          RMSdq      gap      omega  full diag
   1  -5198.5753192 -0.519858E+04  0.297E-04    4.10       0.0  T
   2  -5198.5753192 -0.164309E-07  0.210E-04    4.10       7.7  T
   3  -5198.5753191  0.480104E-07  0.921E-05    4.10      17.5  T
     SCC iter.                  ...       10 min, 37.658 sec
     gradient                   ...        4 min, 30.421 sec
 * total energy  : -5104.0442060 Eh     change    :  -0.1371439E-04 Eh
   gradient norm :     0.0040264 Eh/a0  converged?    E=F G=F D=F
   time step     :     0.2679486 fs     power     :   0.5839066E-09
   step length   :     0.0033132 a0     speed     :   0.2990930E-03

........................................................................
.............................. CYCLE   20 ..............................
........................................................................

 iter      E             dE          RMSdq      gap      omega  full diag
   1  -5198.5735175 -0.519857E+04  0.341E-04    4.10       0.0  T
   2  -5198.5735175 -0.199288E-07  0.241E-04    4.10       6.7  T
   3  -5198.5735175  0.696127E-07  0.108E-04    4.10      15.0  T
     SCC iter.                  ...       10 min, 37.674 sec
     gradient                   ...        4 min, 30.012 sec
 * total energy  : -5104.0442179 Eh     change    :  -0.1190235E-04 Eh
   gradient norm :     0.0033911 Eh/a0  converged?    E=F G=F D=F
   time step     :     0.2947435 fs     power     :   0.4288584E-09
   step length   :     0.0039060 a0     speed     :   0.3205575E-03
 * RMSD in coord.:     0.0013454 a0     energy gain  -0.8615534E-03 Eh

........................................................................
.............................. CYCLE   21 ..............................
........................................................................

 iter      E             dE          RMSdq      gap      omega  full diag
   1  -5198.5718799 -0.519857E+04  0.287E-04    4.10       0.0  T
   2  -5198.5718799 -0.116706E-07  0.200E-04    4.10       8.0  T
   3  -5198.5718798  0.520104E-07  0.901E-05    4.10      17.9  T
     SCC iter.                  ...       10 min, 38.774 sec
     gradient                   ...        4 min, 28.885 sec
 * total energy  : -5104.0442253 Eh     change    :  -0.7465684E-05 Eh
   gradient norm :     0.0032139 Eh/a0  converged?    E=F G=F D=F
   time step     :     0.2500000 fs     power     :   0.3099379E-09
   step length   :     0.0033830 a0     speed     :   0.3273274E-03

........................................................................
.............................. CYCLE   22 ..............................
........................................................................

 iter      E             dE          RMSdq      gap      omega  full diag
   1  -5198.5701981 -0.519857E+04  0.272E-04    4.10       0.0  T
   2  -5198.5701981 -0.884302E-08  0.188E-04    4.10       8.6  T
   3  -5198.5701981  0.498339E-07  0.872E-05    4.10      18.4  T
     SCC iter.                  ...       10 min, 38.231 sec
     gradient                   ...        4 min, 28.307 sec
 * total energy  : -5104.0442310 Eh     change    :  -0.5608984E-05 Eh
   gradient norm :     0.0032911 Eh/a0  converged?    E=F G=F D=F
   time step     :     0.2500000 fs     power     :   0.2286008E-09
   step length   :     0.0033571 a0     speed     :   0.3248166E-03

........................................................................
.............................. CYCLE   23 ..............................
........................................................................

 iter      E             dE          RMSdq      gap      omega  full diag
   1  -5198.5685477 -0.519857E+04  0.254E-04    4.10       0.0  T
   2  -5198.5685477 -0.622276E-08  0.171E-04    4.10       9.4  T
   3  -5198.5685477  0.397240E-07  0.781E-05    4.10      20.6  T
     SCC iter.                  ...       10 min, 35.760 sec
     gradient                   ...        4 min, 29.208 sec
 * total energy  : -5104.0442355 Eh     change    :  -0.4581866E-05 Eh
   gradient norm :     0.0034662 Eh/a0  converged?    E=T G=F D=F
   time step     :     0.2500000 fs     power     :   0.1922660E-09
   step length   :     0.0032639 a0     speed     :   0.3158019E-03

........................................................................
.............................. CYCLE   24 ..............................
........................................................................

 iter      E             dE          RMSdq      gap      omega  full diag
   1  -5198.5669950 -0.519857E+04  0.238E-04    4.10       0.0  T
   2  -5198.5669950 -0.406089E-08  0.154E-04    4.10      10.4  T
   3  -5198.5669950  0.231839E-07  0.610E-05    4.10      26.4  T
     SCC iter.                  ...       10 min, 36.339 sec
     gradient                   ...        4 min, 29.145 sec
 * total energy  : -5104.0442399 Eh     change    :  -0.4384722E-05 Eh
   gradient norm :     0.0036200 Eh/a0  converged?    E=T G=F D=F
   time step     :     0.2500000 fs     power     :   0.1940253E-09
   step length   :     0.0031473 a0     speed     :   0.3045183E-03

........................................................................
.............................. CYCLE   25 ..............................
........................................................................

 iter      E             dE          RMSdq      gap      omega  full diag
   1  -5198.5655895 -0.519857E+04  0.227E-04    4.10       0.0  T
   2  -5198.5655895 -0.259661E-08  0.140E-04    4.10      11.5  T
   3  -5198.5655895  0.697673E-08  0.363E-05    4.10      44.4  T
     SCC iter.                  ...       10 min, 37.619 sec
     gradient                   ...        4 min, 31.748 sec
 * total energy  : -5104.0442446 Eh     change    :  -0.4678374E-05 Eh
   gradient norm :     0.0036942 Eh/a0  converged?    E=T G=F D=F
   time step     :     0.2500000 fs     power     :   0.2201081E-09
   step length   :     0.0030428 a0     speed     :   0.2944080E-03

........................................................................
.............................. CYCLE   26 ..............................
........................................................................

 iter      E             dE          RMSdq      gap      omega  full diag
   1  -5198.5642447 -0.519856E+04  0.245E-04    4.10       0.0  T
   2  -5198.5642447 -0.250384E-08  0.146E-04    4.10      11.0  T
   3  -5198.5642447  0.140790E-08  0.233E-05    4.10      69.1  T
     SCC iter.                  ...       10 min, 36.417 sec
     gradient                   ...        4 min, 32.888 sec
 * total energy  : -5104.0442504 Eh     change    :  -0.5847349E-05 Eh
   gradient norm :     0.0036764 Eh/a0  converged?    E=F G=F D=F
   time step     :     0.2750000 fs     power     :   0.2558762E-09
   step length   :     0.0032797 a0     speed     :   0.2884819E-03

........................................................................
.............................. CYCLE   27 ..............................
........................................................................

 iter      E             dE          RMSdq      gap      omega  full diag
   1  -5198.5630247 -0.519856E+04  0.271E-04    4.10       0.0  T
   2  -5198.5630247 -0.265300E-08  0.160E-04    4.10      10.0  T
   3  -5198.5630247  0.324599E-08  0.300E-05    4.10      53.6  T
     SCC iter.                  ...       10 min, 37.893 sec
     gradient                   ...        4 min, 35.676 sec
 * total energy  : -5104.0442576 Eh     change    :  -0.7166474E-05 Eh
   gradient norm :     0.0035167 Eh/a0  converged?    E=F G=F D=F
   time step     :     0.3025000 fs     power     :   0.2898087E-09
   step length   :     0.0035974 a0     speed     :   0.2876589E-03

........................................................................
.............................. CYCLE   28 ..............................
........................................................................

 iter      E             dE          RMSdq      gap      omega  full diag
   1  -5198.5620022 -0.519856E+04  0.309E-04    4.10       0.0  T
   2  -5198.5620022 -0.369346E-08  0.183E-04    4.10       8.8  T
   3  -5198.5620022  0.132832E-07  0.527E-05    4.10      30.5  T
     SCC iter.                  ...       10 min, 36.340 sec
     gradient                   ...        4 min, 32.684 sec
 * total energy  : -5104.0442661 Eh     change    :  -0.8477868E-05 Eh
   gradient norm :     0.0032598 Eh/a0  converged?    E=F G=F D=F
   time step     :     0.3327500 fs     power     :   0.3108725E-09
   step length   :     0.0040142 a0     speed     :   0.2918053E-03

........................................................................
.............................. CYCLE   29 ..............................
........................................................................

 iter      E             dE          RMSdq      gap      omega  full diag
   1  -5198.5612647 -0.519856E+04  0.354E-04    4.10       0.0  T
   2  -5198.5612647 -0.561704E-08  0.212E-04    4.10       7.6  T
   3  -5198.5612647  0.365444E-07  0.841E-05    4.10      19.1  T
     SCC iter.                  ...       10 min, 37.114 sec
     gradient                   ...        4 min, 29.405 sec
 * total energy  : -5104.0442756 Eh     change    :  -0.9500860E-05 Eh
   gradient norm :     0.0029344 Eh/a0  converged?    E=F G=F D=F
   time step     :     0.3660250 fs     power     :   0.3109683E-09
   step length   :     0.0045365 a0     speed     :   0.2997971E-03

........................................................................
.............................. CYCLE   30 ..............................
........................................................................

 iter      E             dE          RMSdq      gap      omega  full diag
   1  -5198.5609089 -0.519856E+04  0.403E-04    4.10       0.0  T
   2  -5198.5609089 -0.792534E-08  0.245E-04    4.10       6.6  T
   3  -5198.5609089  0.656619E-07  0.112E-04    4.10      14.4  T
     SCC iter.                  ...       10 min, 36.692 sec
     gradient                   ...        4 min, 31.579 sec
 * total energy  : -5104.0442855 Eh     change    :  -0.9932332E-05 Eh
   gradient norm :     0.0026214 Eh/a0  converged?    E=F G=F D=F
   time step     :     0.4026275 fs     power     :   0.2881105E-09
   step length   :     0.0051559 a0     speed     :   0.3097521E-03

........................................................................
.............................. CYCLE   31 ..............................
........................................................................

 iter      E             dE          RMSdq      gap      omega  full diag
   1  -5198.5610205 -0.519856E+04  0.446E-04    4.10       0.0  T
   2  -5198.5610205 -0.991713E-08  0.274E-04    4.10       5.9  T
   3  -5198.5610204  0.889577E-07  0.129E-04    4.10      12.5  T
     SCC iter.                  ...       10 min, 36.860 sec
     gradient                   ...        4 min, 33.086 sec
 * total energy  : -5104.0442953 Eh     change    :  -0.9822395E-05 Eh
   gradient norm :     0.0024203 Eh/a0  converged?    E=F G=F D=F
   time step     :     0.4428903 fs     power     :   0.2497161E-09
   step length   :     0.0058449 a0     speed     :   0.3192266E-03

........................................................................
.............................. CYCLE   32 ..............................
........................................................................

 iter      E             dE          RMSdq      gap      omega  full diag
   1  -5198.5616303 -0.519856E+04  0.474E-04    4.10       0.0  T
   2  -5198.5616303 -0.108303E-07  0.290E-04    4.10       5.5  T
   3  -5198.5616302  0.914742E-07  0.129E-04    4.10      12.5  T
     SCC iter.                  ...       10 min, 36.803 sec
     gradient                   ...        4 min, 33.137 sec
 * total energy  : -5104.0443047 Eh     change    :  -0.9398485E-05 Eh
   gradient norm :     0.0023693 Eh/a0  converged?    E=F G=F D=F
   time step     :     0.4871793 fs     power     :   0.2109827E-09
   step length   :     0.0065635 a0     speed     :   0.3258819E-03

........................................................................
.............................. CYCLE   33 ..............................
........................................................................

 iter      E             dE          RMSdq      gap      omega  full diag
   1  -5198.5626700 -0.519856E+04  0.483E-04    4.10       0.0  T
   2  -5198.5626700 -0.112059E-07  0.292E-04    4.10       5.5  T
   3  -5198.5626699  0.599284E-07  0.105E-04    4.10      15.3  T
     SCC iter.                  ...       10 min, 36.133 sec
     gradient                   ...        4 min, 32.145 sec
 * total energy  : -5104.0443139 Eh     change    :  -0.9191527E-05 Eh
   gradient norm :     0.0024181 Eh/a0  converged?    E=F G=F D=F
   time step     :     0.5358972 fs     power     :   0.1861696E-09
   step length   :     0.0072890 a0     speed     :   0.3290061E-03

........................................................................
.............................. CYCLE   34 ..............................
........................................................................

 iter      E             dE          RMSdq      gap      omega  full diag
   1  -5198.5639662 -0.519856E+04  0.473E-04    4.10       0.0  T
   2  -5198.5639662 -0.110786E-07  0.282E-04    4.10       5.7  T
   3  -5198.5639662  0.137397E-07  0.581E-05    4.10      27.7  T
     SCC iter.                  ...       10 min, 37.322 sec
     gradient                   ...        4 min, 32.558 sec
 * total energy  : -5104.0443236 Eh     change    :  -0.9659998E-05 Eh
   gradient norm :     0.0024959 Eh/a0  converged?    E=F G=F D=F
   time step     :     0.5894869 fs     power     :   0.1820607E-09
   step length   :     0.0080492 a0     speed     :   0.3302901E-03

........................................................................
.............................. CYCLE   35 ..............................
........................................................................

 iter      E             dE          RMSdq      gap      omega  full diag
   1  -5198.5652697 -0.519857E+04  0.451E-04    4.10       0.0  T
   2  -5198.5652697 -0.910313E-08  0.273E-04    4.10       5.9  T
   3  -5198.5652697  0.150530E-07  0.571E-05    4.10      28.2  T
     SCC iter.                  ...       10 min, 36.916 sec
     gradient                   ...        4 min, 30.579 sec
 * total energy  : -5104.0443347 Eh     change    :  -0.1107479E-04 Eh
   gradient norm :     0.0025030 Eh/a0  converged?    E=F G=F D=F
   time step     :     0.6484356 fs     power     :   0.1967170E-09
   step length   :     0.0089193 a0     speed     :   0.3327213E-03

........................................................................
.............................. CYCLE   36 ..............................
........................................................................

 iter      E             dE          RMSdq      gap      omega  full diag
   1  -5198.5662970 -0.519857E+04  0.439E-04    4.10       0.0  T
   2  -5198.5662970 -0.728869E-08  0.270E-04    4.10       6.0  T
   3  -5198.5662970  0.247492E-07  0.680E-05    4.10      23.7  T
     SCC iter.                  ...       10 min, 35.511 sec
     gradient                   ...        4 min, 29.064 sec
 * total energy  : -5104.0443478 Eh     change    :  -0.1310938E-04 Eh
   gradient norm :     0.0023565 Eh/a0  converged?    E=F G=F D=F
   time step     :     0.7132792 fs     power     :   0.2143656E-09
   step length   :     0.0099982 a0     speed     :   0.3390595E-03

........................................................................
.............................. CYCLE   37 ..............................
........................................................................

 iter      E             dE          RMSdq      gap      omega  full diag
   1  -5198.5667942 -0.519857E+04  0.442E-04    4.10       0.0  T
   2  -5198.5667943 -0.106138E-07  0.281E-04    4.10       5.7  T
   3  -5198.5667942  0.670698E-07  0.105E-04    4.10      15.3  T
     SCC iter.                  ...       10 min, 36.180 sec
     gradient                   ...        4 min, 34.849 sec
 * total energy  : -5104.0443627 Eh     change    :  -0.1491948E-04 Eh
   gradient norm :     0.0022581 Eh/a0  converged?    E=F G=F D=F
   time step     :     0.7846071 fs     power     :   0.2179875E-09
   step length   :     0.0113459 a0     speed     :   0.3497868E-03

........................................................................
.............................. CYCLE   38 ..............................
........................................................................

 iter      E             dE          RMSdq      gap      omega  full diag
   1  -5198.5666395 -0.519857E+04  0.468E-04    4.10       0.0  T
   2  -5198.5666395 -0.152313E-07  0.293E-04    4.10       5.5  T
   3  -5198.5666394  0.600248E-07  0.103E-04    4.10      15.6  T
     SCC iter.                  ...       10 min, 34.803 sec
     gradient                   ...        4 min, 30.543 sec
 * total energy  : -5104.0443796 Eh     change    :  -0.1691582E-04 Eh
   gradient norm :     0.0023950 Eh/a0  converged?    E=F G=F D=F
   time step     :     0.8630678 fs     power     :   0.2293066E-09
   step length   :     0.0129338 a0     speed     :   0.3624905E-03

........................................................................
.............................. CYCLE   39 ..............................
........................................................................

 iter      E             dE          RMSdq      gap      omega  full diag
   1  -5198.5660497 -0.519857E+04  0.537E-04    4.10       0.0  T
   2  -5198.5660497 -0.150294E-07  0.324E-04    4.10       5.0  T
   3  -5198.5660497  0.251912E-07  0.755E-05    4.10      21.3  T
     SCC iter.                  ...       10 min, 35.982 sec
     gradient                   ...        4 min, 29.257 sec
 * total energy  : -5104.0444007 Eh     change    :  -0.2106307E-04 Eh
   gradient norm :     0.0023418 Eh/a0  converged?    E=F G=F D=F
   time step     :     0.9493746 fs     power     :   0.2689786E-09
   step length   :     0.0148342 a0     speed     :   0.3779563E-03

........................................................................
.............................. CYCLE   40 ..............................
........................................................................

 iter      E             dE          RMSdq      gap      omega  full diag
   1  -5198.5656609 -0.519857E+04  0.623E-04    4.10       0.0  T
   2  -5198.5656609 -0.169757E-07  0.378E-04    4.10       4.3  T
   3  -5198.5656609  0.475629E-07  0.978E-05    4.10      16.4  T
     SCC iter.                  ...       10 min, 37.807 sec
     gradient                   ...        4 min, 29.800 sec
 * total energy  : -5104.0444262 Eh     change    :  -0.2548692E-04 Eh
   gradient norm :     0.0020513 Eh/a0  converged?    E=F G=F D=F
   time step     :     1.0443120 fs     power     :   0.2887527E-09
   step length   :     0.0173053 a0     speed     :   0.4008344E-03

........................................................................
.............................. CYCLE   41 ..............................
........................................................................

 iter      E             dE          RMSdq      gap      omega  full diag
   1  -5198.5663820 -0.519857E+04  0.666E-04    4.10       0.0  T
   2  -5198.5663821 -0.195259E-07  0.410E-04    4.10       3.9  T
   3  -5198.5663820  0.718574E-07  0.117E-04    4.10      13.8  T
     SCC iter.                  ...       10 min, 36.345 sec
     gradient                   ...        4 min, 30.992 sec
 * total energy  : -5104.0444539 Eh     change    :  -0.2770815E-04 Eh
   gradient norm :     0.0021556 Eh/a0  converged?    E=F G=F D=F
   time step     :     1.1487432 fs     power     :   0.2773792E-09
   step length   :     0.0203261 a0     speed     :   0.4280033E-03

........................................................................
.............................. CYCLE   42 ..............................
........................................................................

 iter      E             dE          RMSdq      gap      omega  full diag
   1  -5198.5683103 -0.519857E+04  0.718E-04    4.10       0.0  T
   2  -5198.5683103 -0.140180E-07  0.426E-04    4.10       3.8  T
   3  -5198.5683103  0.155251E-07  0.656E-05    4.10      24.5  T
     SCC iter.                  ...       10 min, 36.639 sec
     gradient                   ...        4 min, 32.352 sec
 * total energy  : -5104.0444864 Eh     change    :  -0.3255396E-04 Eh
   gradient norm :     0.0022569 Eh/a0  converged?    E=F G=F D=F
   time step     :     1.2500000 fs     power     :   0.3203546E-09
   step length   :     0.0233807 a0     speed     :   0.4524422E-03
 * RMSD in coord.:     0.0025867 a0     energy gain  -0.2685485E-03 Eh

........................................................................
.............................. CYCLE   43 ..............................
........................................................................

 iter      E             dE          RMSdq      gap      omega  full diag
   1  -5198.5686527 -0.519857E+04  0.141E-04    4.10       0.0  T
   2  -5198.5686527 -0.493856E-09  0.831E-05    4.10      19.4  T
   3  -5198.5686527  0.199270E-08  0.222E-05    4.10      72.5  T
     SCC iter.                  ...       10 min, 35.988 sec
     gradient                   ...        4 min, 30.095 sec
 * total energy  : -5104.0444932 Eh     change    :  -0.6754352E-05 Eh
   gradient norm :     0.0021823 Eh/a0  converged?    E=F G=F D=F
   time step     :     0.2500000 fs     power     :   0.3519731E-09
   step length   :     0.0045781 a0     speed     :   0.4429575E-03

........................................................................
.............................. CYCLE   44 ..............................
........................................................................

 iter      E             dE          RMSdq      gap      omega  full diag
   1  -5198.5689358 -0.519857E+04  0.150E-04    4.10       0.0  T
   2  -5198.5689358 -0.894033E-09  0.897E-05    4.10      17.9  T
   3  -5198.5689358  0.331238E-08  0.268E-05    4.10      60.0  T
     SCC iter.                  ...       10 min, 36.996 sec
     gradient                   ...        4 min, 31.526 sec
 * total energy  : -5104.0445003 Eh     change    :  -0.7124849E-05 Eh
   gradient norm :     0.0019887 Eh/a0  converged?    E=F G=F D=F
   time step     :     0.2500000 fs     power     :   0.3695835E-09
   step length   :     0.0045303 a0     speed     :   0.4383288E-03

........................................................................
.............................. CYCLE   45 ..............................
........................................................................

 iter      E             dE          RMSdq      gap      omega  full diag
   1  -5198.5691507 -0.519857E+04  0.166E-04    4.10       0.0  T
   2  -5198.5691507 -0.129876E-08  0.100E-04    4.10      16.0  T
   3  -5198.5691507  0.500313E-08  0.320E-05    4.10      50.2  T
     SCC iter.                  ...       10 min, 34.975 sec
     gradient                   ...        4 min, 30.903 sec
 * total energy  : -5104.0445074 Eh     change    :  -0.7137091E-05 Eh
   gradient norm :     0.0017508 Eh/a0  converged?    E=F G=F D=F
   time step     :     0.2500000 fs     power     :   0.3674268E-09
   step length   :     0.0045319 a0     speed     :   0.4384833E-03

........................................................................
.............................. CYCLE   46 ..............................
........................................................................

 iter      E             dE          RMSdq      gap      omega  full diag
   1  -5198.5692967 -0.519857E+04  0.179E-04    4.10       0.0  T
   2  -5198.5692967 -0.169439E-08  0.109E-04    4.10      14.7  T
   3  -5198.5692967  0.611362E-08  0.347E-05    4.10      46.4  T
     SCC iter.                  ...       10 min, 35.434 sec
     gradient                   ...        4 min, 30.349 sec
 * total energy  : -5104.0445143 Eh     change    :  -0.6870957E-05 Eh
   gradient norm :     0.0015719 Eh/a0  converged?    E=F G=F D=F
   time step     :     0.2500000 fs     power     :   0.3493129E-09
   step length   :     0.0045716 a0     speed     :   0.4423317E-03

........................................................................
.............................. CYCLE   47 ..............................
........................................................................

 iter      E             dE          RMSdq      gap      omega  full diag
   1  -5198.5693830 -0.519857E+04  0.183E-04    4.10       0.0  T
   2  -5198.5693830 -0.171985E-08  0.112E-04    4.10      14.4  T
   3  -5198.5693830  0.583350E-08  0.332E-05    4.10      48.4  T
     SCC iter.                  ...       10 min, 35.180 sec
     gradient                   ...        4 min, 29.933 sec
 * total energy  : -5104.0445208 Eh     change    :  -0.6451419E-05 Eh
   gradient norm :     0.0015294 Eh/a0  converged?    E=F G=F D=F
   time step     :     0.2500000 fs     power     :   0.3270911E-09
   step length   :     0.0046228 a0     speed     :   0.4472795E-03

........................................................................
.............................. CYCLE   48 ..............................
........................................................................

 iter      E             dE          RMSdq      gap      omega  full diag
   1  -5198.5694314 -0.519857E+04  0.192E-04    4.10       0.0  T
   2  -5198.5694314 -0.150158E-08  0.117E-04    4.10      13.8  T
   3  -5198.5694314  0.504770E-08  0.310E-05    4.10      51.9  T
     SCC iter.                  ...       10 min, 36.928 sec
     gradient                   ...        4 min, 32.133 sec
 * total energy  : -5104.0445275 Eh     change    :  -0.6757235E-05 Eh
   gradient norm :     0.0016102 Eh/a0  converged?    E=F G=F D=F
   time step     :     0.2750000 fs     power     :   0.3118962E-09
   step length   :     0.0051232 a0     speed     :   0.4506368E-03

........................................................................
.............................. CYCLE   49 ..............................
........................................................................

 iter      E             dE          RMSdq      gap      omega  full diag
   1  -5198.5694568 -0.519857E+04  0.191E-04    4.10       0.0  T
   2  -5198.5694568 -0.116506E-08  0.114E-04    4.10      14.1  T
   3  -5198.5694568  0.256568E-08  0.237E-05    4.10      68.0  T
     SCC iter.                  ...       10 min, 38.611 sec
     gradient                   ...        4 min, 31.184 sec
 * total energy  : -5104.0445349 Eh     change    :  -0.7330973E-05 Eh
   gradient norm :     0.0017271 Eh/a0  converged?    E=F G=F D=F
   time step     :     0.3025000 fs     power     :   0.3119703E-09
   step length   :     0.0056396 a0     speed     :   0.4509631E-03

........................................................................
.............................. CYCLE   50 ..............................
........................................................................

 iter      E             dE          RMSdq      gap      omega  full diag
   1  -5198.5694686 -0.519857E+04  0.185E-04    4.10       0.0  T
   2  -5198.5694686 -0.784894E-09  0.110E-04    4.10      14.7  T
   3  -5198.5694686  0.969521E-09  0.156E-05    4.10     102.9  T
     SCC iter.                  ...       10 min, 39.365 sec
     gradient                   ...        4 min, 29.848 sec
 * total energy  : -5104.0445432 Eh     change    :  -0.8309177E-05 Eh
   gradient norm :     0.0017830 Eh/a0  converged?    E=F G=F D=F
   time step     :     0.3327500 fs     power     :   0.3252723E-09
   step length   :     0.0061938 a0     speed     :   0.4502537E-03

........................................................................
.............................. CYCLE   51 ..............................
........................................................................

 iter      E             dE          RMSdq      gap      omega  full diag
   1  -5198.5694621 -0.519857E+04  0.188E-04    4.10       0.0  T
   2  -5198.5694621 -0.639375E-09  0.111E-04    4.10      14.5  T
   3  -5198.5694621  0.108048E-08  0.166E-05    4.10      96.8  T
     SCC iter.                  ...       10 min, 35.238 sec
     gradient                   ...        4 min, 31.488 sec
 * total energy  : -5104.0445527 Eh     change    :  -0.9551823E-05 Eh
   gradient norm :     0.0017259 Eh/a0  converged?    E=F G=F D=F
   time step     :     0.3660250 fs     power     :   0.3413755E-09
   step length   :     0.0068319 a0     speed     :   0.4514903E-03

........................................................................
.............................. CYCLE   52 ..............................
........................................................................

 iter      E             dE          RMSdq      gap      omega  full diag
   1  -5198.5694113 -0.519857E+04  0.206E-04    4.10       0.0  T
   2  -5198.5694113 -0.114869E-08  0.124E-04    4.10      13.0  T
   3  -5198.5694113  0.406089E-08  0.284E-05    4.10      56.6  T
     SCC iter.                  ...       10 min, 35.284 sec
     gradient                   ...        4 min, 30.951 sec
 * total energy  : -5104.0445636 Eh     change    :  -0.1083502E-04 Eh
   gradient norm :     0.0015859 Eh/a0  converged?    E=F G=F D=F
   time step     :     0.4026275 fs     power     :   0.3489134E-09
   step length   :     0.0076024 a0     speed     :   0.4567301E-03

........................................................................
.............................. CYCLE   53 ..............................
........................................................................

 iter      E             dE          RMSdq      gap      omega  full diag
   1  -5198.5692659 -0.519857E+04  0.235E-04    4.10       0.0  T
   2  -5198.5692659 -0.225646E-08  0.144E-04    4.10      11.2  T
   3  -5198.5692659  0.917498E-08  0.417E-05    4.10      38.6  T
     SCC iter.                  ...       10 min, 36.175 sec
     gradient                   ...        4 min, 32.697 sec
 * total energy  : -5104.0445754 Eh     change    :  -0.1180792E-04 Eh
   gradient norm :     0.0014846 Eh/a0  converged?    E=F G=F D=F
   time step     :     0.4428903 fs     power     :   0.3439543E-09
   step length   :     0.0085376 a0     speed     :   0.4662888E-03

........................................................................
.............................. CYCLE   54 ..............................
........................................................................

 iter      E             dE          RMSdq      gap      omega  full diag
   1  -5198.5689718 -0.519857E+04  0.263E-04    4.10       0.0  T
   2  -5198.5689718 -0.267573E-08  0.161E-04    4.10      10.0  T
   3  -5198.5689718  0.106638E-07  0.448E-05    4.10      35.9  T
     SCC iter.                  ...       10 min, 33.523 sec
     gradient                   ...        4 min, 32.636 sec
 * total energy  : -5104.0445881 Eh     change    :  -0.1277344E-04 Eh
   gradient norm :     0.0015176 Eh/a0  converged?    E=F G=F D=F
   time step     :     0.4871793 fs     power     :   0.3370801E-09
   step length   :     0.0096210 a0     speed     :   0.4776907E-03

........................................................................
.............................. CYCLE   55 ..............................
........................................................................

 iter      E             dE          RMSdq      gap      omega  full diag
   1  -5198.5685301 -0.519857E+04  0.280E-04    4.10       0.0  T
   2  -5198.5685301 -0.211912E-08  0.168E-04    4.10       9.6  T
   3  -5198.5685301  0.574255E-08  0.350E-05    4.10      46.0  T
     SCC iter.                  ...       10 min, 36.046 sec
     gradient                   ...        4 min, 30.202 sec
 * total energy  : -5104.0446023 Eh     change    :  -0.1418003E-04 Eh
   gradient norm :     0.0015943 Eh/a0  converged?    E=F G=F D=F
   time step     :     0.5358972 fs     power     :   0.3416347E-09
   step length   :     0.0108045 a0     speed     :   0.4876847E-03

........................................................................
.............................. CYCLE   56 ..............................
........................................................................

 iter      E             dE          RMSdq      gap      omega  full diag
   1  -5198.5680432 -0.519857E+04  0.295E-04    4.10       0.0  T
   2  -5198.5680432 -0.195087E-08  0.174E-04    4.10       9.2  T
   3  -5198.5680432  0.309865E-08  0.287E-05    4.10      56.0  T
     SCC iter.                  ...       10 min, 36.138 sec
     gradient                   ...        4 min, 31.633 sec
 * total energy  : -5104.0446184 Eh     change    :  -0.1612238E-04 Eh
   gradient norm :     0.0016040 Eh/a0  converged?    E=F G=F D=F
   time step     :     0.5894869 fs     power     :   0.3565946E-09
   step length   :     0.0121214 a0     speed     :   0.4973868E-03

........................................................................
.............................. CYCLE   57 ..............................
........................................................................

 iter      E             dE          RMSdq      gap      omega  full diag
   1  -5198.5677179 -0.519857E+04  0.324E-04    4.10       0.0  T
   2  -5198.5677179 -0.228738E-08  0.193E-04    4.10       8.3  T
   3  -5198.5677179  0.102309E-07  0.439E-05    4.10      36.7  T
     SCC iter.                  ...       10 min, 36.641 sec
     gradient                   ...        4 min, 31.120 sec
 * total energy  : -5104.0446369 Eh     change    :  -0.1851189E-04 Eh
   gradient norm :     0.0015191 Eh/a0  converged?    E=F G=F D=F
   time step     :     0.6484356 fs     power     :   0.3709184E-09
   step length   :     0.0136653 a0     speed     :   0.5097633E-03

........................................................................
.............................. CYCLE   58 ..............................
........................................................................

 iter      E             dE          RMSdq      gap      omega  full diag
   1  -5198.5678167 -0.519857E+04  0.371E-04    4.10       0.0  T
   2  -5198.5678167 -0.348064E-08  0.225E-04    4.10       7.2  T
   3  -5198.5678167  0.232167E-07  0.642E-05    4.10      25.1  T
     SCC iter.                  ...       10 min, 36.508 sec
     gradient                   ...        4 min, 29.265 sec
 * total energy  : -5104.0446577 Eh     change    :  -0.2071094E-04 Eh
   gradient norm :     0.0014497 Eh/a0  converged?    E=F G=F D=F
   time step     :     0.7132792 fs     power     :   0.3750683E-09
   step length   :     0.0155254 a0     speed     :   0.5264989E-03

........................................................................
.............................. CYCLE   59 ..............................
........................................................................

 iter      E             dE          RMSdq      gap      omega  full diag
   1  -5198.5684617 -0.519857E+04  0.408E-04    4.10       0.0  T
   2  -5198.5684617 -0.337786E-08  0.243E-04    4.10       6.6  T
   3  -5198.5684617  0.132623E-07  0.511E-05    4.10      31.5  T
     SCC iter.                  ...       10 min, 33.926 sec
     gradient                   ...        4 min, 30.590 sec
 * total energy  : -5104.0446809 Eh     change    :  -0.2322074E-04 Eh
   gradient norm :     0.0015284 Eh/a0  converged?    E=F G=F D=F
   time step     :     0.7846071 fs     power     :   0.3809748E-09
   step length   :     0.0176993 a0     speed     :   0.5456561E-03

........................................................................
.............................. CYCLE   60 ..............................
........................................................................

 iter      E             dE          RMSdq      gap      omega  full diag
   1  -5198.5694003 -0.519857E+04  0.438E-04    4.10       0.0  T
   2  -5198.5694003 -0.328055E-08  0.258E-04    4.10       6.2  T
   3  -5198.5694002  0.117761E-07  0.497E-05    4.10      32.3  T
     SCC iter.                  ...       10 min, 35.279 sec
     gradient                   ...        4 min, 33.566 sec
 * total energy  : -5104.0447074 Eh     change    :  -0.2652911E-04 Eh
   gradient norm :     0.0015095 Eh/a0  converged?    E=F G=F D=F
   time step     :     0.8630678 fs     power     :   0.4004437E-09
   step length   :     0.0201289 a0     speed     :   0.5641457E-03

........................................................................
.............................. CYCLE   61 ..............................
........................................................................

 iter      E             dE          RMSdq      gap      omega  full diag
   1  -5198.5701388 -0.519857E+04  0.499E-04    4.10       0.0  T
   2  -5198.5701388 -0.521777E-08  0.297E-04    4.10       5.4  T
   3  -5198.5701388  0.267091E-07  0.702E-05    4.10      22.9  T
     SCC iter.                  ...       10 min, 35.486 sec
     gradient                   ...        4 min, 35.351 sec
 * total energy  : -5104.0447376 Eh     change    :  -0.3018037E-04 Eh
   gradient norm :     0.0014253 Eh/a0  converged?    E=F G=F D=F
   time step     :     0.9493746 fs     power     :   0.4131096E-09
   step length   :     0.0230175 a0     speed     :   0.5864572E-03

........................................................................
.............................. CYCLE   62 ..............................
........................................................................

 iter      E             dE          RMSdq      gap      omega  full diag
   1  -5198.5702591 -0.519857E+04  0.558E-04    4.10       0.0  T
   2  -5198.5702591 -0.692125E-08  0.331E-04    4.10       4.9  T
   3  -5198.5702591  0.232740E-07  0.693E-05    4.10      23.2  T
     SCC iter.                  ...       10 min, 39.312 sec
     gradient                   ...        4 min, 30.422 sec
 * total energy  : -5104.0447717 Eh     change    :  -0.3412025E-04 Eh
   gradient norm :     0.0015024 Eh/a0  converged?    E=F G=F D=F
   time step     :     1.0443120 fs     power     :   0.4227563E-09
   step length   :     0.0264619 a0     speed     :   0.6129230E-03

........................................................................
.............................. CYCLE   63 ..............................
........................................................................

 iter      E             dE          RMSdq      gap      omega  full diag
   1  -5198.5698908 -0.519857E+04  0.611E-04    4.10       0.0  T
   2  -5198.5698908 -0.733235E-08  0.362E-04    4.10       4.4  T
   3  -5198.5698907  0.321415E-07  0.808E-05    4.10      19.9  T
     SCC iter.                  ...       10 min, 36.186 sec
     gradient                   ...        4 min, 31.241 sec
 * total energy  : -5104.0448112 Eh     change    :  -0.3945048E-04 Eh
   gradient norm :     0.0014515 Eh/a0  converged?    E=F G=F D=F
   time step     :     1.1487432 fs     power     :   0.4474418E-09
   step length   :     0.0303494 a0     speed     :   0.6390613E-03

........................................................................
.............................. CYCLE   64 ..............................
........................................................................

 iter      E             dE          RMSdq      gap      omega  full diag
   1  -5198.5696270 -0.519857E+04  0.706E-04    4.10       0.0  T
   2  -5198.5696270 -0.101327E-07  0.423E-04    4.10       3.8  T
   3  -5198.5696269  0.719992E-07  0.112E-04    4.10      14.4  T
     SCC iter.                  ...       10 min, 39.015 sec
     gradient                   ...        4 min, 29.208 sec
 * total energy  : -5104.0448557 Eh     change    :  -0.4452833E-04 Eh
   gradient norm :     0.0014064 Eh/a0  converged?    E=F G=F D=F
   time step     :     1.2500000 fs     power     :   0.4589527E-09
   step length   :     0.0346348 a0     speed     :   0.6702216E-03

........................................................................
.............................. CYCLE   65 ..............................
........................................................................

 iter      E             dE          RMSdq      gap      omega  full diag
   1  -5198.5700780 -0.519857E+04  0.726E-04    4.10       0.0  T
   2  -5198.5700780 -0.788077E-08  0.429E-04    4.10       3.7  T
   3  -5198.5700780  0.277350E-07  0.807E-05    4.10      19.9  T
     SCC iter.                  ...       10 min, 34.312 sec
     gradient                   ...        4 min, 31.357 sec
 * total energy  : -5104.0449017 Eh     change    :  -0.4604204E-04 Eh
   gradient norm :     0.0014402 Eh/a0  converged?    E=F G=F D=F
   time step     :     1.2500000 fs     power     :   0.4796196E-09
   step length   :     0.0362081 a0     speed     :   0.7006648E-03

........................................................................
.............................. CYCLE   66 ..............................
........................................................................

 iter      E             dE          RMSdq      gap      omega  full diag
   1  -5198.5706500 -0.519857E+04  0.759E-04    4.10       0.0  T
   2  -5198.5706500 -0.998716E-08  0.452E-04    4.10       3.6  T
   3  -5198.5706499  0.640966E-07  0.106E-04    4.10      15.1  T
     SCC iter.                  ...       10 min, 34.220 sec
     gradient                   ...        4 min, 29.397 sec
 * total energy  : -5104.0449494 Eh     change    :  -0.4771769E-04 Eh
   gradient norm :     0.0013463 Eh/a0  converged?    E=F G=F D=F
   time step     :     1.2500000 fs     power     :   0.4954622E-09
   step length   :     0.0377195 a0     speed     :   0.7299135E-03

........................................................................
.............................. CYCLE   67 ..............................
........................................................................

 iter      E             dE          RMSdq      gap      omega  full diag
   1  -5198.5708369 -0.519857E+04  0.771E-04    4.10       0.0  T
   2  -5198.5708370 -0.944692E-08  0.455E-04    4.10       3.5  T
   3  -5198.5708369  0.454602E-07  0.982E-05    4.10      16.4  T
     SCC iter.                  ...       10 min, 34.902 sec
     gradient                   ...        4 min, 30.367 sec
 * total energy  : -5104.0449984 Eh     change    :  -0.4893914E-04 Eh
   gradient norm :     0.0014290 Eh/a0  converged?    E=F G=F D=F
   time step     :     1.2500000 fs     power     :   0.5084020E-09
   step length   :     0.0393313 a0     speed     :   0.7611034E-03
 * RMSD in coord.:     0.0062011 a0     energy gain  -0.5119576E-03 Eh

........................................................................
.............................. CYCLE   68 ..............................
........................................................................

 iter      E             dE          RMSdq      gap      omega  full diag
   1  -5198.5708985 -0.519857E+04  0.152E-04    4.10       0.0  T
   2  -5198.5708985 -0.502041E-09  0.896E-05    4.10      18.0  T
   3  -5198.5708985  0.120053E-08  0.154E-05    4.10     104.8  T
     SCC iter.                  ...       10 min, 37.291 sec
     gradient                   ...        4 min, 30.057 sec
 * total energy  : -5104.0450083 Eh     change    :  -0.9881534E-05 Eh
   gradient norm :     0.0013904 Eh/a0  converged?    E=F G=F D=F
   time step     :     0.2500000 fs     power     :   0.5208022E-09
   step length   :     0.0078345 a0     speed     :   0.7580316E-03

........................................................................
.............................. CYCLE   69 ..............................
........................................................................

 iter      E             dE          RMSdq      gap      omega  full diag
   1  -5198.5709905 -0.519857E+04  0.158E-04    4.10       0.0  T
   2  -5198.5709905 -0.630280E-09  0.946E-05    4.10      17.0  T
   3  -5198.5709905  0.303316E-08  0.240E-05    4.10      67.0  T
     SCC iter.                  ...       10 min, 37.248 sec
     gradient                   ...        4 min, 30.436 sec
 * total energy  : -5104.0450182 Eh     change    :  -0.9903015E-05 Eh
   gradient norm :     0.0013107 Eh/a0  converged?    E=F G=F D=F
   time step     :     0.2500000 fs     power     :   0.5240136E-09
   step length   :     0.0078392 a0     speed     :   0.7584818E-03

........................................................................
.............................. CYCLE   70 ..............................
........................................................................

 iter      E             dE          RMSdq      gap      omega  full diag
   1  -5198.5710922 -0.519857E+04  0.165E-04    4.10       0.0  T
   2  -5198.5710922 -0.888576E-09  0.993E-05    4.10      16.2  T
   3  -5198.5710922  0.407636E-08  0.278E-05    4.10      57.9  T
     SCC iter.                  ...       10 min, 37.429 sec
     gradient                   ...        4 min, 30.118 sec
 * total energy  : -5104.0450281 Eh     change    :  -0.9913776E-05 Eh
   gradient norm :     0.0012732 Eh/a0  converged?    E=F G=F D=F
   time step     :     0.2500000 fs     power     :   0.5188595E-09
   step length   :     0.0078859 a0     speed     :   0.7630013E-03

........................................................................
[...]
  3608   6 C     3615   6 C                                       1.5333269
  3615   6 C     3616   6 C                                       1.5360184
  3617   6 C     3618   6 C                                       1.3909856
  3618   6 C     3619   6 C                                       1.3829157
  3619   6 C     3620   6 C                                       1.3847163
  3620   6 C     3621   6 C                                       1.3836040
  3617   6 C     3622   6 C                                       1.3880150
  3621   6 C     3622   6 C                                       1.3839927
  3616   6 C     3623   6 C                                       1.5374482
  3623   6 C     3624   6 C                                       1.5356832
  3625   6 C     3626   6 C                                       1.3890121
  3626   6 C     3627   6 C                                       1.3834166
  3627   6 C     3628   6 C                                       1.3836250
  3628   6 C     3629   6 C                                       1.3845935
  3625   6 C     3630   6 C                                       1.3896323
  3629   6 C     3630   6 C                                       1.3827426
  3624   6 C     3631   6 C                                       1.5333494
  3631   6 C     3632   6 C                                       1.5346076
  3633   6 C     3634   6 C                                       1.3904828
  3634   6 C     3635   6 C                                       1.3836758
  3635   6 C     3636   6 C                                       1.3843999
  3636   6 C     3637   6 C                                       1.3844232
  3633   6 C     3638   6 C                                       1.3895234
  3637   6 C     3638   6 C                                       1.3841956
  3632   6 C     3639   6 C                                       1.5360325
  3639   6 C     3640   6 C                                       1.5334224
  3641   6 C     3642   6 C                                       1.3898445
  3642   6 C     3643   6 C                                       1.3829035
  3643   6 C     3644   6 C                                       1.3842874
  3644   6 C     3645   6 C                                       1.3832556
  3641   6 C     3646   6 C                                       1.3891084
  3645   6 C     3646   6 C                                       1.3836372
  3640   6 C     3647   6 C                                       1.5361810
  3647   6 C     3648   6 C                                       1.5399079
  3649   6 C     3650   6 C                                       1.3898976
  3650   6 C     3651   6 C                                       1.3825247
  3651   6 C     3652   6 C                                       1.3839628
  3652   6 C     3653   6 C                                       1.3836295
  3649   6 C     3654   6 C                                       1.3893763
  3653   6 C     3654   6 C                                       1.3841269
  3648   6 C     3655   6 C                                       1.5353723
  3655   6 C     3656   6 C                                       1.5396591
  3657   6 C     3658   6 C                                       1.3902481
  3658   6 C     3659   6 C                                       1.3816382
  3659   6 C     3660   6 C                                       1.3836266
  3660   6 C     3661   6 C                                       1.3830500
  3657   6 C     3662   6 C                                       1.3887373
  3661   6 C     3662   6 C                                       1.3841781
  3656   6 C     3663   6 C                                       1.5357041
  3663   6 C     3664   6 C                                       1.5354277
  3665   6 C     3666   6 C                                       1.3883439
  3666   6 C     3667   6 C                                       1.3842422
  3667   6 C     3668   6 C                                       1.3840918
  3668   6 C     3669   6 C                                       1.3841061
  3665   6 C     3670   6 C                                       1.3899046
  3669   6 C     3670   6 C                                       1.3834683
  3673   6 C     3674   6 C                                       1.3894853
  3674   6 C     3675   6 C                                       1.3841844
  3675   6 C     3676   6 C                                       1.3842822
  3676   6 C     3677   6 C                                       1.3841297
  3673   6 C     3678   6 C                                       1.3904782
  3677   6 C     3678   6 C                                       1.3833455
  3672   6 C     3679   6 C                                       1.5358377
  3679   6 C     3680   6 C                                       1.5337866
  3681   6 C     3682   6 C                                       1.3892032
  3682   6 C     3683   6 C                                       1.3836155
  3683   6 C     3684   6 C                                       1.3827537
  3684   6 C     3685   6 C                                       1.3838228
  3681   6 C     3686   6 C                                       1.3904964
  3685   6 C     3686   6 C                                       1.3829935
  3687   6 C     3688   6 C                                       1.5313498
  3549   6 C     3689   1 H                                       1.0946417
  3551   6 C     3690   1 H                                       1.0921959
  3551   6 C     3691   1 H                                       1.0925961
  3552   6 C     3692   1 H                                       1.0943095
  3559   6 C     3693   1 H                                       1.0925244
  3559   6 C     3694   1 H                                       1.0906539
  3560   6 C     3695   1 H                                       1.0952959
  3567   6 C     3696   1 H                                       1.0927601
  3567   6 C     3697   1 H                                       1.0922687
  3568   6 C     3698   1 H                                       1.0960290
  3575   6 C     3699   1 H                                       1.0901665
  3576   6 C     3700   1 H                                       1.0945460
  3583   6 C     3701   1 H                                       1.0927531
  3583   6 C     3702   1 H                                       1.0933594
  3584   6 C     3703   1 H                                       1.0949126
  3591   6 C     3704   1 H                                       1.0902171
  3591   6 C     3705   1 H                                       1.0913667
  3592   6 C     3706   1 H                                       1.0949644
  3599   6 C     3707   1 H                                       1.0930928
  3599   6 C     3708   1 H                                       1.0927129
  3600   6 C     3709   1 H                                       1.0945189
  3608   6 C     3710   1 H                                       1.0955516
  3615   6 C     3711   1 H                                       1.0898806
  3615   6 C     3712   1 H                                       1.0912281
  3616   6 C     3713   1 H                                       1.0954503
  3623   6 C     3714   1 H                                       1.0922742
  3623   6 C     3715   1 H                                       1.0920392
  3624   6 C     3716   1 H                                       1.0948612
  3631   6 C     3717   1 H                                       1.0912009
  3631   6 C     3718   1 H                                       1.0924546
  3632   6 C     3719   1 H                                       1.0956163
  3639   6 C     3720   1 H                                       1.0913798
  3639   6 C     3721   1 H                                       1.0909648
  3640   6 C     3722   1 H                                       1.0940580
  3647   6 C     3723   1 H                                       1.0927922
  3647   6 C     3724   1 H                                       1.0927781
  3648   6 C     3725   1 H                                       1.0950184
  3655   6 C     3726   1 H                                       1.0917039
  3655   6 C     3727   1 H                                       1.0919210
  3656   6 C     3728   1 H                                       1.0959664
  3663   6 C     3729   1 H                                       1.0925389
  3663   6 C     3730   1 H                                       1.0919988
  3664   6 C     3731   1 H                                       1.0948225
  3671   6 C     3732   1 H                                       1.0925685
  3671   6 C     3733   1 H                                       1.0923252
  3672   6 C     3734   1 H                                       1.0950983
  3679   6 C     3735   1 H                                       1.0907302
  3679   6 C     3736   1 H                                       1.0926869
  3543   6 C     3737   1 H                                       1.0810863
  3548   6 C     3738   1 H                                       1.0805640
  3547   6 C     3739   1 H                                       1.0798969
  3546   6 C     3740   1 H                                       1.0804602
  3545   6 C     3741   1 H                                       1.0801317
  3554   6 C     3742   1 H                                       1.0814605
  3555   6 C     3743   1 H                                       1.0806990
  3556   6 C     3744   1 H                                       1.0803747
  3557   6 C     3745   1 H                                       1.0802644
  3558   6 C     3746   1 H                                       1.0807358
  3562   6 C     3747   1 H                                       1.0806757
  3563   6 C     3748   1 H                                       1.0797709
  3564   6 C     3749   1 H                                       1.0801073
  3565   6 C     3750   1 H                                       1.0800110
  3566   6 C     3751   1 H                                       1.0802088
  3570   6 C     3752   1 H                                       1.0811313
  3571   6 C     3753   1 H                                       1.0796084
  3572   6 C     3754   1 H                                       1.0796813
  3573   6 C     3755   1 H                                       1.0814298
  3574   6 C     3756   1 H                                       1.0804320
  3575   6 C     3757   1 H                                       1.0911670
  3578   6 C     3758   1 H                                       1.0803705
  3579   6 C     3759   1 H                                       1.0808702
  3580   6 C     3760   1 H                                       1.0798523
  3581   6 C     3761   1 H                                       1.0795871
  3582   6 C     3762   1 H                                       1.0797030
  3586   6 C     3763   1 H                                       1.0793442
  3587   6 C     3764   1 H                                       1.0800857
  3588   6 C     3765   1 H                                       1.0794163
  3589   6 C     3766   1 H                                       1.0792890
  3590   6 C     3767   1 H                                       1.0802695
  3594   6 C     3768   1 H                                       1.0795851
  3595   6 C     3769   1 H                                       1.0804099
  3596   6 C     3770   1 H                                       1.0802969
  3597   6 C     3771   1 H                                       1.0782131
  3598   6 C     3772   1 H                                       1.0818828
  3602   6 C     3773   1 H                                       1.0792235
  3603   6 C     3774   1 H                                       1.0805582
  3604   6 C     3775   1 H                                       1.0802886
  3605   6 C     3776   1 H                                       1.0803524
  3606   6 C     3777   1 H                                       1.0816403
  3607   6 C     3778   1 H                                       1.0918480
  3607   6 C     3779   1 H                                       1.0924609
  3610   6 C     3780   1 H                                       1.0805143
  3611   6 C     3781   1 H                                       1.0804418
  3612   6 C     3782   1 H                                       1.0803739
  3613   6 C     3783   1 H                                       1.0805422
  3614   6 C     3784   1 H                                       1.0812813
  3618   6 C     3785   1 H                                       1.0813036
  3619   6 C     3786   1 H                                       1.0811404
  3620   6 C     3787   1 H                                       1.0803664
  3621   6 C     3788   1 H                                       1.0803694
  3622   6 C     3789   1 H                                       1.0811057
  3626   6 C     3790   1 H                                       1.0803525
  3627   6 C     3791   1 H                                       1.0804433
  3628   6 C     3792   1 H                                       1.0801649
  3629   6 C     3793   1 H                                       1.0805540
  3630   6 C     3794   1 H                                       1.0806621
  3634   6 C     3795   1 H                                       1.0805566
  3635   6 C     3796   1 H                                       1.0816353
  3636   6 C     3797   1 H                                       1.0805331
  3637   6 C     3798   1 H                                       1.0806311
  3638   6 C     3799   1 H                                       1.0806167
  3642   6 C     3800   1 H                                       1.0803776
  3643   6 C     3801   1 H                                       1.0804853
  3644   6 C     3802   1 H                                       1.0799183
  3645   6 C     3803   1 H                                       1.0808181
  3646   6 C     3804   1 H                                       1.0801449
  3650   6 C     3805   1 H                                       1.0794371
  3651   6 C     3806   1 H                                       1.0804947
  3652   6 C     3807   1 H                                       1.0796115
  3653   6 C     3808   1 H                                       1.0808618
  3654   6 C     3809   1 H                                       1.0811298
  3658   6 C     3810   1 H                                       1.0794542
  3659   6 C     3811   1 H                                       1.0791658
  3660   6 C     3812   1 H                                       1.0779968
  3661   6 C     3813   1 H                                       1.0802720
  3662   6 C     3814   1 H                                       1.0803679
  3666   6 C     3815   1 H                                       1.0789952
  3667   6 C     3816   1 H                                       1.0814314
  3668   6 C     3817   1 H                                       1.0799204
  3669   6 C     3818   1 H                                       1.0805441
  3670   6 C     3819   1 H                                       1.0809587
  3674   6 C     3820   1 H                                       1.0812136
  3675   6 C     3821   1 H                                       1.0796006
  3676   6 C     3822   1 H                                       1.0808763
  3677   6 C     3823   1 H                                       1.0805893
  3678   6 C     3824   1 H                                       1.0812527
  3686   6 C     3825   1 H                                       1.0808809
  3685   6 C     3826   1 H                                       1.0790219
  3684   6 C     3827   1 H                                       1.0800836
  3683   6 C     3828   1 H                                       1.0791550
  3682   6 C     3829   1 H                                       1.0815189
  3550   6 C     3830   1 H                                       1.0888494
  3550   6 C     3831   1 H                                       1.0872740
  3550   6 C     3832   1 H                                       1.0873091
  3680   6 C     3833   1 H                                       1.0942335
  3687   6 C     3834   1 H                                       1.0922091
  3687   6 C     3835   1 H                                       1.0910670
  3688   6 C     3836   6 C                                       1.5404110
  3837   6 C     3838   6 C                                       1.3912555
  3838   6 C     3839   6 C                                       1.3823532
  3839   6 C     3840   6 C                                       1.3841846
  3840   6 C     3841   6 C                                       1.3831386
  3837   6 C     3842   6 C                                       1.3895727
  3841   6 C     3842   6 C                                       1.3857501
  3838   6 C     3843   1 H                                       1.0809054
  3839   6 C     3844   1 H                                       1.0806504
  3840   6 C     3845   1 H                                       1.0798534
  3841   6 C     3846   1 H                                       1.0810736
  3842   6 C     3847   1 H                                       1.0792176
  3836   6 C     3848   6 C                                       1.5331265
  3836   6 C     3849   1 H                                       1.0911291
  3836   6 C     3850   1 H                                       1.0939210
  3851   6 C     3852   6 C                                       1.3894124
  3852   6 C     3853   6 C                                       1.3811083
  3853   6 C     3854   6 C                                       1.3847269
  3854   6 C     3855   6 C                                       1.3832752
  3851   6 C     3856   6 C                                       1.3876640
  3855   6 C     3856   6 C                                       1.3848561
  3852   6 C     3857   1 H                                       1.0814095
  3853   6 C     3858   1 H                                       1.0781328
  3854   6 C     3859   1 H                                       1.0806350
  3855   6 C     3860   1 H                                       1.0811435
  3856   6 C     3861   1 H                                       1.0805322
  3688   6 C     3862   1 H                                       1.0965331
  3848   6 C     3863   1 H                                       1.0917697
  3848   6 C     3864   1 H                                       1.0921955

 * 2 distinct bonds (by element types)

   Z      Z             #   av. dist./Å        max./Å        min./Å
   1 H    6 C        1944     1.0851015     1.0982820     1.0776577
   6 C    6 C        1853     1.4191446     1.5408417     1.3807191


optimized geometry written to: xtbopt.xyz


           -------------------------------------------------
          | TOTAL ENERGY            -5104.050700940800 Eh   |
          | GRADIENT NORM               0.000848975973 Eh/α |
          | HOMO-LUMO GAP               4.105427230045 eV   |
           -------------------------------------------------

------------------------------------------------------------------------
 * finished run on 2024/10/08 at 10:19:59.468     
------------------------------------------------------------------------
 total:
 * wall-time:     3 d, 14 h, 35 min, 11.167 sec
 *  cpu-time:    23 d, 14 h, 59 min, 34.420 sec
 * ratio c/w:     6.548 speedup
 SCF:
 * wall-time:     0 d,  0 h, 47 min, 31.964 sec
 *  cpu-time:     0 d,  5 h, 46 min, 10.580 sec
 * ratio c/w:     7.283 speedup
 ANC optimizer:
 * wall-time:     3 d, 13 h, 46 min, 27.348 sec
 *  cpu-time:    23 d,  9 h, 11 min, 49.608 sec
 * ratio c/w:     6.543 speedup

