3795
 energy: -5103.664807737202 gnorm: 0.000881524638 xtb: 6.6.1 (8d0f1dd)
C           99.28301400967543      116.68542926055099      102.44813139697871
C           98.30300063929566      117.17433010230739      103.48833001222616
C          100.38723886328950      117.70192686663668      102.16524663555955
C          101.19260920518239      117.38045812592952      100.90981485574459
H           99.91689194132323      118.67827014295811      102.04149066623536
H          101.06642452325383      117.76585107132937      103.01725024663953
C          102.22837105403224      116.28210453103532      101.12776541870538
H          100.52109457684706      117.10008120787312      100.09585789705548
H          101.72714497418764      118.28023737423608      100.60110296620140
C          103.13211446503834      116.11433580534293       99.92239991551264
H          102.87263340751770      116.56713188013480      101.96434076033938
H          101.76604450028054      115.32412262798233      101.36535332720310
N          103.96311108956344      115.07287021192266       99.98451589358918
O           97.21410757772358      116.43758194853272      103.54675010792428
O           98.48671851135863      118.14451127274465      104.19661372342559
H           96.57041927098933      116.76669871357937      104.24092503250775
H           98.71389720496725      116.46928270836283      101.54194201040988
H           99.69543145907288      115.73675217021926      102.79864707095696
C          104.94398428772639      114.80217499479073       98.95422578843379
H          103.88129829105179      114.40744084993790      100.74573233159832
C          104.98021929429784      113.33420036854626       98.54383466622288
H          104.67510355089169      115.42629255397584       98.09843533331488
H          105.93542272550079      115.10924758996626       99.30915692413076
C          105.66881628199772      112.45988259219116       99.58869624919134
H          103.95943236424328      112.98172343723796       98.38759173753763
H          105.51158770525261      113.26306367527806       97.59325344487736
C          105.72822912661455      111.00114070973099       99.14339190568560
H          106.68467801664012      112.82785907977399       99.74983190850570
H          105.12458635385751      112.53164731258784      100.52971628763034
C          106.56340346182505      110.12096197797099      100.07081479227945
H          104.71411355154866      110.60082087582384       99.08407573224942
H          106.16212422332049      110.95675322081479       98.14205776935039
C          105.96685966724939      109.98584084058116      101.47136844422984
H          106.64341609748578      109.12168378323844       99.63680076204770
H          107.57301400489628      110.52689664276048      100.16200882427967
N          106.75061569083026      109.05762209439928      102.25519959336091
H          105.94941656044573      110.95849897822862      101.97107299109194
H          104.94512853137414      109.60084679431836      101.42205900761348
C          106.26609083915464      107.93987817030140      102.78946120312058
H          107.75675038807015      109.21457470343593      102.25564120910251
O          103.13249532069648      116.90590781183150       98.97704506473326
C          107.30406817473387      107.04402916635242      103.43418028136880
C          107.44405427863180      107.34869804165278      104.92811181938187
H          106.99608532311804      106.00640766376027      103.30104674967393
H          108.26423702196003      107.19783789780668      102.94312644900398
C          108.51359862283498      106.47442664764944      105.57641325525047
H          107.71952248704235      108.39643799129824      105.06137771875359
H          106.48548603570812      107.18505210360111      105.42746337074219
C          108.73621755396717      106.84923365919214      107.04361782830863
H          108.23593128546426      105.42245663058046      105.49139154383457
H          109.45023668264358      106.61882372454586      105.03676330244602
C          107.47532058068644      106.69130833686357      107.87480233089487
H          109.52467255072811      106.22393938224839      107.46436874416914
H          109.03947247983707      107.89519179682198      107.09924143195603
N          106.95062095915497      105.45853334499115      107.87540240639802
C          105.64049947717665      105.17677812860352      108.42563012256844
H          107.43008778650552      104.70637862120290      107.39464498661685
O          105.06374957327309      107.65791829134967      102.78395411019446
C          105.45769955431739      103.69526027971898      108.72642868585142
H          105.51626583163652      105.76946261306294      109.33756747762216
H          104.87896654571901      105.51863265675580      107.71411622629655
C          104.06307152770505      103.40360770806642      109.28589405175065
H          105.62688033818864      103.11746759269556      107.81627464579164
H          106.21117760389356      103.39101547911943      109.45525273628020
C          102.96676270752623      103.51569818634181      108.22686809928244
H          104.05227212534584      102.39413289960389      109.70095445665396
H          103.86857250782518      104.10424014275270      110.09844704309847
C          101.55463584269066      103.25584277114719      108.75732301456804
H          102.99561191540664      104.50470650000889      107.77186716894605
H          103.16738884803513      102.78141113245854      107.44286906103598
C          101.07268175280144      104.27892223335529      109.77918576504571
N          100.96745989000223      105.61194588100146      109.21966832895558
H          100.08587436546115      103.99728379719099      110.16204616741670
H          101.76197442333697      104.30688245264660      110.62896534880400
C          100.38748990897273      106.62179610727759      109.87049235882151
H          101.48706943227381      105.80954713430799      108.37496040109339
O          106.98520446453716      107.62393070180750      108.50734881804276
C          100.54508991578454      107.97368800802906      109.20513358210938
C          101.64710560187173      108.77281978070262      109.91312679439714
H          100.81321247004213      107.83676744292548      108.15823873584726
H           99.60189850904196      108.51742148999259      109.27182915439491
C          102.96256137411456      107.99598567437067      109.98219187775256
H          101.80265990878094      109.70403444774452      109.36278235524090
H          101.31903592972947      109.03296626257746      110.92253560408760
C          104.16461392843306      108.91720006063935      110.19580436615743
H          102.91720939752868      107.25737821830899      110.78436518454302
H          103.11353882146108      107.46272362417396      109.04186126018362
C          104.03736637228988      109.77128305223926      111.44195503196001
H          105.07096579530753      108.31406479665030      110.26058761104626
H          104.25892347631002      109.57801052749085      109.33349364309684
N          104.23532612463733      109.12419295327373      112.58885876939053
C          104.26627654206276      109.77423475145063      113.88049134602656
H          104.41884117434671      108.12232916724209      112.56881278555953
H          100.86109474913562      103.24719773186409      107.91432096352044
H          101.52431137792007      102.27374441369996      109.23273346408837
O           99.78557556253985      106.47747850266276      110.93564990120072
O          103.80741613195751      110.98262896897305      111.38368803781646
C          102.99798818123143      109.56651091438673      114.71281220908132
H          105.12947700446122      109.38405944769688      114.42542688648078
H          104.40207957670511      110.84276082028522      113.70623286247459
C          103.24963428310433      109.88133124332505      116.18554067995562
H          102.21294589456693      110.21937098743042      114.33301769885924
H          102.64861415289940      108.53707403838213      114.61192126002459
C          101.97705097060015      109.79083061227546      117.02540708644686
H          103.98936403358185      109.18207233703630      116.58056910934980
H          103.65570410758247      110.89132515051506      116.27435319050475
C          102.28387162469775      109.92113708532118      118.51510021878084
H          101.29294690832504      110.58868311113507      116.72734739382867
H          101.46232283372063      108.84740056751448      116.83548606208116
C          101.02151263370703      109.84477102511495      119.36743181933426
H          102.95861782595172      109.11849111428283      118.81936208903149
H          102.78734535588748      110.87445412870943      118.68942314437851
N          101.31579977608015      110.07504930164563      120.76729270834386
H          100.30301849863355      110.60817760746180      119.05595620443390
H          100.54650752989411      108.86516825772158      119.23317349380245
C          100.51588573257074      110.75612647583345      121.59495459572001
H          102.17311885773744      109.68123049104645      121.14046480233644
C          101.07000349220726      110.88426307802771      123.00389692121465
C          100.32643790253877      111.92020320021918      123.84196297621870
H          101.01555299134571      109.90113083119017      123.47584865947091
H          102.12547789453727      111.14618286042121      122.92174435537085
C          101.07089335273650      112.25173126864851      125.13211028877261
H          100.21269628168956      112.83379367133766      123.25361483927931
H           99.32371105881892      111.55656288115507      124.07047059176318
C          100.40446940812234      113.40493293339119      125.88807494706056
H          101.12035001120900      111.37261311959307      125.77714129180109
H          102.09487584521328      112.54309421991651      124.88918503590185
C          101.27551080829238      113.81540522331781      127.06199303138378
H          100.27565047845238      114.25137177778123      125.21381124236026
H           99.43159537055450      113.08640059876375      126.26309494838701
N          102.11368587281474      114.82281869040798      126.79550470457076
C          103.07130796491079      115.32952109517808      127.75667695232353
H          102.12437299157217      115.22118000921004      125.86067389654522
O           99.44248729987413      111.24438938153816      121.25016072955165
C          104.38538598591663      115.73105525046780      127.09043482262474
H          102.64664381586306      116.20193052110614      128.26887483474616
H          103.21868430239776      114.54725171040047      128.50551211989790
C          105.02600869963217      114.60988957673572      126.27267017258833
H          104.18290365180064      116.56609593842477      126.41822220664945
H          105.06952118856414      116.07893784239542      127.86398741807837
C          105.53855627882176      113.42320862015066      127.08730259952758
H          104.28088713761134      114.24129335420464      125.56827013341010
H          105.84957608459202      115.03251217744780      125.69295783114107
C          106.81805419179689      113.72420253131224      127.86296337225826
H          104.76146149141506      113.08883467735259      127.77560747084881
H          105.73700278815410      112.59693105330038      126.40224859471915
C          107.29133619121311      112.49628047114993      128.62817880078325
H          107.59855964698011      114.03761625702069      127.16738008769677
H          106.64687158040799      114.53281518171390      128.57478424068276
N          108.43259914673366      112.80546635482696      129.46365324661465
H          106.47268622428297      112.11783256469212      129.25540120290222
H          107.58439652035145      111.69468989389607      127.94283467535014
O          101.22653555187856      113.25070344234891      128.15285537957885
C          109.25382600065819      111.87118071754261      129.95325465552884
H          108.56588301960264      113.77338512103013      129.74485237722158
C          110.23031468677253      112.40698168690444      130.98118361610426
C          111.49891426718361      111.57453757077523      131.12264772770837
H          110.47020992407420      113.44306390878339      130.74223032529557
H          109.69294837737485      112.40782389285715      131.93507806455844
C          112.30947678218696      112.04360876409038      132.32785094734874
H          111.22418420384535      110.52362739257902      131.23675777027546
H          112.09513268541963      111.67081895620274      130.21252321494805
C          113.62719393875233      111.29370976043231      132.48630907879550
H          112.52369870231790      113.10864517563175      132.21105446466254
H          111.71138051862529      111.91788358422554      133.23275166497649
C          114.64027606983502      111.66683413661100      131.41927366124139
H          114.07569765487260      111.54689042427734      133.45047236877986
H          113.47055339684172      110.21517309201167      132.47578136739227
N          115.68700381345110      110.83839464021300      131.35373719452326
O          109.18883588238424      110.68494103436461      129.63745246838093
C          116.81813411281220      111.03442362645686      130.46993627533166
H          115.68696718288733      110.01566139891675      131.94637096289375
C          117.34482789700080      109.70559876978602      129.93233653407447
H          116.49297366008264      111.70093237941528      129.67035897745077
H          117.62186787927257      111.53472658220421      131.02463379003592
C          116.33542224332939      108.89353918493055      129.11524690758463
H          118.23273501819087      109.90593436144832      129.33343165672017
H          117.64875879478595      109.10724608324013      130.79381750294928
C          116.26952884052552      109.21352218949261      127.61871318232282
H          116.60856539348997      107.83916527785134      129.19660587701296
H          115.34872433991951      109.00226068698244      129.56251675435510
C          115.70209376148995      110.58034529433779      127.23380696844310
H          117.27166478517913      109.12332166567244      127.19479609594680
H          115.64697122630899      108.44894561931211      127.14690609511068
C          114.28202999980952      110.80049524753004      127.75113639252223
H          116.34294143622255      111.38342943239503      127.59792852950562
H          115.68290492955511      110.65226818146637      126.14384621223428
N          113.75154583224754      112.05758435385769      127.27612447757419
H          113.61235109381849      110.00722967678570      127.40690599896429
H          114.27089196224190      110.80870176676099      128.84504165165637
C          112.54700762911159      112.20032465211810      126.73377741966739
H          114.34352944777417      112.88187944233543      127.38762463527131
O          114.52495162301089      112.66358870461571      130.70971035761264
C          112.20334742077877      113.62346377454753      126.33396409174809
C          111.26364154383360      114.25885665736196      127.36283693992083
H          113.11761289824243      114.21161415412298      126.26285856811413
H          111.70703650652837      113.59650527271188      125.36147985513989
C          111.02682293664738      115.73481269188035      127.04683945937852
H          110.31418878619932      113.71724743574359      127.37386374451130
H          111.70112409791732      114.16540268660498      128.35938992560892
C          109.89367372618473      116.33766633737652      127.87867041722180
H          111.94956809688750      116.29068196759526      127.22196839744710
H          110.76576672396844      115.83880150961429      125.99128732071154
C          110.12521657653809      116.20372815447439      129.37194087505301
H          109.79355365826012      117.39874835129169      127.64634009867324
H          108.95313136703940      115.83755160434434      127.64369876675997
N          111.13470763552984      116.92226466905107      129.85770537721484
C          111.41835496907609      116.99632385099763      131.27516793481834
H          111.70050854988253      117.51037550437613      129.24659736520735
O          111.75971725103680      111.26565655327188      126.56621750525863
C          112.87100043661086      117.35483130224263      131.55947655499048
H          110.76561909958087      117.75646858236210      131.72680834353369
H          111.15722171461367      116.03138355136188      131.72166386364211
C          113.86548030158649      116.24108176732618      131.22705212436622
H          113.12594159827484      118.25380141575785      130.99546544747813
H          112.94237844010539      117.59361558716967      132.62260097494232
C          115.20563959155932      116.49946858976179      131.91631524014178
H          113.46870594327039      115.28248534063272      131.56881813645666
H          113.99391525132727      116.17941763482330      130.14639648519278
C          116.21896199767995      115.36030481604986      131.78467999090850
H          115.63801117914029      117.42405439428995      131.52820968087150
H          115.00988873012032      116.65369384434871      132.98027810572253
C          116.92388789399469      115.30131991854149      130.43147760498385
H          116.98451767785373      115.49265102119205      132.55066275848324
H          115.71830594248668      114.40933890141868      131.96795829749371
N          116.06916034732464      114.74098083521943      129.40987287504623
H          117.23216563012639      116.30867101182135      130.14427179087147
H          117.82526426039560      114.68147373033435      130.52502452541245
C          116.15526828615612      114.93024042767280      128.09172410774187
H          115.37639348930927      114.07520615342081      129.74886448997154
O          109.40805753555780      115.48833442158420      130.07754738041157
C          117.26659471071707      115.84312864108411      127.61170090782120
C          117.28531338717978      116.00982197515160      126.09635678437539
H          117.14685402042696      116.82264330009762      128.07967663825903
H          118.21566675203707      115.42151088970527      127.95148247333390
C          118.54166515378489      116.74339481260745      125.63770418679395
H          117.23459576278914      115.03383870654864      125.61280145762188
H          116.39764786323433      116.56307875482943      125.78555785390823
C          118.50925444873032      117.03759884271130      124.13747233863278
H          118.64470067228065      117.68135967334669      126.18656895316320
H          119.41632559348842      116.12652591477134      125.85446591070558
C          117.44344223055509      118.05869842687407      123.77596409391639
H          119.46773812465914      117.45460032047052      123.82458543752924
H          118.31932387664739      116.11367278573465      123.59595780320284
N          116.35636555235509      117.53683018034437      123.20130736149389
O          115.38482966469280      114.36573352176747      127.31344436913386
C          115.30412462932419      118.33242228539173      122.61039214940732
H          116.34683553265069      116.53694305274652      123.02078813237679
C          113.90701061650103      117.78666036357562      122.89481517681875
H          115.39975682265683      119.34413542811971      123.01104135408313
H          115.46335244539603      118.36462027490718      121.52573225772505
C          112.86798773553180      118.65854668234702      122.18833462517213
H          113.84789678266793      116.75939769748688      122.52737750834950
H          113.73310397454377      117.77633741208416      123.97226682581083
C          111.43866002287619      118.11951884253980      122.24604796556426
H          112.89003358987742      119.65664625350284      122.63011462075343
H          113.16195681226525      118.74390590655813      121.14040592489680
C          110.82345234116917      118.25786250228940      123.63757705310771
H          110.82958675058926      118.68199016376057      121.53535904953446
H          111.43554953610527      117.07520026490101      121.92821068288836
C          109.37880058836890      117.77531590833571      123.70475240523382
H          111.42206227826240      117.70002755418201      124.36044167270695
H          110.85153580655223      119.30856856462246      123.92565492491323
N          109.29810297188855      116.35704860375665      123.41714455326442
H          108.96328351890523      117.97075585475751      124.70083493893711
H          108.75583277767193      118.29724036405111      122.97409170264486
C          108.19320424570228      115.73904658581745      122.98161499655352
H          110.13433013060070      115.81720990663206      123.57628214607043
O          117.58143405053964      119.26015882117171      124.00511587528172
C          108.36603136168252      114.25349995662226      122.74852842120272
C          108.33828899871826      113.48418046286697      124.07237386825841
H          107.56612153290841      113.89823674608415      122.09747619905789
H          109.31404764962474      114.07064851790490      122.24212234762858
C          108.73070775447118      112.03070117291934      123.83956564049225
H          109.03268309360661      113.93483956019033      124.78501822511976
H          107.33724770796272      113.53322265176860      124.50355588254880
C          108.67674033408787      111.19238728274900      125.11917893108014
H          108.05721372828506      111.59120039377426      123.09985533900044
H          109.74557228758184      111.99454645856376      123.43719879401138
C          109.01927279229412      109.76808755860525      124.73550878838992
H          109.38809477272775      111.56309977503511      125.85634589672681
H          107.66852425767014      111.22844483472602      125.53248523403778
N          110.30474274518608      109.45621350911566      124.85809134220042
C          110.85924416368711      108.17594500495430      124.47062706620569
H          110.90667700792650      110.08063479636101      125.38627938080700
O          107.13385179801276      116.32473231338210      122.80150417644651
C          112.32135162872201      108.31899314658938      124.06329340659354
H          110.76279844821448      107.46759675900924      125.29652468342809
H          110.25962143787260      107.79878016772996      123.64064094035962
C          112.99219670997309      106.96023317741907      123.85007516696130
H          112.37981445505392      108.90733918165172      123.14639247423496
H          112.85009072075675      108.86851343449632      124.84533454924112
C          113.28127149571434      106.24423527504496      125.16919661764969
H          112.35050702535291      106.33892020501330      123.22430139388752
H          113.93695164483719      107.11586826884707      123.32433656880629
C          114.02143430572134      104.91870820589089      124.99532073805130
H          113.89866177451265      106.90326079300561      125.78468760187899
H          112.35084796276611      106.06360372274719      125.70975486870739
C          113.14110875675870      103.79375308826955      124.46253212119171
H          114.87556997046634      105.05939682384533      124.33163848036001
H          114.40589306006072      104.60352528549835      125.96745736764007
N          113.81055554581945      102.51761058246066      124.63981023545225
H          112.18624170138004      103.77969082017206      125.00464104831617
H          112.91975812860785      103.91608987386036      123.39927364987723
C          113.44446116949642      101.38895499411484      124.02611469429938
H          114.53678805806668      102.49539648174354      125.34146924696674
O          108.17362337948093      109.00622972421526      124.25596937162899
C          114.25877922479793      100.16359292745574      124.39732327006233
C          115.53929086660453      100.07185955215077      123.56007036081967
H          114.51804113162606      100.20061537379071      125.45624975963707
H          113.64423787695644       99.27959926541298      124.21513767713095
C          116.28726753464029       98.76647014133512      123.82976898607598
H          115.28409271196050      100.11235142720754      122.49942438733375
H          116.19050396151881      100.91973422595956      123.77837889353164
C          117.62202142392499       98.72699098035018      123.07564118706337
H          116.46770042471600       98.64855233122465      124.90069325547258
H          115.66971438158302       97.92579407303570      123.50432169575642
C          118.15883914957264       97.31064048602649      123.02258725245589
H          117.46158094448118       99.08363908023703      122.05986003564233
H          118.34518760924300       99.37588059979829      123.57008687471098
N          117.69925782628960       96.60572069674855      121.98798538862447
O          112.53073930448288      101.34160752197718      123.20440434348379
C          118.03151592156817       95.22435092612305      121.71816747469153
H          117.11716484725480       97.09298381168080      121.31301285083821
C          116.80703353293443       94.42060081286030      121.27951475362896
H          118.79473052741294       95.17506140677354      120.93091887522419
H          118.45508421501238       94.80992803433601      122.63754585515385
C          116.33624954067250       94.79622509717883      119.87417021593855
H          117.06163055490181       93.36006076843316      121.30670272835710
H          115.99967670150407       94.58946531246509      121.99495709189014
C          115.05655832926992       94.05914822427864      119.48260444104164
H          116.14620821907965       95.86806589595709      119.83352467491331
H          117.12507016079954       94.57691861287664      119.15228856679053
C          114.45032521022574       94.60547354112062      118.18996376625527
H          115.25934708404381       92.99216604792905      119.37504993367347
H          114.32813152174172       94.17289618928898      120.29009483760606
C          113.06469189032164       94.01916104149171      117.92551921095743
H          114.35594034873223       95.69095747258351      118.27839691989125
H          115.10945992879280       94.40050530291565      117.34634342302148
N          112.34423996632631       94.77216451345990      116.89255856201363
H          113.14571159264007       92.98172127744395      117.58827522668862
H          112.50363105296847       94.01390658351778      118.87184624343989
H          112.52712997677175       95.76415161312048      117.02402706269245
H          111.34327017134876       94.64130161617456      117.02464434230734
O          118.93159328054544       96.85221341685794      123.86667904450823
C          100.69380940022448      123.09450341670224      102.33387354558840
C          102.19264156496396      123.27199373505351      102.40325961280942
C          100.09744621669157      122.61719836094338      103.66280583733273
C          100.84616155899731      121.41739958367540      104.23592862772767
H          100.13681963285197      123.42521839311570      104.39376590203742
H           99.05106514594875      122.35729766934004      103.49741473351695
C          100.21640290845188      120.94941405089308      105.55196594391765
H          100.84886997719900      120.59219664813594      103.52083181147114
H          101.88623792575902      121.69868314318573      104.42242657056482
C          101.10809739261036      119.90833687275622      106.19627244200201
H          100.12317359108961      121.79916177033915      106.22986053790538
H           99.23034107301856      120.52888409988169      105.35946640891383
N          100.88833872906154      118.66033324903697      105.78551336856606
O          102.82941964001394      122.48647529041703      101.56141783200115
O          102.76255903137270      124.05630200527283      103.13575503414283
H          103.82897376724490      122.60531434612584      101.60354957032459
H          100.48309434087025      122.37404685051476      101.54690431699909
H          100.24694626720429      124.05365724750396      102.06799767738767
C          101.66171796198832      117.52860487367599      106.25205124746461
H          100.13482376215937      118.47959464193455      105.13241564359160
C          100.88583987003084      116.22586316357742      106.10531596306502
H          102.60042215934422      117.47271828781096      105.68507370179772
H          101.91677125167317      117.70936533623923      107.30127776925511
C           99.57943070796253      116.22548229184196      106.89890048458616
H          100.66494376859116      116.06100733871014      105.04881975319135
H          101.52092184843542      115.40322456286142      106.44031702090173
C           98.84069989046873      114.89548258730154      106.75084413577974
H           99.79155824490256      116.39452990122479      107.95644375638707
H           98.94788088645871      117.04366246525433      106.55122252282730
C           97.71456587515466      114.70513488242122      107.76986232288274
H           98.43877552256650      114.80530971965271      105.73859130523789
H           99.56663567576426      114.09144630832618      106.88679633319906
C           96.42732015807927      115.45378673944819      107.42992907106203
H           97.46481585523038      113.64489173199196      107.82909444563109
H           98.06111135378116      115.02667418779474      108.75352315244329
N           96.58444600581880      116.88804805622247      107.54585934140221
H           96.11072078535675      115.24254966256545      106.40595167162601
H           95.63338924004479      115.13181570370337      108.11274259294150