3258
 energy: -3427.488139890429 gnorm: 0.000814790384 xtb: 6.6.1 (8d0f1dd)
C          115.61177912896338       95.51387016588211      113.16161432104428
C          114.85513827367372       96.47071608556716      114.07529235924331
C          114.87793162806430       97.89766196388682      113.53209205139790
C          114.02616740509582       98.87803431658013      114.33822450613216
C          114.61168631198107       99.18601382911056      115.71504939416151
C          113.84748662287156      100.28220353422928      116.46049234404083
C          114.13985201231831      101.68291573422907      115.92976490332808
C          113.32232244600188      102.75520811170512      116.64472006854493
C          113.55848492777230      104.14113634019537      116.04785219467959
C          112.54300359394027      105.16271042933393      116.55000766239522
C          112.67741387436051      106.54230986964102      115.90243784764955
C          112.60453186203273      106.54667513610384      114.37343402366611
C          111.37352581060614      105.83372855543305      113.81879074052247
C          111.19756732390579      106.00933115139219      112.30989483997239
C          112.40009956636722      105.59372304524598      111.45967753517544
C          112.85497318355618      104.14382532265967      111.61847614009150
C          111.88121846658039      103.12846077317508      111.02922526376422
C          112.40047645493897      101.70093222986084      111.17855392934806
C          111.50932367501612      100.67470040658738      110.48560924508875
C          111.99604934595614       99.24711385325035      110.72350416829939
C          111.11053035504875       98.22006422977672      110.02367727653065
C          111.62215250637257       96.78304709402848      110.13237828735599
C          111.73383596566862       96.24146642041759      111.55762272276417
C          110.39744302163052       96.13135510864790      112.28671192804394
C          110.58485615908290       95.61823074240283      113.71252531600270
C          109.26558368718410       95.54369041429476      114.47542370360502
C          109.41711793946699       95.01646970277766      115.90379834753121
C          110.32130044566298       95.85489326778463      116.81273523292954
C          109.90757999173802       97.32285276963147      116.87562758411104
C          110.58903672678977       98.09249767633101      118.00536159263052
C          110.12553863774579       99.54664426767448      118.02447575384861
C          110.74180678223692      100.37739365267159      119.14702775486242
C          110.20154669734312      101.80413472242503      119.11089958815272
C          110.82497834578048      102.72895237815118      120.15127249871796
C          110.33909029116813      104.16442085072235      119.96581666859369
C          110.99665088161827      105.15001050382513      120.92609648131234
C          110.60847129730143      106.59277789229338      120.60420229218900
C          111.33191238897039      107.61599082176878      121.48152930548420
C          110.72468059365399      107.74921449282313      122.87598393600580
C          111.67666202969271      108.39714494777083      123.88220591107796
C          112.06233251772879      109.84822456725030      123.58933378302234
C          110.88434164756178      110.81039524720995      123.70259774926413
C          111.29399902701272      112.27923213295030      123.63164169476890
C          110.06877741307480      113.19116809434240      123.64662831100956
C          110.43161513976865      114.67398026530627      123.64114551292811
C          109.23588911199644      115.58492309685940      123.36220991472064
C          108.13230180962111      115.49482337245196      124.41367658929599
C          107.05984747469793      116.56281024684513      124.20485624876012
C          105.89394809331274      116.45960083699691      125.19035400698878
C          104.96434343710960      115.28100169478967      124.90925852893594
C          103.77334188923417      115.25306494683505      125.86394721014545
C          102.83364841846584      114.08408146830183      125.57894584345034
C          101.67269828091754      114.02319435144948      126.56876094623919
C          100.73868048142539      112.84661357526819      126.29270024008743
C           99.66944286179617      112.69882170730422      127.37372283151571
C           98.64782985404527      111.59702312098497      127.08272309075173
C           99.27847524888988      110.20979877321969      126.98933362586584
C           98.24651004454718      109.08622502373177      126.89165583854580
C           98.91645984728206      107.76644226232830      126.51555407969995
C           97.94709939927760      106.59084901376391      126.39533273667490
C           98.61341782829956      105.42394076192720      125.66762990142148
C           97.77458451767885      104.14878626413054      125.59854377356102
C           96.40016090052218      104.34792364065753      124.95556825417394
C           95.86016746790044      103.06332267009795      124.31725603970615
C           96.39289688664221      102.86326640277174      122.89891645964131
C           95.95244259340549      101.53372777834048      122.28704694064221
C           96.08292619716261      101.50631128378625      120.76323730148745
C           97.51554508266531      101.68258669533806      120.26469731894392
C           97.64696254945937      101.56614724431068      118.74368264154185
C           96.85590592746658      102.64541003300033      118.00661344334281
C           97.15397884685643      102.73603293699719      116.50921530855686
C           98.55242619567105      103.24193152107614      116.14865692477795
C           98.95629855447149      104.55806664702308      116.81295626938626
C           97.98708960056193      105.71151458232602      116.56152513361619
C           98.53335047713176      107.01059085637662      117.14607976893433
C           97.58156191968745      108.19370622376870      116.99471265094031
C           98.08844582227565      109.44472485958947      117.71470489415138
C           99.31792693303191      110.05959560607167      117.05305949602807
C           99.87470532540226      111.24366363849242      117.83754463441036
C          101.10795107898387      111.84423007372470      117.16616532976464
C          101.68388795641177      113.00165075095663      117.97548689877635
C          102.81634168939115      113.74632517133688      117.27010586860075
C          104.10335099504178      112.94233199609269      117.11776188029475
C          105.23212484266568      113.79943341252117      116.54937826874743
C          106.44234464887391      112.96339033462959      116.14375930298255
C          107.61771714351427      113.82804987233278      115.69139055132378
C          108.63659170179639      113.02480463781055      114.88375998780708
C          109.98808798469192      113.72214956210298      114.72947785090318
C          109.89103005874809      115.11854329970875      114.12410783563887
C          111.24378042452922      115.81476618718381      113.96988211702836
C          112.08746114911347      115.33806735183107      112.78969723431680
C          113.35681672746354      116.17821416963949      112.65974718050047
C          114.19372220363515      115.83138718655550      111.43197152344375
C          115.45555474226794      116.68775804982883      111.34561009004128
C          116.31263592160278      116.34637823641486      110.12981012484657
C          117.59320423992524      117.17573554430896      110.06814141001574
C          118.47108819064115      116.80416117410169      108.87466309878877
C          119.78475861012949      117.58330180641656      108.85460613183987
C          120.71234599774294      117.13950221562051      107.72380496265832
C          122.06036147830542      117.85736290645482      107.78303646890015
C          123.10300325776721      117.30233574134702      106.80986288362412
C          122.78787323588732      117.59451697590399      105.34527837059828
C          123.92393851466940      117.21773653301162      104.39237168685372
C          124.15477499812914      115.71161059153170      104.29055407124527
C          125.25325878872584      115.36007781876094      103.28897328352036
C          125.48892042872814      113.85306377836130      103.20394036571412
C          126.59275289162024      113.48722609533608      102.21391497935758
C          126.73781011090297      111.97368132051602      102.06409578684101
C          127.88748521860092      111.54799406074955      101.14790553967610
C          127.75839528671636      111.99421613612802       99.68951234349093
C          126.54568139189460      111.40741345235755       98.97028045162666
C          126.43944639574102      111.90875611020263       97.53104193011930
C          125.11811047339474      111.51241586986350       96.87270367776836
C          124.84969849500418      112.30863892328489       95.59701308379152
C          123.44854675815087      112.06418580805986       95.03906616915215
C          123.14796635971777      112.98044040351141       93.85423206219548
C          121.76479356447409      112.76803901400741       93.23586933781864
C          120.61982768846242      113.13827772691982       94.17694696412042
C          119.25008634695769      113.11047257541291       93.49617784772114
C          119.00389452454327      114.29829826225112       92.57506973823233
H          119.15119278573600      112.18398254346012       92.92545365445947
H          118.47570727723004      113.10691131965659       94.26717950100820
H          120.60499173938324      112.43728071125518       95.01398947399237
H          120.79829201411128      114.13582849655305       94.58212937386674
H          121.70001842246278      113.38090284261528       92.33404030512961
H          121.65985644970134      111.72394111462791       92.92929741007859
H          123.23548840754765      114.02095662819725       94.17920733642563
H          123.90584397016276      112.81564107473825       93.08315718726217
H          123.35391541468262      111.02032158020585       94.73017166392094
H          122.71932946532191      112.24253228838781       95.83143613565963
H          124.95637227157499      113.37407765610646       95.81931007404233
H          125.59656097677572      112.05737225623780       94.83967763641597
H          125.11578140933499      110.44285918734684       96.65077276696911
H          124.30645533936891      111.70071412893557       97.57776129813941
H          126.51270757435927      112.99949688326399       97.53573797001478
H          127.27882525202162      111.53153978780261       96.94150036023521
H          126.60437842007549      110.31712026802583       98.98106471345152
H          125.63725887385817      111.69566555830579       99.50088243519365
H          127.70995852327280      113.08449108000028       99.64629250315384
H          128.66504443320633      111.69310149564755       99.15680074877828
H          128.82163717899272      111.95149842014612      101.54895824089921
H          127.96607788162476      110.45810397473730      101.17249106402582
H          126.91533235414960      111.54100308796440      103.05289731943164
H          125.79964470366990      111.55410785258569      101.69650762210701
H          126.35694123332965      113.93415346956149      101.24708044306030
H          127.54142234411928      113.91133978810522      102.55262781887293
H          125.75255655678636      113.46930895179740      104.19345419464329
H          124.56052793512042      113.36569822057128      102.89787141458623
H          124.97765027162042      115.73663488556929      102.30059056397459
H          126.18067144641961      115.85943562929536      103.57967501848940
H          124.43472571974714      115.31987618387546      105.27004598699091
H          123.22276175860092      115.22556334355359      103.99150670778036
H          123.68656189358948      117.60393419537006      103.39708788003573
H          124.84674867353657      117.70496679147961      104.71838976562567
H          121.88938930090811      117.05023037537416      105.05223095080784
H          122.58691288867148      118.66372494303367      105.23631258395510
H          124.07423230297437      117.74247019861613      107.05333148956430
H          123.18108681755872      116.22434851972537      106.95635869496205
H          121.91395419366845      118.92388987526327      107.59099191131968
H          122.45638075082066      117.76440317242235      108.79906489740047
H          120.88055593828160      116.06236891025681      107.80093187850095
H          120.22841528899045      117.33219160863023      106.76453309995271
H          119.57659453753215      118.65161358168993      108.75451528992257
H          120.29659489498104      117.44201873683534      109.81128671806088
H          118.69473379651414      115.73537870466808      108.91792446870298
H          117.92325052723685      116.98897438815081      107.94785628276988
H          117.33685149990536      118.23698464994111      110.01684383611742
H          118.16166399992998      117.02733771655043      110.99064764646957
H          116.57624878366032      115.28660123916828      110.16804828643704
H          115.73159824187742      116.51384809529824      109.22053443008632
H          115.17303184844519      117.74272341634513      111.30578981673345
H          116.04865617627975      116.54722146992192      112.25374249209565
H          114.47351011174162      114.77573457834292      111.46576609879790
H          113.59372125428088      115.98952115167477      110.53312333081078
H          113.07843389944780      117.23363043072442      112.60998037621283
H          113.96547139360371      116.04636978149792      113.55855544618153
H          112.35386055687469      114.28619160457067      112.91037690665635
H          111.50242770243807      115.42863667866234      111.87090462570153
H          111.06493651181874      116.88456241425489      113.84455381131883
H          111.81401552358031      115.69047725042005      114.89377544512409
H          109.39878966713887      115.05625641994745      113.15013299411221
H          109.26998803488054      115.73962588035261      114.77307862821917
H          110.46229365613857      113.79386942627241      115.71219887951266
H          110.62261714164674      113.09969870266441      114.09763267830097
H          108.80368954996965      112.06423795065268      115.37874920127105
H          108.21938812277445      112.81546102557093      113.89521435269670
H          107.23793992217827      114.65084620043146      115.08104671482685
H          108.10268040978760      114.26634349085369      116.56762683236235
H          106.75094653914128      112.33594020162283      116.98290949186193
H          106.15446276665838      112.29469731685745      115.32805603253344
H          104.86550854948102      114.34276780466035      115.67399376080331
H          105.53605365548715      114.54116514023630      117.29269115574465
H          104.40805324361513      112.54577015935995      118.08803328322112
H          103.92453067134984      112.09613329814169      116.45225261598516
H          102.47899586479063      114.05058472409985      116.27677324442976
H          103.03377551456424      114.65608934069790      117.83853929979723
H          100.87992005315338      113.71282881678303      118.18533120680551
H          102.04068492495237      112.62337588309605      118.93683393392543
H          101.86430715365256      111.06705861515461      117.04399679126186
H          100.83370445518240      112.20379083279437      116.17053051837929
H           99.10393153782043      112.01328576682425      117.93618306022944
H          100.13623522321733      110.91444484992347      118.84609052369379
H          100.09940323491905      109.30342773139836      116.96857092618464
H           99.05294409714958      110.38531564196973      116.04360808460180
H           97.28980432753933      110.19196608436519      117.74435553988843
H           98.33355396988890      109.18521553494956      118.74786179370231
H           97.42937358182924      108.41670567276815      115.93582345953742
H           96.60835770170976      107.92128402499843      117.41080724043584
H           98.73665427227981      106.86095116329734      118.20905732778903
H           99.47863368846782      107.23952614581155      116.65108877496201
H           97.83299248553250      105.82948486342588      115.48794071782382
H           97.01957471626041      105.48997920193982      117.01582823529390
H           99.06077524833469      104.40659453711092      117.88907225528919
H           99.94254216805730      104.84120155382931      116.43396329289459
H           99.29188181164854      102.48115131733272      116.40959988823722
H           98.59152484176353      103.36722364334614      115.06286375933742
H           97.02451865005290      101.74943253540309      116.05520786225667
H           96.41453192801480      103.39913535884796      116.05302115522906
H           95.78930949917353      102.44453605359493      118.12464811975514
H           97.05861244335379      103.61092612907564      118.47122433879335
H           98.70464744945836      101.65009437147746      118.48491941928378
H           97.30450441332898      100.57949908580585      118.42173161273020
H           97.88875570724807      102.66047069665805      120.57655260918222
H           98.14654717840706      100.92252144286560      120.73491511346940
H           95.69556574952806      100.55126014595209      120.39702197130487
H           95.45355732900038      102.29734989191576      120.35061123928537
H           96.53320068971645      100.71785183664292      122.72176034650219
H           94.90279926690681      101.35969679820643      122.54136917195522
H           96.02338499592959      103.67806077678202      122.27230548254657
H           97.48231815972412      102.92104208937786      122.91076838206610
H           96.12976867543246      102.20648710106295      124.93951151361156
H           94.76864937508898      103.10690206843428      124.27676114312568
H           95.69770381141775      104.70586791939895      125.71073300070681
H           96.46822870123505      105.11774267850217      124.18373636532429
H           98.33541805812185      103.41370734062934      125.01794982626834
H           97.64601365881688      103.73855170019020      126.60308628322240
H           98.85420260646057      105.74029716805816      124.64949400736805
H           99.55648117857230      105.18970878309169      126.16862045780634
H           97.61980101150692      106.27328488148368      127.38798598195486
H           97.06035942144577      106.90891053384499      125.84292499992924
H           99.41933812298930      107.90021288615442      125.55512956640429
H           99.68281740629602      107.52681229123718      127.25597006659883
H           97.72027849279389      108.98225761579718      127.84348053951784
H           97.50487531997005      109.34179715683452      126.13085500506513
H           99.91520008122494      110.17108049486605      126.10368273667878
H           99.91348385566458      110.04133996805908      127.86288951378918
H           97.89927469518209      111.59635014492025      127.87948344782271
H           98.13152141515039      111.81992694763142      126.14556920621183
H          100.15536767242084      112.48898964244775      128.33025370724127
H           99.13856652805853      113.64903344454022      127.47778561068957
H          100.25363006613227      112.99022761957553      125.32412688549940
H          101.33316184803287      111.93307678998643      126.24078649263578
H          102.07315530105826      113.93303620968523      127.58111821423974
H          101.10613295495513      114.95702811854768      126.52229767205482
H          102.44081334482770      114.17659365779345      124.56328549372590
H          103.39737141538809      113.14887551822399      125.62699331667453
H          104.13699557976713      115.18220769506567      126.89232276676290
H          103.21744829833976      116.19095321148460      125.77971908594600
H          104.59970006337895      115.34919287622897      123.88197021008253
H          105.51390523254814      114.34277781477701      125.00568180897265
H          106.28236745320417      116.37953291573518      126.20838632308872
H          105.30934726264248      117.38243124561160      125.13724075912742
H          107.52190254546868      117.54900992282597      124.30790118175587
H          106.67018579843793      116.49201195620236      123.18670667304708
H          107.67193289044646      114.50742660144698      124.36534264379421
H          108.56994577954532      115.61624692994494      125.40865571725344
H          109.59175605235914      116.61669624754796      123.31115105698503
H          108.81618148426880      115.33354323061825      122.38466305868499
H          110.87379007522520      114.94529970861691      124.60375580864330
H          111.18763774071634      114.85514466247136      122.87249434453398
H          109.45587601469686      112.97067025185642      122.77008133762764
H          109.47445875048416      112.96529550235569      124.53298626846407
H          111.94207181249550      112.51928670448456      124.47909298634529
H          111.86914015198938      112.45457480807748      122.71819991401688
H          110.16616139619696      110.60894102197204      122.90574469498651
H          110.38139348043661      110.63431923563037      124.65650952847490
H          112.82741137675828      110.14554845808300      124.31171596188288
H          112.50571723453029      109.92265961210465      122.59448086574685
H          111.21879600439063      108.35775214028700      124.87517158577700
H          112.58988441227693      107.79761790077923      123.92262951183594
H          109.79539399698321      108.31733672546828      122.81404028831474
H          110.47484598189300      106.75385081340335      123.25102957434034
H          112.37881006301244      107.31829811016060      121.57834098219108
H          111.30459283358776      108.58748682275329      120.98382326410828
H          110.85288093189756      106.78788010762366      119.55647007945619
H          109.52864044190372      106.71571049094207      120.71525703481009
H          110.71633718057021      104.90260789687127      121.95206165537211
H          112.08230058406239      105.04682065446609      120.85040593184682
H          110.55376449806306      104.47379696455562      118.94072311399435
H          109.25509314216491      104.20064703201277      120.09738158984212
H          110.57501451474886      102.37710702841649      121.15534883438197
H          111.91269683192435      102.70158880319867      120.05260235277728
H          110.38876731572354      102.22052587979437      118.11866852249790
H          109.11890739713721      101.77540070410039      119.26010575835846
H          110.51312376408085       99.91982651787400      120.11283890270599
H          111.82861534234453      100.39490183389456      119.03587545020513
H          110.37428172622177      100.00944006178713      117.06582511337243
H          109.03806995046297       99.56723032154217      118.12746141819142
H          110.35311502180069       97.62142658840089      118.96337411036514
H          111.67364684814999       98.05160433757936      117.87690850324097
H          110.15009021712389       97.80817553567397      115.92863135963934
H          108.82497037800937       97.38289400491755      117.00992469095981
H          110.27667302484168       95.42772595160294      117.81861434904313
H          111.35818960070003       95.78003748810961      116.47900647338314
H          108.42252505660609       94.96414729370298      116.35581457658418
H          109.81116328406911       93.99719833044115      115.86619439119798
H          108.80401940626079       96.53264846334442      114.49766839260572
H          108.58337007039577       94.87951694789498      113.93678044428124
H          111.04671234157955       94.62734975984611      113.68801295011893
H          111.26934195779702       96.28889667600538      114.23531832396114
H          109.91688369073117       97.10984539703149      112.32892821293515
H          109.73465953109212       95.45781933365565      111.73682551572857
H          112.19193832713142       95.24875297955900      111.51478600547100
H          112.40244990268977       96.87999674754954      112.13547173253153
H          110.95665166948390       96.13160929116366      109.55840777428232
H          112.61085873587587       96.72887466407786      109.66761999355381
H          110.09762421795219       98.27877244872947      110.42568763605165
H          111.05501728937726       98.47647687673224      108.96356993863934
H          113.02107261553955       99.15122204221322      110.35527864385067
H          112.01091260904347       99.05676726798032      111.79828073373450
H          110.48528953136041      100.77473961910195      110.85509174974520
H          111.49449239785295      100.87699157068334      109.41128775148802
H          113.40703847996599      101.63566384928929      110.75732201158146
H          112.47332506639951      101.45442801824471      112.24137556639930
H          110.91333036349421      103.21011749305278      111.52717812514948
H          111.73036151645745      103.35038603222834      109.96982586110516
H          113.81811680837184      104.03344922842280      111.11311856684196
H          113.01633953318378      103.91480850467435      112.67295045619622
H          112.14777838706463      105.75875391586474      110.40878111045427
H          113.23968893523042      106.25174150828246      111.69324204811059
H          110.31914073562298      105.43983802898612      111.99799957084059
H          110.99524625623414      107.06269032530577      112.10086839772109
H          111.42587871784491      104.76952985223700      114.04852469891190
H          110.48295110447746      106.22924790126584      114.31509219165345
H          112.59579994885488      107.58717455319236      114.03489860608059
H          113.50896998236021      106.08522995757372      113.97542581435286
H          111.88206679161678      107.18084875276745      116.29845944017399
H          113.63164625023529      106.98611616725006      116.19895559027091
H          111.53764177258553      104.77964878260291      116.36379743235348
H          112.65191109822977      105.27171650813997      117.63229546549539
H          114.57101566481089      104.47895694460048      116.28121601492658
H          113.48226776088222      104.05978307189248      114.96261513064512
H          112.26206444310904      102.50354877254613      116.55425436429312
H          113.56390784538958      102.75842020760260      117.71058022881994
H          115.20562150160751      101.89662203970114      116.04290958935670
H          113.90880824849002      101.72418360686079      114.86306732994450
H          112.77583443026049      100.08230681195477      116.38979215352440
H          114.11844110538928      100.24872890295423      117.51878859708893
H          114.59817821531207       98.27516625872170      116.31841765269203
H          115.65471491210033       99.49209346532575      115.60000805731924
H          113.94252290787981       99.80497474789769      113.76718122747765
H          113.01790444338957       98.47186572495077      114.45687343401107
H          115.91061428059437       98.25530414035408      113.51084449130680
H          114.51558199758433       97.88192533210903      112.50038927417103
H          113.81973425566378       96.13384589209930      114.16768166889896
H          115.30333185838967       96.44541092326781      115.07043505028000
H          115.16178691330926       95.49859152669768      112.17091705592810
H          116.65027593094959       95.82290754784474      113.06085791619793
H          115.59269143099452       94.50260769877086      113.56188625198955
H          119.73691229748545      114.33878455487368       91.77332552687983
H          118.01614578441607      114.22689136717909       92.12440648328419
H          119.06027668621313      115.22913471566521       93.13524747668605
C          124.72387158352272      115.36292035514506       98.79168142360639
C          123.41930022592815      114.57827741409726       98.85197586359428
C          123.26612223182877      113.85014038087235      100.18328103700448
C          121.98558384264203      113.02546360692025      100.30367182798433
C          121.97466645939085      111.75062560472949       99.46284220682365
C          120.80582807953415      110.84509706155561       99.84434971059287
C          120.75699919647244      109.56196299287666       99.01869345122093
C          119.69000365601741      108.60144152085630       99.53739876900644
C          119.56873831549424      107.34414730547009       98.68222301615718
C          118.54940954844378      106.35272558371400       99.23990781593723
C          118.34664915277509      105.17196532656881       98.29493273427170
C          117.49107243267915      104.04591440028253       98.87321377046163
C          116.05155988956324      104.44145474535733       99.19680484653878
C          115.20731287696186      103.20279330646594       99.48859680944423
C          113.78783119708648      103.53230290869122       99.94006215499878
C          112.96621084218877      102.26815484233212      100.18054715191160
C          111.58078482534479      102.56866264811026      100.74227152036831
C          110.73779555951870      101.30521795048014      100.89350040629071
C          109.37787855291604      101.59321778264801      101.52184529680386
C          108.56370998680606      100.31973620407491      101.73306279019434
C          107.16107811258919      100.58324222111170      102.27965268746952