3258
 energy: -3427.483018086758 gnorm: 0.000962487291 xtb: 6.6.1 (8d0f1dd)
C          115.61149080980866       95.51485587267776      113.16188194538429
C          114.85493610944722       96.47050753868984      114.07654265427881
C          114.87870613902049       97.89733284917021      113.53286863767579
C          114.02614352473938       98.87822892287666      114.33809434532719
C          114.61199276092509       99.18541548905995      115.71523642047062
C          113.84745901682908      100.28105046615168      116.46126934445026
C          114.14017966097066      101.68187173764045      115.93004528380256
C          113.32233710222532      102.75412466945629      116.64529853060715
C          113.55874395789567      104.14006607313429      116.04771416216509
C          112.54266715360239      105.16157900205692      116.54989310526395
C          112.67731154050328      106.54165757152342      115.90262612085830
C          112.60499718522134      106.54616800036843      114.37327996626519
C          111.37385376338952      105.83238511545774      113.81926811829322
C          111.19772836779450      106.00867871895557      112.31017141984962
C          112.40067587512854      105.59310642126717      111.45986534193331
C          112.85529299341216      104.14283466990047      111.61890567579944
C          111.88105011870556      103.12764007918828      111.02925925709117
C          112.40089356149142      101.70000761093449      111.17900503749370
C          111.50937474464727      100.67387857277470      110.48575172121689
C          111.99660736276212       99.24626776350267      110.72426829264803
C          111.11089386459332       98.21919737327084      110.02397643143797
C          111.62323442828951       96.78228974740456      110.13343813693191
C          111.73395330453745       96.24156912876668      111.55905264466406
C          110.39692635492773       96.13167940091212      112.28740458563460
C          110.58498195900177       95.61883742181874      113.71338767540780
C          109.26530329390289       95.54440041140376      114.47578796952028
C          109.41738087344740       95.01744648968788      115.90418374172501
C          110.32188716793505       95.85570660741325      116.81269853010690
C          109.90748765900499       97.32359577313321      116.87562061091874
C          110.58917866934532       98.09255562320111      118.00588097322030
C          110.12540094526906       99.54679573419445      118.02490659143206
C          110.74201845275269      100.37714439873302      119.14793812688025
C          110.20144460065156      101.80403015251169      119.11146566659822
C          110.82498853424225      102.72861716578052      120.15248190161194
C          110.33892969480921      104.16426851482233      119.96622168194537
C          110.99688524122021      105.14989367170627      120.92671029210004
C          110.60818534361873      106.59285570863230      120.60488416103833
C          111.33265080012279      107.61582170905636      121.48231583740092
C          110.72515181286342      107.74898796580010      122.87699533266944
C          111.67763955590912      108.39716060213733      123.88295854599562
C          112.06311174187516      109.84836853512816      123.58969608130955
C          110.88447397364104      110.81016312527704      123.70328357264802
C          111.29461703544574      112.27917169005315      123.63211557234905
C          110.06882796598174      113.19087219815604      123.64694279467167
C          110.43183567655375      114.67400781530813      123.64093841162970
C          109.23557420410319      115.58450344875229      123.36144762657962
C          108.13236381504548      115.49426435021842      124.41372395623732
C          107.05979955712789      116.56261246564323      124.20517725295775
C          105.89433128475461      116.45893302340278      125.19124878303488
C          104.96447742715793      115.28034188549383      124.90973073093724
C          103.77350779750894      115.25281791252097      125.86480683954382
C          102.83388208881792      114.08361539093461      125.57957643598981
C          101.67313564937331      114.02278515500393      126.56986824805986
C          100.73915819994272      112.84617384642438      126.29304964885419
C           99.67027089667214      112.69776662707952      127.37447816990296
C           98.64855666822612      111.59646272616700      127.08261240609602
C           99.27905122591224      110.20908852462848      126.98903189017562
C           98.24647145191484      109.08593665992186      126.89129212154673
C           98.91645876741340      107.76606713544572      126.51510655847210
C           97.94684108684714      106.59053074384978      126.39477842552455
C           98.61357451081791      105.42362170289206      125.66717778318254
C           97.77428038760451      104.14855978517367      125.59794084803794
C           96.39983630035248      104.34817192626967      124.95498769653661
C           95.86010926895757      103.06356577300564      124.31659778154066
C           96.39307850811484      102.86368318712542      122.89818744162862
C           95.95228852022710      101.53384806437737      122.28680330880248
C           96.08165802914857      101.50675144812938      120.76285138802548
C           97.51466759286095      101.68293927309038      120.26462753202841
C           97.64690243359716      101.56613768191998      118.74348079225211
C           96.85577230055208      102.64599602750505      118.00686481380031
C           97.15372456594616      102.73678360682489      116.50930546390441
C           98.55265678291921      103.24190922962225      116.14863232434676
C           98.95709812476849      104.55803250995785      116.81329109740072
C           97.98758662407583      105.71153061825895      116.56127928210486
C           98.53383573165307      107.01092745935262      117.14598070137635
C           97.58173599922631      108.19425208442983      116.99434139936815
C           98.08887044337528      109.44499640002290      117.71487400243446
C           99.31815209390798      110.05994445297610      117.05229380911098
C           99.87447040750752      111.24408201222955      117.83755611130329
C          101.10796838931259      111.84415576426866      117.16556174752508
C          101.68385451547697      113.00170648679929      117.97530623520255
C          102.81613338730057      113.74672826584938      117.26958271822861
C          104.10342964266634      112.94230942276874      117.11749707407600
C          105.23227129112406      113.80001981409885      116.54904055231755
C          106.44247108038941      112.96326556559291      116.14330867484290
C          107.61811146915208      113.82834652060438      115.69102494436896
C          108.63700112031768      113.02420294728483      114.88361179589370
C          109.98867260130527      113.72205498957528      114.72930500454679
C          109.89087525357152      115.11873630496423      114.12388325024661
C          111.24403551574662      115.81493631541689      113.97017518110492
C          112.08749386018376      115.33800122731029      112.78942755574603
C          113.35701116112732      116.17869180531184      112.66019908262463
C          114.19383074303033      115.83155141537577      111.43194847393191
C          115.45595501065281      116.68824315149104      111.34626352299870
C          116.31304244331268      116.34654372268321      110.13003914368295
C          117.59380234066400      117.17636181758776      110.06892924812627
C          118.47174517515691      116.80439250627977      108.87515600100993
C          119.78553236019960      117.58401270258888      108.85539996486673
C          120.71285730113291      117.13936258449091      107.72432485198004
C          122.06086068935851      117.85787720834310      107.78367302092539
C          123.10348158608950      117.30231181243879      106.81059269495626
C          122.78806840032136      117.59456152576341      105.34573855510492
C          123.92447035210392      117.21790084088916      104.39289985816046
C          124.15473341182944      115.71146646781035      104.29058535886493
C          125.25347567478268      115.36018150695413      103.28881930497921
C          125.48847900221701      113.85279531447286      103.20398663262867
C          126.59267412951417      113.48681748762718      102.21410156501030
C          126.73740589550114      111.97297964985125      102.06469958450971
C          127.88727640630624      111.54780148102557      101.14823592517392
C          127.75754543453667      111.99419441558561       99.69003814275469
C          126.54477469131416      111.40697761617432       98.97092540208808
C          126.43875478890443      111.90861141624517       97.53163177127705
C          125.11732001266878      111.51198150475437       96.87344340570654
C          124.84922188899256      112.30873766738701       95.59792158129119
C          123.44801103132882      112.06363808768712       95.04014979497875
C          123.14778576540290      112.98020518632593       93.85533287666635
C          121.76505155781761      112.76749727509751       93.23632475013929
C          120.61992159121347      113.13770929924969       94.17743231041409
C          119.25023742040929      113.10971358503336       93.49587522909563
C          119.00415730442879      114.29759396089283       92.57446451609850
H          119.15224515282867      112.18391009776468       92.92469952218427
H          118.47529688577789      113.10575348112725       94.26653212521167
H          120.60428061337061      112.43708202844847       95.01498051879257
H          120.79785069723830      114.13534545700531       94.58259827360698
H          121.69966499360608      113.38112052327088       92.33552757888397
H          121.65961190500765      111.72374627263410       92.93019680198070
H          123.23512304423645      114.02061553838699       94.18021885635633
H          123.90529630889083      112.81453266799899       93.08493389823869
H          123.35400143298131      111.02002062104033       94.73106661207935
H          122.71836314828856      112.24095251733867       95.83268541366321
H          124.95574037041403      113.37400115086942       95.82030170070641
H          125.59535582677955      112.05651916307127       94.84112242237536
H          125.11488554947786      110.44269365035076       96.65112746626617
H          124.30529615853763      111.69939284479355       97.57864701255426
H          126.51191556581711      112.99910068865081       97.53623829879577
H          127.27724757739688      111.53033933855572       96.94278742657410
H          126.60402657936478      110.31691053492524       98.98142744632200
H          125.63579327944696      111.69405052116248       99.50169523587081
H          127.70913608811505      113.08423288652453       99.64692451863334
H          128.66318136633660      111.69206039403768       99.15747414650852
H          128.82029429293820      111.95217638002096      101.54976202415183
H          127.96567462972715      110.45816299231646      101.17343025445909
H          126.91449898787150      111.54075363546234      103.05367555823440
H          125.79886821475050      111.55349535734054      101.69748113080124
H          126.35675709662505      113.93360076606962      101.24755141380734
H          127.54044605264916      113.91039353535686      102.55408025459997
H          125.75172092010526      113.46930824652343      104.19362562380735
H          124.55969043110801      113.36541539005944      102.89845702359645
H          124.97795532245314      115.73683211037813      102.30083172535402
H          126.18044358754359      115.85833053342135      103.58083867547059
H          124.43461733643058      115.31930825664233      105.26985234697570
H          123.22254407458617      115.22520219716169      103.99184658254586
H          123.68730212207565      117.60423515199756      103.39806038671510
H          124.84685804276594      117.70355116756303      104.72029037364673
H          121.88931412383577      117.05016295693073      105.05303356344220
H          122.58765134296385      118.66341213237678      105.23706462027121
H          124.07390206120057      117.74291102604074      107.05367153021862
H          123.18147541906288      116.22425705550644      106.95696496950526
H          121.91332553587458      118.92332571110576      107.59055071905924
H          122.45603370014160      117.76472171243222      108.79949604120203
H          120.88045181017165      116.06213331268621      107.80171050460144
H          120.22817388509608      117.33119205337474      106.76532644406898
H          119.57640648078356      118.65131136911037      108.75410558877769
H          120.29661957125538      117.44229337971599      109.81174223024153
H          118.69472581727216      115.73547624415355      108.91842917171404
H          117.92352360823460      116.98896056589948      107.94865519987538
H          117.33665043752730      118.23668580917044      110.01687273910373
H          118.16144649996929      117.02719471122121      110.99111448846655
H          116.57613604073271      115.28670158327057      110.16818039560454
H          115.73179913305367      116.51408306898962      109.22105978152699
H          115.17302955239487      117.74240611724555      111.30583150083642
H          116.04854714978194      116.54682385234017      112.25392332654270
H          114.47301745161566      114.77588103155421      111.46548712844107
H          113.59381882298653      115.99022365971969      110.53344832774197
H          113.07826741718929      117.23340462719830      112.60985654411873
H          113.96537747841936      116.04613736214233      113.55850804346997
H          112.35360235679433      114.28621586651185      112.90955860937758
H          111.50260718899825      115.42935793985509      111.87097942674774
H          111.06521859670771      116.88423740090880      113.84452365708118
H          111.81407330058855      115.68962978018128      114.89351526395009
H          109.39930682760736      115.05585904127244      113.15000512086358
H          109.27034063813132      115.73913022840603      114.77317938358813
H          110.46246349675680      113.79393878093447      115.71173213140858
H          110.62257006819905      113.09973417059076      114.09698048181903
H          108.80494148199895      112.06450662581761      115.37951352453543
H          108.22049151264508      112.81447919699085      113.89517422743489
H          107.23842467896719      114.65034726748516      115.08035249697964
H          108.10315871337154      114.26564181318254      116.56699487041961
H          106.75095823742119      112.33615400937462      116.98237597508566
H          106.15485862491266      112.29472930529391      115.32763697115132
H          104.86581210638047      114.34282036783655      115.67378027103625
H          105.53685362252109      114.54049911440244      117.29252764559710
H          104.40848102103314      112.54609265617867      118.08754923955719
H          103.92526329368899      112.09607964967807      116.45204402439285
H          102.47957316415031      114.05014148006130      116.27609458104247
H          103.03438581529335      114.65563889056041      117.83804265293499
H          100.88035469490504      113.71261412777962      118.18429460468199
H          102.04131200155874      112.62335875958837      118.93602856683607
H          101.86456463165695      111.06714171062923      117.04310740033654
H          100.83372017787366      112.20402788553369      116.17043857678320
H           99.10457340862651      112.01355741487322      117.93478777291664
H          100.13648960234518      110.91470491707446      118.84557374549378
H          100.10007961589605      109.30410441197778      116.96717182866503
H           99.05277981323805      110.38621011840571      116.04341668809774
H           97.29098059509290      110.19180983196824      117.74373991704698
H           98.33513638497500      109.18492961975350      118.74728195893501
H           97.43030359711987      108.41691944041025      115.93561932574825
H           96.60940368418777      107.92130713177173      117.41077159771750
H           98.73671224345593      106.86092043973788      118.20878841901063
H           99.47941756911466      107.23930216213644      116.65126041620671
H           97.83393742114622      105.82930198937341      115.48785462002455
H           97.02080699123627      105.48971825542779      117.01600636531163
H           99.06044694501001      104.40635383354973      117.88926553721674
H           99.94385993174748      104.84065138706566      116.43516437843105
H           99.29193996449520      102.48141593810568      116.41010243539768
H           98.59190673458112      103.36781351697340      115.06317485135725
H           97.02510346934217      101.75043139027584      116.05554360492999
H           96.41512101804038      103.40036104240485      116.05310497247714
H           95.78967231871505      102.44440544237736      118.12409581898321
H           97.05825160773864      103.61142881835340      118.47163078584428
H           98.70469765084947      101.65000878827536      118.48474230960608
H           97.30369531005861      100.58041375244234      118.42092504662463
H           97.88861080696343      102.66078414059744      120.57572152474440
H           98.14554935368544      100.92290783619822      120.73427617836340
H           95.69528398559248      100.55194481955999      120.39638647322118
H           95.45294492193322      102.29817093409400      120.35044688015678
H           96.53316335506206      100.71805506964594      122.72072151689159
H           94.90303109189053      101.36096228838490      122.54092224894602
H           96.02319149977943      103.67800709414298      122.27125026815445
H           97.48262363085125      102.92185239448348      122.90938493361456
H           96.13000969498462      102.20695392438239      124.93837621364013
H           94.76915896164272      103.10770384600004      124.27504755106189
H           95.69799328647440      104.70515642608518      125.71045072322495
H           96.46768556066947      105.11835889748768      124.18351117176935
H           98.33538638976205      103.41353370183592      125.01754555524424
H           97.64594639359547      103.73952304246139      126.60244249356192
H           98.85546206698535      105.74003907194842      124.64907517171230
H           99.55632438667392      105.18877029921200      126.16854083836088
H           97.62085504899520      106.27276170310992      127.38710432220304
H           97.06053643434970      106.90846421365988      125.84219482196117
H           99.42009201692734      107.89967968281023      125.55473435909501
H           99.68253791796759      107.52638838867108      127.25562686349345
H           97.72172206920291      108.98154716550513      127.84319387675487
H           97.50493978203534      109.34169677998412      126.13074526856205
H           99.91629082895240      110.17010326591249      126.10344002549608
H           99.91378311754467      110.04029667654530      127.86248010393342
H           97.90085458574585      111.59487844394741      127.87950663945522
H           98.13244034968135      111.81963440813107      126.14560265811662
H          100.15657116908457      112.48717278656058      128.33029599719779
H           99.13993588175254      113.64779025438997      127.47812276945346
H          100.25396881956593      112.99081353734664      125.32483492127569
H          101.33388580987948      111.93266979580213      126.23965918603450
H          102.07396794893506      113.93232595339695      127.58170402381879
H          101.10701378701221      114.95610774448168      126.52236363034942
H          102.44096947317475      114.17656516041937      124.56410806161765
H          103.39778381696784      113.14824202102082      125.62665531256535
H          104.13741413812510      115.18189793409721      126.89269236975760
H          103.21786942370603      116.18994476819012      125.77906949344320
H          104.59973693770813      115.34925059084551      123.88258784972142
H          105.51372894162915      114.34164066336932      125.00512066393868
H          106.28305162030910      116.37844931078655      126.20870758469670
H          105.30965783447324      117.38091023452185      125.13733388753731
H          107.52250960993413      117.54783999191164      124.30883138076261
H          106.67018936281134      116.49187163036106      123.18711276798696
H          107.67254754833894      114.50655825316305      124.36554775947359
H          108.57110864975203      115.61601862547890      125.40767722675874
H          109.59143220899625      116.61581781268895      123.31021855623447
H          108.81608402641736      115.33235634934030      122.38407276985983
H          110.87279970474462      114.94472004660676      124.60359460086086
H          111.18791936236542      114.85440404942777      122.87246077012013
H          109.45555095440623      112.96957414540580      122.77085007427436
H          109.47536207030379      112.96499823523766      124.53353519705605
H          111.94150647063776      112.51859967591845      124.47986193812221
H          111.86968372470506      112.45398789434863      122.71872944859544
H          110.16593261373076      110.60842054737084      122.90675738419569
H          110.38261437687872      110.63407020638593      124.65734467092959
H          112.82699281737722      110.14575913579897      124.31252659736128
H          112.50640381399853      109.92321008057189      122.59494740731186
H          111.21924177862402      108.35823790313574      124.87513911528109
H          112.59061010812512      107.79781162354504      123.92219896867211
H          109.79583768838923      108.31679996019692      122.81430745987255
H          110.47606414976148      106.75355678216094      123.25137237647023
H          112.37896709438465      107.31720705002438      121.57947043311943
H          111.30551273570340      108.58705811383491      120.98440336563557
H          110.85135052538604      106.78904768292749      119.55709091776555
H          109.52870228831092      106.71590919065289      120.71711595577862
H          110.71595817290100      104.90287614524335      121.95208940333349
H          112.08216129807496      105.04732354149692      120.85048969559298
H          110.55338889074272      104.47411879408692      118.94120454694372
H          109.25523748572388      104.20119729981859      120.09821411584180
H          110.57353225675925      102.37796166079137      121.15588014743922
H          111.91233336122670      102.70195731865826      120.05378929392438
H          110.38845224118393      102.22127344959237      118.11944483787792
H          109.11903560187706      101.77581340303857      119.26089813175730
H          110.51201826540832       99.92079753481347      120.11313873842126
H          111.82837031650206      100.39531047466649      119.03658692197359
H          110.37380956725633      100.01035993841636      117.06640168574174
H          109.03805941807929       99.56796399439551      118.12810262436041
H          110.35220576675731       97.62233621229961      118.96323447831166
H          111.67338510771626       98.05244667302537      117.87714798014294
H          110.14985894446885       97.80971326182565      115.92887159628437
H          108.82500741140407       97.38391348447661      117.00997046126042
H          110.27690198476505       95.42960060111346      117.81841236825420
H          111.35850855274775       95.78210274114149      116.47879296042963
H          108.42311193697918       94.96525605562022      116.35622897621084
H          109.81210219863395       93.99909752653352      115.86590145317170
H          108.80321201883778       96.53331881754075      114.49721114540822
H          108.58403680664995       94.88001555735262      113.93701521026675
H          111.04597109094806       94.62835157635267      113.68836080447538
H          111.26931200584158       96.28980151484618      114.23581593285587
H          109.91563609963556       97.11006214027587      112.32916871192575
H          109.73488832610798       95.45803233177811      111.73766622869418
H          112.19066513855665       95.24907276557745      111.51589467709886
H          112.40260143859736       96.87998649691917      112.13681581487315
H          110.95739242379157       96.13206087329469      109.55957619451544
H          112.61183835058287       96.72934098940331      109.66942327078191
H          110.09828732168280       98.27883802087571      110.42629172750921
H          111.05577050411165       98.47667701225600      108.96427172891424
H          113.02125156909418       99.15166705865833      110.35604247266515
H          112.01063218827980       99.05691314346973      111.79886778589002
H          110.48558480685413      100.77503104179983      110.85503316637680
H          111.49524662583777      100.87681945954756      109.41180046205399
H          113.40691786457016      101.63577038018839      110.75748475432795
H          112.47306496102985      101.45453142558776      112.24160378120281
H          110.91359362508453      103.20998511168756      111.52739979543989
H          111.73087666630448      103.35014022824430      109.97016493806869
H          113.81792876265069      104.03333181348708      111.11322949673149
H          113.01593393011213      103.91433318700662      112.67317318991087
H          112.14810190752740      105.75788488914753      110.40927321923816
H          113.23994288290939      106.25100185935845      111.69370010079649
H          110.31981946097730      105.43902345460204      111.99830074817410
H          110.99606872159237      107.06199420774924      112.10178697598299
H          111.42666983246926      104.76845293854556      114.04842357657240
H          110.48379949661960      106.22839412681282      114.31518304674813
H          112.59469214439379      107.58626373188214      114.03481137544986
H          113.50916445771122      106.08490647195171      113.97530468115845
H          111.88172676729509      107.17982605114565      116.29784222232628
H          113.63150077724505      106.98484615201914      116.19860980981508
H          111.53742224722694      104.77900673045175      116.36337347804205
H          112.65193967369090      105.27108912524484      117.63169091953385
H          114.57038284394636      104.47890364997504      116.28149666112249
H          113.48239608151228      104.05901692754193      114.96258092837026
H          112.26222346663010      102.50330971104137      116.55458806576063
H          113.56435051885906      102.75868085871805      117.71048696258538
H          115.20538453688744      101.89647656524707      116.04340195083586
H          113.90869289534790      101.72396873372139      114.86356888731436
H          112.77589533021380      100.08235509138980      116.38980552128372
H          114.11883049916032      100.24883314096185      117.51897536425578
H          114.59682033572683       98.27486923771838      116.31762144711939
H          115.65459583204952       99.49190096970064      115.60056360853346
H          113.94238950999633       99.80532307722670      113.76698479190730
H          113.01780258843965       98.47286622126680      114.45713823054530
H          115.91114438601744       98.25521041292448      113.51331390274549
H          114.51741012620427       97.88249753161007      112.50088063609883
H          113.81961580998910       96.13434329104184      114.16923847612738
H          115.30389012351681       96.44607556937633      115.07091319616332
H          115.16103714732056       95.49965957904384      112.17142090796882
H          116.64961476278405       95.82480618585471      113.06078372874376
H          115.59295182463961       94.50396456690605      113.56236015488251
H          119.73747966311809      114.33777067504228       91.77341326845233
H          118.01642406508573      114.22480420661476       92.12403776865742
H          119.05974713767853      115.22861186540490       93.13454680276760
C          124.72344006931722      115.36280706886576       98.79223228896247
C          123.41855362679543      114.57850907141648       98.85199251118203
C          123.26587616015729      113.85009972199418      100.18347370294602
C          121.98511195909748      113.02513541785871      100.30393268968335
C          121.97448802541979      111.75017532938617       99.46274340498699
C          120.80525526988438      110.84484414175313       99.84449991071628
C          120.75723316206147      109.56204940661092       99.01772807095543
C          119.69002102523118      108.60150528295216       99.53688752782590
C          119.56894556832920      107.34394490583016       98.68153807674538
C          118.54920980669976      106.35268852253760       99.23970708897009
C          118.34650929823016      105.17179886386052       98.29429570237890
C          117.49134526251856      104.04542337434391       98.87302255261984
C          116.05154606561081      104.44120568204784       99.19673230577351
C          115.20764661153848      103.20182991542848       99.48825075878362
C          113.78793643606231      103.53167431226566       99.93995621671498
C          112.96664374525055      102.26682180041050      100.18013569090697
C          111.58099096239442      102.56802842445988      100.74191216725688
C          110.73818298855277      101.30402139485759      100.89290646536537
C          109.37823611811946      101.59278798341292      101.52162362534354
C          108.56408517134145      100.31885731691607      101.73256749270519
C          107.16138016211626      100.58278339421469      102.27916255937900