      -----------------------------------------------------------      
     |                   =====================                   |     
     |                           x T B                           |     
     |                   =====================                   |     
     |                         S. Grimme                         |     
     |          Mulliken Center for Theoretical Chemistry        |     
     |                    University of Bonn                     |     
      -----------------------------------------------------------      

   * xtb version 6.6.1 (8d0f1dd) compiled by 'stahn@M-Bot' on 2023-08-01

   xtb is free software: you can redistribute it and/or modify it under
   the terms of the GNU Lesser General Public License as published by
   the Free Software Foundation, either version 3 of the License, or
   (at your option) any later version.
   
   xtb is distributed in the hope that it will be useful,
   but WITHOUT ANY WARRANTY; without even the implied warranty of
   MERCHANTABILITY or FITNESS FOR A PARTICULAR PURPOSE.  See the
   GNU Lesser General Public License for more details.
   
   Cite this work as:
   * C. Bannwarth, E. Caldeweyher, S. Ehlert, A. Hansen, P. Pracht,
     J. Seibert, S. Spicher, S. Grimme, WIREs Comput. Mol. Sci., 2020, 11,
     e01493. DOI: 10.1002/wcms.1493
   
   for GFN2-xTB:
   * C. Bannwarth, S. Ehlert and S. Grimme., J. Chem. Theory Comput., 2019,
     15, 1652-1671. DOI: 10.1021/acs.jctc.8b01176
   for GFN1-xTB:
   * S. Grimme, C. Bannwarth, P. Shushkov, J. Chem. Theory Comput., 2017,
     13, 1989-2009. DOI: 10.1021/acs.jctc.7b00118
   for GFN0-xTB:
   * P. Pracht, E. Caldeweyher, S. Ehlert, S. Grimme, ChemRxiv, 2019, preprint.
     DOI: 10.26434/chemrxiv.8326202.v1
   for GFN-FF:
   * S. Spicher and S. Grimme, Angew. Chem. Int. Ed., 2020, 59, 15665-15673.
     DOI: 10.1002/anie.202004239
   
   for ALPB and GBSA implicit solvation:
   * S. Ehlert, M. Stahn, S. Spicher, S. Grimme, J. Chem. Theory Comput.,
     2021, 17, 4250-4261. DOI: 10.1021/acs.jctc.1c00471
   
   for DFT-D4:
   * E. Caldeweyher, C. Bannwarth and S. Grimme, J. Chem. Phys., 2017,
     147, 034112. DOI: 10.1063/1.4993215
   * E. Caldeweyher, S. Ehlert, A. Hansen, H. Neugebauer, S. Spicher,
     C. Bannwarth and S. Grimme, J. Chem. Phys., 2019, 150, 154122.
     DOI: 10.1063/1.5090222
   * E. Caldeweyher, J.-M. Mewes, S. Ehlert and S. Grimme, Phys. Chem. Chem. Phys.
     2020, 22, 8499-8512. DOI: 10.1039/D0CP00502A
   
   for sTDA-xTB:
   * S. Grimme and C. Bannwarth, J. Chem. Phys., 2016, 145, 054103.
     DOI: 10.1063/1.4959605
   
   in the mass-spec context:
   * V. Asgeirsson, C. Bauer and S. Grimme, Chem. Sci., 2017, 8, 4879.
     DOI: 10.1039/c7sc00601b
   * J. Koopman and S. Grimme, ACS Omega 2019, 4, 12, 15120-15133.
     DOI: 10.1021/acsomega.9b02011
   
   for metadynamics refer to:
   * S. Grimme, J. Chem. Theory Comput., 2019, 155, 2847-2862
     DOI: 10.1021/acs.jctc.9b00143
   
   for SPH calculations refer to:
   * S. Spicher and S. Grimme, J. Chem. Theory Comput., 2021, 17, 1701-1714
     DOI: 10.1021/acs.jctc.0c01306
   
   with help from (in alphabetical order)
   P. Atkinson, C. Bannwarth, F. Bohle, G. Brandenburg, E. Caldeweyher
   M. Checinski, S. Dohm, S. Ehlert, S. Ehrlich, I. Gerasimov, C. Hölzer
   A. Katbashev, J. Koopman, C. Lavigne, S. Lehtola, F. März, M. Müller,
   F. Musil, H. Neugebauer, J. Pisarek, C. Plett, P. Pracht, F. Pultar,
   J. Seibert, P. Shushkov, S. Spicher, M. Stahn, M. Steiner, T. Strunk,
   J. Stückrath, T. Rose, and J. Unsleber
   
 * started run on 2024/10/04 at 08:01:45.189     

           -------------------------------------------------
          |                Calculation Setup                |
           -------------------------------------------------

          program call               : /home/abt-grimme/AK-bin/xtb input.xyz --input input.inp --opt
          hostname                   : boar091.thch.uni-bonn.de
          coordinate file            : input.xyz
          omp threads                :                     8

   ID    Z sym.   atoms
    1    6 C      1-120, 363-482, 725-844, 1087-1206, 1449-1568, 1811-1930,
                  2173-2292, 2535-2654, 2897-3016
    2    1 H      121-362, 483-724, 845-1086, 1207-1448, 1569-1810,
                  1931-2172, 2293-2534, 2655-2896, 3017-3258

molecular fragmentation (1/2 indicates fragments):
111111111111111111111111111111111111111111111111111111111111111111111111
111111111111111111111111111111111111111111111111111111111111111111111111
111111111111111111111111111111111111111111111111111111111111111111111111
111111111111111111111111111111111111111111111111111111111111111111111111
111111111111111111111111111111111111111111111111111111111111111111111111
112222222222222222222222222222222222222222222222222222222222222222222222
222222222222222222222222222222222222222222222222222222222222222222222222
222222222222222222222222222222222222222222222222222222222222222222222222
222222222222222222222222222222222222222222222222222222222222222222222222
222222222222222222222222222222222222222222222222222222222222222222222222
222222222222222222222222222222222222222222222222222222222222222222222222
222222222222222222222222222222222222222222222222222222222222222222222222
222222222222222222222222222222222222222222222222222222222222222222222222
222222222222222222222222222222222222222222222222222222222222222222222222
222222222222222222222222222222222222222222222222222222222222222222222222
222222222222222222222222222222222222222222222222222222222222222222222222
222222222222222222222222222222222222222222222222222222222222222222222222
222222222222222222222222222222222222222222222222222222222222222222222222
222222222222222222222222222222222222222222222222222222222222222222222222
222222222222222222222222222222222222222222222222222222222222222222222222
222222222222222222222222222222222222222222222222222222222222222222222222
222222222222222222222222222222222222222222222222222222222222222222222222
222222222222222222222222222222222222222222222222222222222222222222222222
222222222222222222222222222222222222222222222222222222222222222222222222
222222222222222222222222222222222222222222222222222222222222222222222222
222222222222222222222222222222222222222222222222222222222222222222222222
222222222222222222222222222222222222222222222222222222222222222222222222
222222222222222222222222222222222222222222222222222222222222222222222222
222222222222222222222222222222222222222222222222222222222222222222222222
222222222222222222222222222222222222222222222222222222222222222222222222
222222222222222222222222222222222222222222222222222222222222222222222222
222222222222222222222222222222222222222222222222222222222222222222222222
222222222222222222222222222222222222222222222222222222222222222222222222
222222222222222222222222222222222222222222222222222222222222222222222222
222222222222222222222222222222222222222222222222222222222222222222222222
222222222222222222222222222222222222222222222222222222222222222222222222
222222222222222222222222222222222222222222222222222222222222222222222222
222222222222222222222222222222222222222222222222222222222222222222222222
222222222222222222222222222222222222222222222222222222222222222222222222
222222222222222222222222222222222222222222222222222222222222222222222222
222222222222222222222222222222222222222222222222222222222222222222222222
222222222222222222222222222222222222222222222222222222222222222222222222
222222222222222222222222222222222222222222222222222222222222222222222222
222222222222222222222222222222222222222222222222222222222222222222222222
222222222222222222222222222222222222222222222222222222222222222222222222
222222222222222222
# atoms in fragment 1/2:   362  2896
 fragment masses (1/2) :     1685.21    13481.68
CMA distance (Bohr)    :  11.327
constraining FC (au)   :  0.0500

           -------------------------------------------------
          |                 G F N 2 - x T B                 |
           -------------------------------------------------

        Reference                      10.1021/acs.jctc.8b01176
      * Hamiltonian:
        H0-scaling (s, p, d)           1.850000    2.230000    2.230000
        zeta-weighting                 0.500000
      * Dispersion:
        s8                             2.700000
        a1                             0.520000
        a2                             5.000000
        s9                             5.000000
      * Repulsion:
        kExp                           1.500000    1.000000
        rExp                           1.000000
      * Coulomb:
        alpha                          2.000000
        third order                    shell-resolved
        anisotropic                    true
        a3                             3.000000
        a5                             4.000000
        cn-shift                       1.200000
        cn-exp                         4.000000
        max-rad                        5.000000


          ...................................................
          :                      SETUP                      :
          :.................................................:
          :  # basis functions                6498          :
          :  # atomic orbitals                6498          :
          :  # shells                         4338          :
          :  # electrons                      6498          :
          :  max. iterations                   250          :
          :  Hamiltonian                  GFN2-xTB          :
          :  restarted?                      false          :
          :  GBSA solvation                  false          :
          :  PC potential                    false          :
          :  electronic temp.          300.0000000     K    :
          :  accuracy                    1.0000000          :
          :  -> integral cutoff          0.2500000E+02      :
          :  -> integral neglect         0.1000000E-07      :
          :  -> SCF convergence          0.1000000E-05 Eh   :
          :  -> wf. convergence          0.1000000E-03 e    :
          :  Broyden damping             0.4000000          :
          ...................................................

 iter      E             dE          RMSdq      gap      omega  full diag
   1  -3473.3850408 -0.347339E+04  0.243E+00   11.41       0.0  T
   2  -3478.4984295 -0.511339E+01  0.134E+00   11.53       1.0  T
   3  -3478.7011752 -0.202746E+00  0.596E-01   11.51       1.0  T
   4  -3478.7216433 -0.204681E-01  0.755E-02   11.52       1.0  T
   5  -3478.7226102 -0.966917E-03  0.391E-02   11.53       1.0  T
   6  -3478.7228197 -0.209512E-03  0.619E-03   11.54       1.0  T
   7  -3478.7228351 -0.153833E-04  0.126E-03   11.54       1.4  T
   8  -3478.7228362 -0.107816E-05  0.387E-04   11.53       4.5  T
   9  -3478.7228363 -0.646082E-07  0.141E-04   11.53      12.4  T
  10  -3478.7228363 -0.375348E-08  0.416E-05   11.53      42.1  T

   *** convergence criteria satisfied after 10 iterations ***

         #    Occupation            Energy/Eh            Energy/eV
      -------------------------------------------------------------
         1        2.0000           -0.6247669             -17.0008
       ...           ...                  ...                  ...
      3243        2.0000           -0.4025720             -10.9545
      3244        2.0000           -0.4025087             -10.9528
      3245        2.0000           -0.4023883             -10.9495
      3246        2.0000           -0.4023075             -10.9473
      3247        2.0000           -0.4021848             -10.9440
      3248        2.0000           -0.4013696             -10.9218
      3249        2.0000           -0.4012557             -10.9187 (HOMO)
      3250                          0.0226378               0.6160 (LUMO)
      3251                          0.0245859               0.6690
      3252                          0.0255914               0.6964
      3253                          0.0259197               0.7053
      3254                          0.0265697               0.7230
       ...                                ...                  ...
      6498                          0.3828958              10.4191
      -------------------------------------------------------------
                  HL-Gap            0.4238935 Eh           11.5347 eV
             Fermi-level           -0.1893090 Eh           -5.1514 eV

 SCC (total)                   0 d,  0 h, 12 min, 50.516 sec
 SCC setup                      ...        0 min,  0.435 sec (  0.056%)
 Dispersion                     ...        0 min,  3.543 sec (  0.460%)
 classical contributions        ...        0 min,  0.138 sec (  0.018%)
 integral evaluation            ...        0 min,  5.984 sec (  0.777%)
 iterations                     ...        9 min,  1.644 sec ( 70.296%)
 molecular gradient             ...        3 min, 31.075 sec ( 27.394%)
 printout                       ...        0 min,  7.697 sec (  0.999%)

         :::::::::::::::::::::::::::::::::::::::::::::::::::::
         ::                     SUMMARY                     ::
         :::::::::::::::::::::::::::::::::::::::::::::::::::::
         :: total energy           -3427.482630741218 Eh    ::
         :: gradient norm              0.018398596316 Eh/a0 ::
         :: HOMO-LUMO gap             11.534728175477 eV    ::
         ::.................................................::
         :: SCC energy             -3478.722836267702 Eh    ::
         :: -> isotropic ES            0.421413261882 Eh    ::
         :: -> anisotropic ES          1.110345886088 Eh    ::
         :: -> anisotropic XC          1.946459629737 Eh    ::
         :: -> dispersion             -4.041561548148 Eh    ::
         :: repulsion energy          50.601313141172 Eh    ::
         :: add. restraining           0.000000000000 Eh    ::
         :: total charge              -0.000000000013 e     ::
         :::::::::::::::::::::::::::::::::::::::::::::::::::::

      ----------------------------------------------------------- 
     |              Fast Inertial Relaxation Engine              |
      ----------------------------------------------------------- 

          ...................................................
          :                      SETUP                      :
          :.................................................:
          :   energy convergence        0.5000000E-05 Eh    :
          :   grad. convergence         0.1000000E-02 Eh/a0 :
          :   optimization log               true           :
          :   writing optlog all                1     steps :
          :   Hessian reset                    20     steps :
          :   time step scaling                 5     steps :
          :   maximium step len.        1.0000000     a0    :
          :   initial time step         0.2500000     fs    :
          :   maximum time step         1.2500000     fs    :
          :   power reset thr           0.0000000     au    :
          :   alpha parameter           0.1000000           :
          :   BFGS update                   false           :
          :   preconditioning               false           :
          ...................................................

........................................................................
.............................. CYCLE    1 ..............................
........................................................................

 iter      E             dE          RMSdq      gap      omega  full diag
   1  -3478.7263944 -0.347873E+04  0.264E-04   11.53       0.0  T
   2  -3478.7263944 -0.278524E-07  0.151E-04   11.53      11.6  T
   3  -3478.7263944 -0.620730E-09  0.484E-05   11.53      36.2  T
     SCC iter.                  ...        2 min, 47.503 sec
     gradient                   ...        3 min, 28.769 sec
 * total energy  : -3427.4826688 Eh     change    :  -0.3807753E-04 Eh
   gradient norm :     0.0169405 Eh/a0  converged?    E=F G=F D=F
   time step     :     0.2500000 fs     power     :   0.1938352E-08
   step length   :     0.0021563 a0     speed     :   0.2086313E-03

........................................................................
.............................. CYCLE    2 ..............................
........................................................................

 iter      E             dE          RMSdq      gap      omega  full diag
   1  -3478.7315732 -0.347873E+04  0.382E-04   11.53       0.0  T
   2  -3478.7315732 -0.585487E-07  0.218E-04   11.53       8.0  T
   3  -3478.7315732 -0.126192E-08  0.701E-05   11.53      25.0  T
     SCC iter.                  ...        2 min, 44.454 sec
     gradient                   ...        3 min, 36.629 sec
 * total energy  : -3427.4827188 Eh     change    :  -0.5001395E-04 Eh
   gradient norm :     0.0148429 Eh/a0  converged?    E=F G=F D=F
   time step     :     0.2500000 fs     power     :   0.2477082E-08
   step length   :     0.0031488 a0     speed     :   0.3046611E-03

........................................................................
.............................. CYCLE    3 ..............................
........................................................................

 iter      E             dE          RMSdq      gap      omega  full diag
   1  -3478.7381450 -0.347874E+04  0.486E-04   11.53       0.0  T
   2  -3478.7381451 -0.941632E-07  0.278E-04   11.53       6.3  T
   3  -3478.7381451 -0.208865E-08  0.888E-05   11.53      19.7  T
     SCC iter.                  ...        2 min, 44.669 sec
     gradient                   ...        3 min, 28.747 sec
 * total energy  : -3427.4827730 Eh     change    :  -0.5421545E-04 Eh
   gradient norm :     0.0122249 Eh/a0  converged?    E=F G=F D=F
   time step     :     0.2500000 fs     power     :   0.2591813E-08
   step length   :     0.0040173 a0     speed     :   0.3886986E-03

........................................................................
.............................. CYCLE    4 ..............................
........................................................................

 iter      E             dE          RMSdq      gap      omega  full diag
   1  -3478.7458149 -0.347875E+04  0.571E-04   11.53       0.0  T
   2  -3478.7458151 -0.127705E-06  0.326E-04   11.53       5.4  T
   3  -3478.7458151 -0.292175E-08  0.103E-04   11.53      17.0  T
     SCC iter.                  ...        2 min, 47.884 sec
     gradient                   ...        3 min, 30.518 sec
 * total energy  : -3427.4828234 Eh     change    :  -0.5030249E-04 Eh
   gradient norm :     0.0092763 Eh/a0  converged?    E=F G=F D=F
   time step     :     0.2500000 fs     power     :   0.2278442E-08
   step length   :     0.0047288 a0     speed     :   0.4575374E-03

........................................................................
.............................. CYCLE    5 ..............................
........................................................................

 iter      E             dE          RMSdq      gap      omega  full diag
   1  -3478.7542178 -0.347875E+04  0.632E-04   11.53       0.0  T
   2  -3478.7542180 -0.152483E-06  0.361E-04   11.53       4.8  T
   3  -3478.7542180 -0.345563E-08  0.112E-04   11.53      15.6  T
     SCC iter.                  ...        2 min, 42.980 sec
     gradient                   ...        3 min, 29.938 sec
 * total energy  : -3427.4828626 Eh     change    :  -0.3927368E-04 Eh
   gradient norm :     0.0063448 Eh/a0  converged?    E=F G=F D=F
   time step     :     0.2500000 fs     power     :   0.1611400E-08
   step length   :     0.0052548 a0     speed     :   0.5084284E-03

........................................................................
.............................. CYCLE    6 ..............................
........................................................................

 iter      E             dE          RMSdq      gap      omega  full diag
   1  -3478.7637874 -0.347876E+04  0.735E-04   11.53       0.0  T
   2  -3478.7637876 -0.195803E-06  0.421E-04   11.53       4.2  T
   3  -3478.7637876 -0.456703E-08  0.126E-04   11.53      13.9  T
     SCC iter.                  ...        2 min, 43.528 sec
     gradient                   ...        3 min, 29.281 sec
 * total energy  : -3427.4828877 Eh     change    :  -0.2503808E-04 Eh
   gradient norm :     0.0042032 Eh/a0  converged?    E=F G=F D=F
   time step     :     0.2750000 fs     power     :   0.6475810E-09
   step length   :     0.0061529 a0     speed     :   0.5412061E-03

........................................................................
.............................. CYCLE    7 ..............................
........................................................................

 iter      E             dE          RMSdq      gap      omega  full diag
   1  -3478.7735251 -0.347877E+04  0.789E-04   11.53       0.0  T
   2  -3478.7735253 -0.198186E-06  0.454E-04   11.53       3.9  T
   3  -3478.7735253 -0.476120E-08  0.123E-04   11.53      14.2  T
     SCC iter.                  ...        2 min, 42.360 sec
     gradient                   ...        3 min, 28.629 sec
 * total energy  : -3427.4828931 Eh     change    :  -0.5398398E-05 Eh
   gradient norm :     0.0050543 Eh/a0  converged?    E=F G=F D=F
   time step     :     0.3025000 fs     power     :  -0.3045063E-09
   step length   :     0.0066912 a0     speed     :   0.5350529E-03

........................................................................
.............................. CYCLE    8 ..............................
........................................................................
 * reset velocities

 iter      E             dE          RMSdq      gap      omega  full diag
   1  -3478.7734069 -0.347877E+04  0.136E-05   11.53       0.0  T
   2  -3478.7734069 -0.211458E-09  0.719E-06   11.53     243.8  T
   3  -3478.7734069  0.404725E-10  0.328E-06   11.53     534.0  T
     SCC iter.                  ...        2 min, 47.464 sec
     gradient                   ...        3 min, 29.026 sec
 * total energy  : -3427.4828936 Eh     change    :  -0.5462562E-06 Eh
   gradient norm :     0.0049966 Eh/a0  converged?    E=T G=F D=T
   time step     :     0.1512500 fs     power     :   0.4752071E-10
   step length   :     0.0001084 a0     speed     :   0.1733717E-04

........................................................................
.............................. CYCLE    9 ..............................
........................................................................

 iter      E             dE          RMSdq      gap      omega  full diag
   1  -3478.7731721 -0.347877E+04  0.266E-05   11.53       0.0  T
   2  -3478.7731721 -0.125510E-09  0.156E-05   11.53     112.7  T
   3  -3478.7731721 -0.422915E-10  0.379E-06   11.53     462.0  T
     SCC iter.                  ...        2 min, 43.718 sec
     gradient                   ...        3 min, 28.021 sec
 * total energy  : -3427.4828947 Eh     change    :  -0.1064414E-05 Eh
   gradient norm :     0.0048876 Eh/a0  converged?    E=T G=F D=T
   time step     :     0.1512500 fs     power     :   0.9242565E-10
   step length   :     0.0002156 a0     speed     :   0.3447641E-04

........................................................................
.............................. CYCLE   10 ..............................
........................................................................

 iter      E             dE          RMSdq      gap      omega  full diag
   1  -3478.7728260 -0.347877E+04  0.391E-05   11.53       0.0  T
   2  -3478.7728260 -0.439741E-09  0.228E-05   11.53      76.7  T
   3  -3478.7728260 -0.118234E-10  0.558E-06   11.53     313.8  T
     SCC iter.                  ...        2 min, 44.587 sec
     gradient                   ...        3 min, 29.525 sec
 * total energy  : -3427.4828962 Eh     change    :  -0.1540431E-05 Eh
   gradient norm :     0.0047289 Eh/a0  converged?    E=T G=F D=T
   time step     :     0.1512500 fs     power     :   0.1328532E-09
   step length   :     0.0003204 a0     speed     :   0.5124008E-04

........................................................................
.............................. CYCLE   11 ..............................
........................................................................

 iter      E             dE          RMSdq      gap      omega  full diag
   1  -3478.7723763 -0.347877E+04  0.514E-05   11.53       0.0  T
   2  -3478.7723763 -0.697128E-09  0.300E-05   11.53      58.4  T
   3  -3478.7723763 -0.145519E-10  0.728E-06   11.53     240.6  T
     SCC iter.                  ...        2 min, 41.840 sec
     gradient                   ...        3 min, 29.927 sec
 * total energy  : -3427.4828982 Eh     change    :  -0.1950516E-05 Eh
   gradient norm :     0.0045252 Eh/a0  converged?    E=T G=F D=T
   time step     :     0.1512500 fs     power     :   0.1672052E-09
   step length   :     0.0004218 a0     speed     :   0.6745318E-04

........................................................................
.............................. CYCLE   12 ..............................
........................................................................

 iter      E             dE          RMSdq      gap      omega  full diag
   1  -3478.7718336 -0.347877E+04  0.629E-05   11.53       0.0  T
   2  -3478.7718336 -0.911768E-09  0.368E-05   11.53      47.7  T
   3  -3478.7718336 -0.113687E-10  0.881E-06   11.53     198.8  T
     SCC iter.                  ...        2 min, 44.334 sec
     gradient                   ...        3 min, 29.281 sec
 * total energy  : -3427.4829004 Eh     change    :  -0.2280472E-05 Eh
   gradient norm :     0.0042835 Eh/a0  converged?    E=T G=F D=T
   time step     :     0.1512500 fs     power     :   0.1942868E-09
   step length   :     0.0005187 a0     speed     :   0.8295192E-04

........................................................................
.............................. CYCLE   13 ..............................
........................................................................

 iter      E             dE          RMSdq      gap      omega  full diag
   1  -3478.7712113 -0.347877E+04  0.737E-05   11.53       0.0  T
   2  -3478.7712113 -0.126420E-08  0.431E-05   11.53      40.7  T
   3  -3478.7712113 -0.954969E-11  0.102E-05   11.53     172.5  T
     SCC iter.                  ...        2 min, 44.666 sec
     gradient                   ...        3 min, 28.898 sec
 * total energy  : -3427.4829030 Eh     change    :  -0.2528890E-05 Eh
   gradient norm :     0.0040131 Eh/a0  converged?    E=T G=F D=T
   time step     :     0.1512500 fs     power     :   0.2134030E-09
   step length   :     0.0006102 a0     speed     :   0.9758775E-04

........................................................................
.............................. CYCLE   14 ..............................
........................................................................

 iter      E             dE          RMSdq      gap      omega  full diag
   1  -3478.7704495 -0.347877E+04  0.929E-05   11.53       0.0  T
   2  -3478.7704495 -0.199998E-08  0.543E-05   11.53      32.3  T
   3  -3478.7704495 -0.327418E-10  0.126E-05   11.53     139.5  T
     SCC iter.                  ...        2 min, 45.100 sec
     gradient                   ...        3 min, 29.693 sec
 * total energy  : -3427.4829059 Eh     change    :  -0.2959353E-05 Eh
   gradient norm :     0.0036942 Eh/a0  converged?    E=T G=F D=T
   time step     :     0.1663750 fs     power     :   0.2250114E-09
   step length   :     0.0007745 a0     speed     :   0.1126003E-03

........................................................................
.............................. CYCLE   15 ..............................
........................................................................

 iter      E             dE          RMSdq      gap      omega  full diag
   1  -3478.7695476 -0.347877E+04  0.115E-04   11.53       0.0  T
   2  -3478.7695476 -0.285536E-08  0.672E-05   11.53      26.1  T
   3  -3478.7695476 -0.436557E-10  0.150E-05   11.53     116.5  T
     SCC iter.                  ...        2 min, 45.529 sec
     gradient                   ...        3 min, 29.493 sec
 * total energy  : -3427.4829093 Eh     change    :  -0.3331471E-05 Eh
   gradient norm :     0.0033402 Eh/a0  converged?    E=T G=F D=T
   time step     :     0.1830125 fs     power     :   0.2270117E-09
   step length   :     0.0009657 a0     speed     :   0.1276403E-03

........................................................................
.............................. CYCLE   16 ..............................
........................................................................

 iter      E             dE          RMSdq      gap      omega  full diag
   1  -3478.7685245 -0.347877E+04  0.139E-04   11.53       0.0  T
   2  -3478.7685245 -0.385762E-08  0.814E-05   11.53      21.5  T
   3  -3478.7685245 -0.923137E-10  0.174E-05   11.53     100.8  T
     SCC iter.                  ...        2 min, 43.379 sec
     gradient                   ...        3 min, 28.476 sec
 * total energy  : -3427.4829129 Eh     change    :  -0.3591896E-05 Eh
   gradient norm :     0.0029831 Eh/a0  converged?    E=T G=F D=F
   time step     :     0.2013138 fs     power     :   0.2183193E-09
   step length   :     0.0011837 a0     speed     :   0.1422316E-03

........................................................................
.............................. CYCLE   17 ..............................
........................................................................

 iter      E             dE          RMSdq      gap      omega  full diag
   1  -3478.7674314 -0.347877E+04  0.164E-04   11.53       0.0  T
   2  -3478.7674314 -0.486489E-08  0.964E-05   11.53      18.2  T
   3  -3478.7674314 -0.103682E-09  0.192E-05   11.53      91.4  T
     SCC iter.                  ...        2 min, 48.871 sec
     gradient                   ...        3 min, 28.573 sec
 * total energy  : -3427.4829165 Eh     change    :  -0.3692660E-05 Eh
   gradient norm :     0.0026798 Eh/a0  converged?    E=T G=F D=F
   time step     :     0.2214451 fs     power     :   0.2000398E-09
   step length   :     0.0014258 a0     speed     :   0.1557480E-03

........................................................................
.............................. CYCLE   18 ..............................
........................................................................

 iter      E             dE          RMSdq      gap      omega  full diag
   1  -3478.7663686 -0.347877E+04  0.189E-04   11.53       0.0  T
   2  -3478.7663686 -0.550290E-08  0.111E-04   11.53      15.8  T
   3  -3478.7663686 -0.682121E-10  0.198E-05   11.53      88.5  T
     SCC iter.                  ...        2 min, 46.398 sec
     gradient                   ...        3 min, 29.203 sec
 * total energy  : -3427.4829202 Eh     change    :  -0.3685626E-05 Eh
   gradient norm :     0.0025012 Eh/a0  converged?    E=T G=F D=F
   time step     :     0.2435896 fs     power     :   0.1766723E-09
   step length   :     0.0016860 a0     speed     :   0.1674197E-03

........................................................................
.............................. CYCLE   19 ..............................
........................................................................

 iter      E             dE          RMSdq      gap      omega  full diag
   1  -3478.7654944 -0.347877E+04  0.211E-04   11.53       0.0  T
   2  -3478.7654944 -0.520049E-08  0.125E-04   11.53      14.1  T
   3  -3478.7654944 -0.179625E-09  0.188E-05   11.53      93.2  T
     SCC iter.                  ...        2 min, 45.950 sec
     gradient                   ...        3 min, 29.195 sec
 * total energy  : -3427.4829239 Eh     change    :  -0.3624452E-05 Eh
   gradient norm :     0.0024776 Eh/a0  converged?    E=T G=F D=F
   time step     :     0.2679486 fs     power     :   0.1559828E-09
   step length   :     0.0019558 a0     speed     :   0.1765568E-03

........................................................................
.............................. CYCLE   20 ..............................
........................................................................

 iter      E             dE          RMSdq      gap      omega  full diag
   1  -3478.7650088 -0.347877E+04  0.231E-04   11.53       0.0  T
   2  -3478.7650088 -0.415503E-08  0.136E-04   11.53      12.8  T
   3  -3478.7650088 -0.623004E-10  0.166E-05   11.53     105.4  T
     SCC iter.                  ...        2 min, 43.815 sec
     gradient                   ...        3 min, 28.118 sec
 * total energy  : -3427.4829275 Eh     change    :  -0.3687498E-05 Eh
   gradient norm :     0.0025432 Eh/a0  converged?    E=T G=F D=F
   time step     :     0.2947435 fs     power     :   0.1455952E-09
   step length   :     0.0022329 a0     speed     :   0.1832476E-03
 * RMSD in coord.:     0.0005679 a0     energy gain  -0.2968035E-03 Eh

........................................................................
.............................. CYCLE   21 ..............................
........................................................................

 iter      E             dE          RMSdq      gap      omega  full diag
   1  -3478.7650572 -0.347877E+04  0.190E-04   11.53       0.0  T
   2  -3478.7650572 -0.168802E-08  0.112E-04   11.53      15.6  T
   3  -3478.7650572 -0.482032E-10  0.114E-05   11.53     154.2  T
     SCC iter.                  ...        2 min, 48.548 sec
     gradient                   ...        3 min, 30.144 sec
 * total energy  : -3427.4829306 Eh     change    :  -0.3082291E-05 Eh
   gradient norm :     0.0025610 Eh/a0  converged?    E=T G=F D=F
   time step     :     0.2500000 fs     power     :   0.1504576E-09
   step length   :     0.0019175 a0     speed     :   0.1855330E-03

........................................................................
.............................. CYCLE   22 ..............................
........................................................................

 iter      E             dE          RMSdq      gap      omega  full diag
   1  -3478.7655627 -0.347877E+04  0.187E-04   11.53       0.0  T
   2  -3478.7655627 -0.142563E-08  0.110E-04   11.53      16.0  T
   3  -3478.7655627 -0.145519E-10  0.112E-05   11.53     157.0  T
     SCC iter.                  ...        2 min, 49.702 sec
     gradient                   ...        3 min, 29.377 sec
 * total energy  : -3427.4829338 Eh     change    :  -0.3215977E-05 Eh
   gradient norm :     0.0024738 Eh/a0  converged?    E=T G=F D=F
   time step     :     0.2500000 fs     power     :   0.1595232E-09
   step length   :     0.0019433 a0     speed     :   0.1880204E-03

........................................................................
.............................. CYCLE   23 ..............................
........................................................................

 iter      E             dE          RMSdq      gap      omega  full diag
   1  -3478.7664866 -0.347877E+04  0.186E-04   11.53       0.0  T
   2  -3478.7664866 -0.185082E-08  0.109E-04   11.53      16.1  T
   3  -3478.7664866 -0.341061E-10  0.121E-05   11.53     144.7  T
     SCC iter.                  ...        2 min, 43.154 sec
     gradient                   ...        3 min, 29.758 sec
 * total energy  : -3427.4829372 Eh     change    :  -0.3311599E-05 Eh
   gradient norm :     0.0022665 Eh/a0  converged?    E=T G=F D=F
   time step     :     0.2500000 fs     power     :   0.1649213E-09
   step length   :     0.0019788 a0     speed     :   0.1914642E-03

........................................................................
.............................. CYCLE   24 ..............................
........................................................................

 iter      E             dE          RMSdq      gap      omega  full diag
   1  -3478.7677622 -0.347877E+04  0.189E-04   11.53       0.0  T
   2  -3478.7677622 -0.257523E-08  0.110E-04   11.53      16.0  T
   3  -3478.7677622 -0.105047E-09  0.138E-05   11.53     126.9  T
     SCC iter.                  ...        2 min, 43.634 sec
     gradient                   ...        3 min, 32.078 sec
 * total energy  : -3427.4829404 Eh     change    :  -0.3286772E-05 Eh
   gradient norm :     0.0019603 Eh/a0  converged?    E=T G=F D=F
   time step     :     0.2500000 fs     power     :   0.1606666E-09
   step length   :     0.0020242 a0     speed     :   0.1958485E-03

........................................................................
.............................. CYCLE   25 ..............................
........................................................................

 iter      E             dE          RMSdq      gap      omega  full diag
   1  -3478.7692958 -0.347877E+04  0.192E-04   11.53       0.0  T
   2  -3478.7692958 -0.357068E-08  0.110E-04   11.53      15.9  T
   3  -3478.7692958 -0.309228E-10  0.157E-05   11.53     111.3  T
     SCC iter.                  ...        2 min, 45.976 sec
     gradient                   ...        3 min, 29.217 sec
 * total energy  : -3427.4829435 Eh     change    :  -0.3032814E-05 Eh
   gradient norm :     0.0016150 Eh/a0  converged?    E=T G=F D=F
   time step     :     0.2500000 fs     power     :   0.1445137E-09
   step length   :     0.0020740 a0     speed     :   0.2006670E-03

........................................................................
.............................. CYCLE   26 ..............................
........................................................................

 iter      E             dE          RMSdq      gap      omega  full diag
   1  -3478.7711323 -0.347877E+04  0.211E-04   11.53       0.0  T
   2  -3478.7711323 -0.524233E-08  0.121E-04   11.53      14.4  T
   3  -3478.7711323 -0.177351E-09  0.190E-05   11.53      92.4  T
     SCC iter.                  ...        2 min, 43.910 sec
     gradient                   ...        3 min, 28.656 sec
 * total energy  : -3427.4829463 Eh     change    :  -0.2821612E-05 Eh
   gradient norm :     0.0013241 Eh/a0  converged?    E=T G=F D=F
   time step     :     0.2750000 fs     power     :   0.1158990E-09
   step length   :     0.0023403 a0     speed     :   0.2058493E-03

........................................................................
.............................. CYCLE   27 ..............................
........................................................................

 iter      E             dE          RMSdq      gap      omega  full diag
   1  -3478.7730613 -0.347877E+04  0.224E-04   11.53       0.0  T
   2  -3478.7730613 -0.600539E-08  0.129E-04   11.53      13.6  T
   3  -3478.7730613 -0.175532E-09  0.200E-05   11.53      87.8  T
     SCC iter.                  ...        2 min, 43.648 sec
     gradient                   ...        3 min, 31.008 sec
 * total energy  : -3427.4829487 Eh     change    :  -0.2382020E-05 Eh
   gradient norm :     0.0012957 Eh/a0  converged?    E=T G=F D=F
   time step     :     0.3025000 fs     power     :   0.8329397E-10
   step length   :     0.0026154 a0     speed     :   0.2091375E-03

........................................................................
.............................. CYCLE   28 ..............................
........................................................................

 iter      E             dE          RMSdq      gap      omega  full diag
   1  -3478.7747209 -0.347877E+04  0.222E-04   11.53       0.0  T
   2  -3478.7747209 -0.460523E-08  0.128E-04   11.53      13.7  T
   3  -3478.7747209 -0.154614E-09  0.170E-05   11.53     103.0  T
     SCC iter.                  ...        2 min, 44.619 sec
     gradient                   ...        3 min, 29.584 sec
 * total energy  : -3427.4829507 Eh     change    :  -0.2004398E-05 Eh
   gradient norm :     0.0015097 Eh/a0  converged?    E=T G=F D=F
   time step     :     0.3327500 fs     power     :   0.6267903E-10
   step length   :     0.0028493 a0     speed     :   0.2071278E-03

........................................................................
.............................. CYCLE   29 ..............................
........................................................................

 iter      E             dE          RMSdq      gap      omega  full diag
   1  -3478.7757898 -0.347878E+04  0.210E-04   11.53       0.0  T
   2  -3478.7757898 -0.223145E-08  0.121E-04   11.53      14.4  T
   3  -3478.7757898 -0.141426E-09  0.120E-05   11.53     146.2  T
     SCC iter.                  ...        2 min, 44.226 sec
     gradient                   ...        3 min, 29.848 sec
 * total energy  : -3427.4829527 Eh     change    :  -0.2021826E-05 Eh
   gradient norm :     0.0016990 Eh/a0  converged?    E=T G=F D=F
   time step     :     0.3660250 fs     power     :   0.6145009E-10
   step length   :     0.0030454 a0     speed     :   0.2012578E-03

........................................................................
.............................. CYCLE   30 ..............................
........................................................................

 iter      E             dE          RMSdq      gap      omega  full diag
   1  -3478.7760638 -0.347878E+04  0.198E-04   11.53       0.0  T
   2  -3478.7760638 -0.115551E-08  0.116E-04   11.53      15.1  T
   3  -3478.7760638 -0.154159E-09  0.955E-06   11.53     183.4  T
     SCC iter.                  ...        2 min, 42.956 sec
     gradient                   ...        3 min, 29.690 sec
 * total energy  : -3427.4829551 Eh     change    :  -0.2424628E-05 Eh
   gradient norm :     0.0016893 Eh/a0  converged?    E=T G=F D=F
   time step     :     0.4026275 fs     power     :   0.7183045E-10
   step length   :     0.0032645 a0     speed     :   0.1961238E-03

........................................................................
.............................. CYCLE   31 ..............................
........................................................................

 iter      E             dE          RMSdq      gap      omega  full diag
   1  -3478.7754671 -0.347878E+04  0.198E-04   11.53       0.0  T
   2  -3478.7754671 -0.281398E-08  0.116E-04   11.53      15.1  T
   3  -3478.7754671 -0.134150E-09  0.122E-05   11.53     143.5  T
     SCC iter.                  ...        2 min, 42.086 sec
     gradient                   ...        3 min, 29.909 sec
 * total energy  : -3427.4829581 Eh     change    :  -0.2946558E-05 Eh
   gradient norm :     0.0014643 Eh/a0  converged?    E=T G=F D=F
   time step     :     0.4428903 fs     power     :   0.7834757E-10
   step length   :     0.0035580 a0     speed     :   0.1943241E-03

........................................................................
.............................. CYCLE   32 ..............................
........................................................................

 iter      E             dE          RMSdq      gap      omega  full diag
   1  -3478.7741434 -0.347877E+04  0.205E-04   11.53       0.0  T
   2  -3478.7741434 -0.604359E-08  0.121E-04   11.53      14.4  T
   3  -3478.7741434 -0.171440E-09  0.188E-05   11.53      93.3  T
     SCC iter.                  ...        2 min, 42.567 sec
     gradient                   ...        3 min, 30.163 sec
 * total energy  : -3427.4829612 Eh     change    :  -0.3093865E-05 Eh
   gradient norm :     0.0012349 Eh/a0  converged?    E=T G=F D=F
   time step     :     0.4871793 fs     power     :   0.7041558E-10
   step length   :     0.0039399 a0     speed     :   0.1956176E-03

........................................................................
.............................. CYCLE   33 ..............................
........................................................................

 iter      E             dE          RMSdq      gap      omega  full diag
   1  -3478.7726515 -0.347877E+04  0.202E-04   11.53       0.0  T
   2  -3478.7726515 -0.694490E-08  0.120E-04   11.53      14.6  T
   3  -3478.7726515 -0.271484E-09  0.206E-05   11.53      85.1  T
     SCC iter.                  ...        2 min, 45.917 sec
     gradient                   ...        3 min, 28.288 sec
 * total energy  : -3427.4829641 Eh     change    :  -0.2898173E-05 Eh
   gradient norm :     0.0013382 Eh/a0  converged?    E=T G=F D=F
   time step     :     0.5358972 fs     power     :   0.5762622E-10
   step length   :     0.0043660 a0     speed     :   0.1970702E-03

........................................................................
.............................. CYCLE   34 ..............................
........................................................................

 iter      E             dE          RMSdq      gap      omega  full diag
   1  -3478.7718621 -0.347877E+04  0.187E-04   11.53       0.0  T
   2  -3478.7718621 -0.297177E-08  0.111E-04   11.53      15.8  T
   3  -3478.7718621 -0.109139E-09  0.111E-05   11.53     158.5  T
     SCC iter.                  ...        2 min, 48.572 sec
     gradient                   ...        3 min, 30.497 sec
 * total energy  : -3427.4829672 Eh     change    :  -0.3139162E-05 Eh
   gradient norm :     0.0015345 Eh/a0  converged?    E=T G=F D=F
   time step     :     0.5894869 fs     power     :   0.6132338E-10
   step length   :     0.0047782 a0     speed     :   0.1960675E-03

........................................................................
.............................. CYCLE   35 ..............................
........................................................................

 iter      E             dE          RMSdq      gap      omega  full diag
   1  -3478.7723935 -0.347877E+04  0.203E-04   11.53       0.0  T
   2  -3478.7723935 -0.108594E-08  0.119E-04   11.53      14.8  T
   3  -3478.7723935 -0.112777E-09  0.767E-06   11.53     228.4  T
     SCC iter.                  ...        2 min, 42.084 sec
     gradient                   ...        3 min, 29.536 sec
 * total energy  : -3427.4829713 Eh     change    :  -0.4065514E-05 Eh
   gradient norm :     0.0014202 Eh/a0  converged?    E=T G=F D=F
   time step     :     0.6484356 fs     power     :   0.7660169E-10
   step length   :     0.0052761 a0     speed     :   0.1968166E-03

........................................................................
.............................. CYCLE   36 ..............................
........................................................................

 iter      E             dE          RMSdq      gap      omega  full diag
   1  -3478.7743339 -0.347877E+04  0.260E-04   11.53       0.0  T
   2  -3478.7743339 -0.731552E-08  0.151E-04   11.53      11.6  T
   3  -3478.7743339 -0.141426E-09  0.219E-05   11.53      80.1  T
     SCC iter.                  ...        2 min, 43.378 sec
     gradient                   ...        3 min, 28.682 sec
 * total energy  : -3427.4829761 Eh     change    :  -0.4799772E-05 Eh
   gradient norm :     0.0010975 Eh/a0  converged?    E=T G=F D=F
   time step     :     0.7132792 fs     power     :   0.7662467E-10
   step length   :     0.0059710 a0     speed     :   0.2024903E-03

........................................................................
.............................. CYCLE   37 ..............................
........................................................................

 iter      E             dE          RMSdq      gap      omega  full diag
   1  -3478.7767288 -0.347878E+04  0.288E-04   11.53       0.0  T
   2  -3478.7767288 -0.116852E-07  0.167E-04   11.53      10.5  T
   3  -3478.7767288 -0.329692E-09  0.292E-05   11.53      60.0  T
     SCC iter.                  ...        2 min, 48.831 sec
     gradient                   ...        3 min, 30.895 sec
 * total energy  : -3427.4829807 Eh     change    :  -0.4612553E-05 Eh
   gradient norm :     0.0012137 Eh/a0  converged?    E=T G=F D=F
   time step     :     0.7846071 fs     power     :   0.6263276E-10
   step length   :     0.0068144 a0     speed     :   0.2100818E-03

........................................................................
.............................. CYCLE   38 ..............................
........................................................................

 iter      E             dE          RMSdq      gap      omega  full diag
   1  -3478.7777382 -0.347878E+04  0.259E-04   11.53       0.0  T
   2  -3478.7777382 -0.548880E-08  0.153E-04   11.53      11.5  T
   3  -3478.7777382 -0.291493E-09  0.215E-05   11.53      81.3  T
     SCC iter.                  ...        2 min, 44.861 sec
     gradient                   ...        3 min, 28.844 sec
 * total energy  : -3427.4829857 Eh     change    :  -0.5010224E-05 Eh
   gradient norm :     0.0012951 Eh/a0  converged?    E=F G=F D=F
   time step     :     0.8630678 fs     power     :   0.6837406E-10
   step length   :     0.0076292 a0     speed     :   0.2138204E-03

........................................................................
.............................. CYCLE   39 ..............................
........................................................................

 iter      E             dE          RMSdq      gap      omega  full diag
   1  -3478.7766546 -0.347878E+04  0.285E-04   11.53       0.0  T
   2  -3478.7766546 -0.910859E-08  0.166E-04   11.53      10.5  T
   3  -3478.7766546 -0.316959E-09  0.280E-05   11.53      62.5  T
     SCC iter.                  ...        2 min, 50.671 sec
     gradient                   ...        3 min, 30.450 sec
 * total energy  : -3427.4829917 Eh     change    :  -0.5976852E-05 Eh
   gradient norm :     0.0010228 Eh/a0  converged?    E=F G=F D=F
   time step     :     0.9493746 fs     power     :   0.7103149E-10
   step length   :     0.0086359 a0     speed     :   0.2200320E-03

........................................................................
.............................. CYCLE   40 ..............................
........................................................................

 iter      E             dE          RMSdq      gap      omega  full diag
   1  -3478.7751402 -0.347878E+04  0.308E-04   11.53       0.0  T
   2  -3478.7751402 -0.957016E-08  0.179E-04   11.53       9.8  T
   3  -3478.7751402 -0.327418E-09  0.251E-05   11.53      69.8  T
     SCC iter.                  ...        2 min, 50.240 sec
     gradient                   ...        3 min, 30.012 sec
 * total energy  : -3427.4829977 Eh     change    :  -0.5996312E-05 Eh
   gradient norm :     0.0012409 Eh/a0  converged?    E=F G=F D=F
   time step     :     1.0443120 fs     power     :   0.6255248E-10
   step length   :     0.0098702 a0     speed     :   0.2286171E-03

........................................................................
.............................. CYCLE   41 ..............................
........................................................................

 iter      E             dE          RMSdq      gap      omega  full diag
   1  -3478.7760736 -0.347878E+04  0.318E-04   11.53       0.0  T
   2  -3478.7760736 -0.481532E-08  0.186E-04   11.53       9.4  T
   3  -3478.7760736 -0.356067E-09  0.139E-05   11.53     126.5  T
     SCC iter.                  ...        2 min, 42.376 sec
     gradient                   ...        3 min, 28.682 sec
 * total energy  : -3427.4830050 Eh     change    :  -0.7315168E-05 Eh
   gradient norm :     0.0011025 Eh/a0  converged?    E=F G=F D=F
   time step     :     1.1487432 fs     power     :   0.7635835E-10
   step length   :     0.0111475 a0     speed     :   0.2347301E-03

........................................................................
.............................. CYCLE   42 ..............................
........................................................................

 iter      E             dE          RMSdq      gap      omega  full diag
   1  -3478.7784403 -0.347878E+04  0.380E-04   11.54       0.0  T
   2  -3478.7784403 -0.170949E-07  0.222E-04   11.54       7.9  T
   3  -3478.7784403 -0.646196E-09  0.314E-05   11.54      55.8  T
     SCC iter.                  ...        2 min, 41.968 sec
     gradient                   ...        3 min, 29.627 sec
 * total energy  : -3427.4830131 Eh     change    :  -0.8096687E-05 Eh
   gradient norm :     0.0011604 Eh/a0  converged?    E=F G=F D=F
   time step     :     1.2500000 fs     power     :   0.7033712E-10
   step length   :     0.0127189 a0     speed     :   0.2461248E-03
 * RMSD in coord.:     0.0016459 a0     energy gain  -0.8553478E-04 Eh

........................................................................
.............................. CYCLE   43 ..............................
........................................................................

 iter      E             dE          RMSdq      gap      omega  full diag
   1  -3478.7784928 -0.347878E+04  0.600E-05   11.54       0.0  T
   2  -3478.7784928 -0.158707E-09  0.354E-05   11.54      49.5  T
   3  -3478.7784928 -0.591172E-11  0.210E-06   11.54     835.3  T
     SCC iter.                  ...        2 min, 45.298 sec
     gradient                   ...        3 min, 30.618 sec
 * total energy  : -3427.4830146 Eh     change    :  -0.1539822E-05 Eh
   gradient norm :     0.0011775 Eh/a0  converged?    E=T G=F D=F
   time step     :     0.2500000 fs     power     :   0.8052595E-10
   step length   :     0.0024511 a0     speed     :   0.2371589E-03

........................................................................
.............................. CYCLE   44 ..............................
........................................................................

 iter      E             dE          RMSdq      gap      omega  full diag
   1  -3478.7781639 -0.347878E+04  0.599E-05   11.54       0.0  T
   2  -3478.7781639 -0.334239E-09  0.350E-05   11.54      50.1  T
   3  -3478.7781639  0.331966E-10  0.448E-06   11.54     391.4  T
     SCC iter.                  ...        2 min, 45.853 sec
     gradient                   ...        3 min, 29.068 sec
 * total energy  : -3427.4830163 Eh     change    :  -0.1708436E-05 Eh
   gradient norm :     0.0010947 Eh/a0  converged?    E=T G=F D=F
   time step     :     0.2500000 fs     power     :   0.8880601E-10
   step length   :     0.0023861 a0     speed     :   0.2308708E-03

........................................................................
.............................. CYCLE   45 ..............................
........................................................................

 iter      E             dE          RMSdq      gap      omega  full diag
   1  -3478.7775399 -0.347878E+04  0.696E-05   11.54       0.0  T
   2  -3478.7775399 -0.757609E-09  0.405E-05   11.54      43.3  T
   3  -3478.7775399 -0.504770E-10  0.767E-06   11.54     228.3  T
     SCC iter.                  ...        2 min, 42.339 sec
     gradient                   ...        3 min, 29.508 sec
 * total energy  : -3427.4830181 Eh     change    :  -0.1759008E-05 Eh
   gradient norm :     0.0009619 Eh/a0  converged?    E=T G=T D=F
   time step     :     0.2500000 fs     power     :   0.9125732E-10
   step length   :     0.0023530 a0     speed     :   0.2276615E-03

   *** GEOMETRY OPTIMIZATION CONVERGED AFTER 45 CYCLES ***

------------------------------------------------------------------------
 total energy gain   :        -0.0003873 Eh       -0.2431 kcal/mol
 total RMSD          :         0.0019978 a0        0.0011 Å
 total power (kW/mol):        -0.0225995 (step)   -0.0001 (real)
------------------------------------------------------------------------

 FIRE (total)                  0 d,  4 h, 54 min, 21.834 sec
 setup                          ...        0 min,  0.116 sec (  0.001%)
 velocities                     ...        0 min,  0.003 sec (  0.000%)
 propagation                    ...        0 min,  0.005 sec (  0.000%)
 singlepoint calculation        ...      294 min, 20.969 sec ( 99.995%)
 log and printout               ...        0 min,  0.679 sec (  0.004%)
 preconditioner                 ...        0 min,  0.000 sec (  0.000%)
 model hessian                  ...        0 min,  0.000 sec (  0.000%)
 hessian update                 ...        0 min,  0.000 sec (  0.000%)

================
 final structure:
================
3258
 xtb: 6.6.1 (8d0f1dd)
C          115.61149080980866       95.51485587267776      113.16188194538429
C          114.85493610944722       96.47050753868984      114.07654265427881
C          114.87870613902049       97.89733284917021      113.53286863767579
C          114.02614352473938       98.87822892287666      114.33809434532719
C          114.61199276092509       99.18541548905995      115.71523642047062
C          113.84745901682908      100.28105046615168      116.46126934445026
C          114.14017966097066      101.68187173764045      115.93004528380256
C          113.32233710222532      102.75412466945629      116.64529853060715
C          113.55874395789567      104.14006607313429      116.04771416216509
C          112.54266715360239      105.16157900205692      116.54989310526395
C          112.67731154050328      106.54165757152342      115.90262612085830
C          112.60499718522134      106.54616800036843      114.37327996626519
C          111.37385376338952      105.83238511545774      113.81926811829322
C          111.19772836779450      106.00867871895557      112.31017141984962
C          112.40067587512854      105.59310642126717      111.45986534193331
C          112.85529299341216      104.14283466990047      111.61890567579944
C          111.88105011870556      103.12764007918828      111.02925925709117
C          112.40089356149142      101.70000761093449      111.17900503749370
C          111.50937474464727      100.67387857277470      110.48575172121689
C          111.99660736276212       99.24626776350267      110.72426829264803
C          111.11089386459332       98.21919737327084      110.02397643143797
C          111.62323442828951       96.78228974740456      110.13343813693191
C          111.73395330453745       96.24156912876668      111.55905264466406
C          110.39692635492773       96.13167940091212      112.28740458563460
C          110.58498195900177       95.61883742181874      113.71338767540780
C          109.26530329390289       95.54440041140376      114.47578796952028
C          109.41738087344740       95.01744648968788      115.90418374172501
C          110.32188716793505       95.85570660741325      116.81269853010690
C          109.90748765900499       97.32359577313321      116.87562061091874
C          110.58917866934532       98.09255562320111      118.00588097322030
C          110.12540094526906       99.54679573419445      118.02490659143206
C          110.74201845275269      100.37714439873302      119.14793812688025
C          110.20144460065156      101.80403015251169      119.11146566659822
C          110.82498853424225      102.72861716578052      120.15248190161194
C          110.33892969480921      104.16426851482233      119.96622168194537
C          110.99688524122021      105.14989367170627      120.92671029210004
C          110.60818534361873      106.59285570863230      120.60488416103833
C          111.33265080012279      107.61582170905636      121.48231583740092
C          110.72515181286342      107.74898796580010      122.87699533266944
C          111.67763955590912      108.39716060213733      123.88295854599562
C          112.06311174187516      109.84836853512816      123.58969608130955
C          110.88447397364104      110.81016312527704      123.70328357264802
C          111.29461703544574      112.27917169005315      123.63211557234905
C          110.06882796598174      113.19087219815604      123.64694279467167
C          110.43183567655375      114.67400781530813      123.64093841162970
C          109.23557420410319      115.58450344875229      123.36144762657962
C          108.13236381504548      115.49426435021842      124.41372395623732
C          107.05979955712789      116.56261246564323      124.20517725295775
C          105.89433128475461      116.45893302340278      125.19124878303488
C          104.96447742715793      115.28034188549383      124.90973073093724
C          103.77350779750894      115.25281791252097      125.86480683954382
C          102.83388208881792      114.08361539093461      125.57957643598981
C          101.67313564937331      114.02278515500393      126.56986824805986
C          100.73915819994272      112.84617384642438      126.29304964885419
C           99.67027089667214      112.69776662707952      127.37447816990296
C           98.64855666822612      111.59646272616700      127.08261240609602
C           99.27905122591224      110.20908852462848      126.98903189017562
C           98.24647145191484      109.08593665992186      126.89129212154673
C           98.91645876741340      107.76606713544572      126.51510655847210
C           97.94684108684714      106.59053074384978      126.39477842552455
C           98.61357451081791      105.42362170289206      125.66717778318254
C           97.77428038760451      104.14855978517367      125.59794084803794
C           96.39983630035248      104.34817192626967      124.95498769653661
C           95.86010926895757      103.06356577300564      124.31659778154066
C           96.39307850811484      102.86368318712542      122.89818744162862
C           95.95228852022710      101.53384806437737      122.28680330880248
C           96.08165802914857      101.50675144812938      120.76285138802548
C           97.51466759286095      101.68293927309038      120.26462753202841
C           97.64690243359716      101.56613768191998      118.74348079225211
C           96.85577230055208      102.64599602750505      118.00686481380031
C           97.15372456594616      102.73678360682489      116.50930546390441
C           98.55265678291921      103.24190922962225      116.14863232434676
C           98.95709812476849      104.55803250995785      116.81329109740072
C           97.98758662407583      105.71153061825895      116.56127928210486
C           98.53383573165307      107.01092745935262      117.14598070137635
C           97.58173599922631      108.19425208442983      116.99434139936815
C           98.08887044337528      109.44499640002290      117.71487400243446
C           99.31815209390798      110.05994445297610      117.05229380911098
C           99.87447040750752      111.24408201222955      117.83755611130329
C          101.10796838931259      111.84415576426866      117.16556174752508
C          101.68385451547697      113.00170648679929      117.97530623520255
C          102.81613338730057      113.74672826584938      117.26958271822861
C          104.10342964266634      112.94230942276874      117.11749707407600
C          105.23227129112406      113.80001981409885      116.54904055231755
C          106.44247108038941      112.96326556559291      116.14330867484290
C          107.61811146915208      113.82834652060438      115.69102494436896
C          108.63700112031768      113.02420294728483      114.88361179589370
C          109.98867260130527      113.72205498957528      114.72930500454679
C          109.89087525357152      115.11873630496423      114.12388325024661
C          111.24403551574662      115.81493631541689      113.97017518110492
C          112.08749386018376      115.33800122731029      112.78942755574603
C          113.35701116112732      116.17869180531184      112.66019908262463
C          114.19383074303033      115.83155141537577      111.43194847393191
C          115.45595501065281      116.68824315149104      111.34626352299870
C          116.31304244331268      116.34654372268321      110.13003914368295
C          117.59380234066400      117.17636181758776      110.06892924812627
C          118.47174517515691      116.80439250627977      108.87515600100993
C          119.78553236019960      117.58401270258888      108.85539996486673
C          120.71285730113291      117.13936258449091      107.72432485198004
C          122.06086068935851      117.85787720834310      107.78367302092539
C          123.10348158608950      117.30231181243879      106.81059269495626
C          122.78806840032136      117.59456152576341      105.34573855510492
C          123.92447035210392      117.21790084088916      104.39289985816046
C          124.15473341182944      115.71146646781035      104.29058535886493
C          125.25347567478268      115.36018150695413      103.28881930497921
C          125.48847900221701      113.85279531447286      103.20398663262867
C          126.59267412951417      113.48681748762718      102.21410156501030
C          126.73740589550114      111.97297964985125      102.06469958450971
C          127.88727640630624      111.54780148102557      101.14823592517392
C          127.75754543453667      111.99419441558561       99.69003814275469
C          126.54477469131416      111.40697761617432       98.97092540208808
C          126.43875478890443      111.90861141624517       97.53163177127705
C          125.11732001266878      111.51198150475437       96.87344340570654
C          124.84922188899256      112.30873766738701       95.59792158129119
C          123.44801103132882      112.06363808768712       95.04014979497875
C          123.14778576540290      112.98020518632593       93.85533287666635
C          121.76505155781761      112.76749727509751       93.23632475013929
C          120.61992159121347      113.13770929924969       94.17743231041409
C          119.25023742040929      113.10971358503336       93.49587522909563
C          119.00415730442879      114.29759396089283       92.57446451609850
H          119.15224515282867      112.18391009776468       92.92469952218427
H          118.47529688577789      113.10575348112725       94.26653212521167
H          120.60428061337061      112.43708202844847       95.01498051879257
H          120.79785069723830      114.13534545700531       94.58259827360698
H          121.69966499360608      113.38112052327088       92.33552757888397
H          121.65961190500765      111.72374627263410       92.93019680198070
H          123.23512304423645      114.02061553838699       94.18021885635633
H          123.90529630889083      112.81453266799899       93.08493389823869
H          123.35400143298131      111.02002062104033       94.73106661207935
H          122.71836314828856      112.24095251733867       95.83268541366321
H          124.95574037041403      113.37400115086942       95.82030170070641
H          125.59535582677955      112.05651916307127       94.84112242237536
H          125.11488554947786      110.44269365035076       96.65112746626617
H          124.30529615853763      111.69939284479355       97.57864701255426
H          126.51191556581711      112.99910068865081       97.53623829879577
H          127.27724757739688      111.53033933855572       96.94278742657410
H          126.60402657936478      110.31691053492524       98.98142744632200
H          125.63579327944696      111.69405052116248       99.50169523587081
H          127.70913608811505      113.08423288652453       99.64692451863334
H          128.66318136633660      111.69206039403768       99.15747414650852
H          128.82029429293820      111.95217638002096      101.54976202415183
H          127.96567462972715      110.45816299231646      101.17343025445909
H          126.91449898787150      111.54075363546234      103.05367555823440
H          125.79886821475050      111.55349535734054      101.69748113080124
H          126.35675709662505      113.93360076606962      101.24755141380734
H          127.54044605264916      113.91039353535686      102.55408025459997
H          125.75172092010526      113.46930824652343      104.19362562380735
H          124.55969043110801      113.36541539005944      102.89845702359645
H          124.97795532245314      115.73683211037813      102.30083172535402
H          126.18044358754359      115.85833053342135      103.58083867547059
H          124.43461733643058      115.31930825664233      105.26985234697570
H          123.22254407458617      115.22520219716169      103.99184658254586
H          123.68730212207565      117.60423515199756      103.39806038671510
H          124.84685804276594      117.70355116756303      104.72029037364673
H          121.88931412383577      117.05016295693073      105.05303356344220
H          122.58765134296385      118.66341213237678      105.23706462027121
H          124.07390206120057      117.74291102604074      107.05367153021862
H          123.18147541906288      116.22425705550644      106.95696496950526
H          121.91332553587458      118.92332571110576      107.59055071905924
H          122.45603370014160      117.76472171243222      108.79949604120203
H          120.88045181017165      116.06213331268621      107.80171050460144
H          120.22817388509608      117.33119205337474      106.76532644406898
H          119.57640648078356      118.65131136911037      108.75410558877769
H          120.29661957125538      117.44229337971599      109.81174223024153
H          118.69472581727216      115.73547624415355      108.91842917171404
H          117.92352360823460      116.98896056589948      107.94865519987538
H          117.33665043752730      118.23668580917044      110.01687273910373
H          118.16144649996929      117.02719471122121      110.99111448846655
H          116.57613604073271      115.28670158327057      110.16818039560454
H          115.73179913305367      116.51408306898962      109.22105978152699
H          115.17302955239487      117.74240611724555      111.30583150083642
H          116.04854714978194      116.54682385234017      112.25392332654270
H          114.47301745161566      114.77588103155421      111.46548712844107
H          113.59381882298653      115.99022365971969      110.53344832774197
H          113.07826741718929      117.23340462719830      112.60985654411873
H          113.96537747841936      116.04613736214233      113.55850804346997
H          112.35360235679433      114.28621586651185      112.90955860937758
H          111.50260718899825      115.42935793985509      111.87097942674774
H          111.06521859670771      116.88423740090880      113.84452365708118
H          111.81407330058855      115.68962978018128      114.89351526395009
H          109.39930682760736      115.05585904127244      113.15000512086358
H          109.27034063813132      115.73913022840603      114.77317938358813
H          110.46246349675680      113.79393878093447      115.71173213140858
H          110.62257006819905      113.09973417059076      114.09698048181903
H          108.80494148199895      112.06450662581761      115.37951352453543
H          108.22049151264508      112.81447919699085      113.89517422743489
H          107.23842467896719      114.65034726748516      115.08035249697964
H          108.10315871337154      114.26564181318254      116.56699487041961
H          106.75095823742119      112.33615400937462      116.98237597508566
H          106.15485862491266      112.29472930529391      115.32763697115132
H          104.86581210638047      114.34282036783655      115.67378027103625
H          105.53685362252109      114.54049911440244      117.29252764559710
H          104.40848102103314      112.54609265617867      118.08754923955719
H          103.92526329368899      112.09607964967807      116.45204402439285
H          102.47957316415031      114.05014148006130      116.27609458104247
H          103.03438581529335      114.65563889056041      117.83804265293499
H          100.88035469490504      113.71261412777962      118.18429460468199
H          102.04131200155874      112.62335875958837      118.93602856683607
H          101.86456463165695      111.06714171062923      117.04310740033654
H          100.83372017787366      112.20402788553369      116.17043857678320
H           99.10457340862651      112.01355741487322      117.93478777291664
H          100.13648960234518      110.91470491707446      118.84557374549378
H          100.10007961589605      109.30410441197778      116.96717182866503
H           99.05277981323805      110.38621011840571      116.04341668809774
H           97.29098059509290      110.19180983196824      117.74373991704698
H           98.33513638497500      109.18492961975350      118.74728195893501
H           97.43030359711987      108.41691944041025      115.93561932574825
H           96.60940368418777      107.92130713177173      117.41077159771750
H           98.73671224345593      106.86092043973788      118.20878841901063
H           99.47941756911466      107.23930216213644      116.65126041620671
H           97.83393742114622      105.82930198937341      115.48785462002455
H           97.02080699123627      105.48971825542779      117.01600636531163
H           99.06044694501001      104.40635383354973      117.88926553721674
H           99.94385993174748      104.84065138706566      116.43516437843105
H           99.29193996449520      102.48141593810568      116.41010243539768
H           98.59190673458112      103.36781351697340      115.06317485135725
H           97.02510346934217      101.75043139027584      116.05554360492999
H           96.41512101804038      103.40036104240485      116.05310497247714
H           95.78967231871505      102.44440544237736      118.12409581898321
H           97.05825160773864      103.61142881835340      118.47163078584428
H           98.70469765084947      101.65000878827536      118.48474230960608
H           97.30369531005861      100.58041375244234      118.42092504662463
H           97.88861080696343      102.66078414059744      120.57572152474440
H           98.14554935368544      100.92290783619822      120.73427617836340
H           95.69528398559248      100.55194481955999      120.39638647322118
H           95.45294492193322      102.29817093409400      120.35044688015678
H           96.53316335506206      100.71805506964594      122.72072151689159
H           94.90303109189053      101.36096228838490      122.54092224894602
H           96.02319149977943      103.67800709414298      122.27125026815445
H           97.48262363085125      102.92185239448348      122.90938493361456
H           96.13000969498462      102.20695392438239      124.93837621364013
H           94.76915896164272      103.10770384600004      124.27504755106189
H           95.69799328647440      104.70515642608518      125.71045072322495
H           96.46768556066947      105.11835889748768      124.18351117176935
H           98.33538638976205      103.41353370183592      125.01754555524424
H           97.64594639359547      103.73952304246139      126.60244249356192
H           98.85546206698535      105.74003907194842      124.64907517171230
H           99.55632438667392      105.18877029921200      126.16854083836088
H           97.62085504899520      106.27276170310992      127.38710432220304
H           97.06053643434970      106.90846421365988      125.84219482196117
H           99.42009201692734      107.89967968281023      125.55473435909501
H           99.68253791796759      107.52638838867108      127.25562686349345
H           97.72172206920291      108.98154716550513      127.84319387675487
H           97.50493978203534      109.34169677998412      126.13074526856205
H           99.91629082895240      110.17010326591249      126.10344002549608
H           99.91378311754467      110.04029667654530      127.86248010393342
H           97.90085458574585      111.59487844394741      127.87950663945522
H           98.13244034968135      111.81963440813107      126.14560265811662
H          100.15657116908457      112.48717278656058      128.33029599719779
H           99.13993588175254      113.64779025438997      127.47812276945346
H          100.25396881956593      112.99081353734664      125.32483492127569
H          101.33388580987948      111.93266979580213      126.23965918603450
H          102.07396794893506      113.93232595339695      127.58170402381879
H          101.10701378701221      114.95610774448168      126.52236363034942
H          102.44096947317475      114.17656516041937      124.56410806161765
H          103.39778381696784      113.14824202102082      125.62665531256535
H          104.13741413812510      115.18189793409721      126.89269236975760
H          103.21786942370603      116.18994476819012      125.77906949344320
H          104.59973693770813      115.34925059084551      123.88258784972142
H          105.51372894162915      114.34164066336932      125.00512066393868
H          106.28305162030910      116.37844931078655      126.20870758469670
H          105.30965783447324      117.38091023452185      125.13733388753731
H          107.52250960993413      117.54783999191164      124.30883138076261
H          106.67018936281134      116.49187163036106      123.18711276798696
H          107.67254754833894      114.50655825316305      124.36554775947359
H          108.57110864975203      115.61601862547890      125.40767722675874
H          109.59143220899625      116.61581781268895      123.31021855623447
H          108.81608402641736      115.33235634934030      122.38407276985983
H          110.87279970474462      114.94472004660676      124.60359460086086
H          111.18791936236542      114.85440404942777      122.87246077012013
H          109.45555095440623      112.96957414540580      122.77085007427436
H          109.47536207030379      112.96499823523766      124.53353519705605
H          111.94150647063776      112.51859967591845      124.47986193812221
H          111.86968372470506      112.45398789434863      122.71872944859544
H          110.16593261373076      110.60842054737084      122.90675738419569
H          110.38261437687872      110.63407020638593      124.65734467092959
H          112.82699281737722      110.14575913579897      124.31252659736128
H          112.50640381399853      109.92321008057189      122.59494740731186
H          111.21924177862402      108.35823790313574      124.87513911528109
H          112.59061010812512      107.79781162354504      123.92219896867211
H          109.79583768838923      108.31679996019692      122.81430745987255
H          110.47606414976148      106.75355678216094      123.25137237647023
H          112.37896709438465      107.31720705002438      121.57947043311943
H          111.30551273570340      108.58705811383491      120.98440336563557
H          110.85135052538604      106.78904768292749      119.55709091776555
H          109.52870228831092      106.71590919065289      120.71711595577862
H          110.71595817290100      104.90287614524335      121.95208940333349
H          112.08216129807496      105.04732354149692      120.85048969559298
H          110.55338889074272      104.47411879408692      118.94120454694372
H          109.25523748572388      104.20119729981859      120.09821411584180
H          110.57353225675925      102.37796166079137      121.15588014743922
H          111.91233336122670      102.70195731865826      120.05378929392438
H          110.38845224118393      102.22127344959237      118.11944483787792
H          109.11903560187706      101.77581340303857      119.26089813175730
H          110.51201826540832       99.92079753481347      120.11313873842126
H          111.82837031650206      100.39531047466649      119.03658692197359
H          110.37380956725633      100.01035993841636      117.06640168574174
H          109.03805941807929       99.56796399439551      118.12810262436041
H          110.35220576675731       97.62233621229961      118.96323447831166
H          111.67338510771626       98.05244667302537      117.87714798014294
[...]
  3011   6 C     3012   6 C                                       1.5281040
  3012   6 C     3013   6 C                                       1.5271496
  3013   6 C     3014   6 C                                       1.5290875
  3014   6 C     3015   6 C                                       1.5272163
  3015   6 C     3016   6 C                                       1.5235821
  3015   6 C     3017   1 H                                       1.0911613
  3015   6 C     3018   1 H                                       1.0919970
  3014   6 C     3019   1 H                                       1.0930757
  3014   6 C     3020   1 H                                       1.0928749
  3013   6 C     3021   1 H                                       1.0918507
  3013   6 C     3022   1 H                                       1.0932704
  3012   6 C     3023   1 H                                       1.0932139
  3012   6 C     3024   1 H                                       1.0909086
  3011   6 C     3025   1 H                                       1.0925727
  3011   6 C     3026   1 H                                       1.0940039
  3010   6 C     3027   1 H                                       1.0921529
  3010   6 C     3028   1 H                                       1.0915278
  3009   6 C     3029   1 H                                       1.0921775
  3009   6 C     3030   1 H                                       1.0937280
  3008   6 C     3031   1 H                                       1.0922427
  3008   6 C     3032   1 H                                       1.0914035
  3007   6 C     3033   1 H                                       1.0916798
  3007   6 C     3034   1 H                                       1.0927137
  3006   6 C     3035   1 H                                       1.0926034
  3006   6 C     3036   1 H                                       1.0914203
  3005   6 C     3037   1 H                                       1.0928326
  3005   6 C     3038   1 H                                       1.0926713
  3004   6 C     3039   1 H                                       1.0924718
  3004   6 C     3040   1 H                                       1.0927822
  3003   6 C     3041   1 H                                       1.0924938
  3003   6 C     3042   1 H                                       1.0911584
  3002   6 C     3043   1 H                                       1.0934760
  3002   6 C     3044   1 H                                       1.0928186
  3001   6 C     3045   1 H                                       1.0932758
  3001   6 C     3046   1 H                                       1.0934966
  3000   6 C     3047   1 H                                       1.0914147
  3000   6 C     3048   1 H                                       1.0913985
  2999   6 C     3049   1 H                                       1.0935174
  2999   6 C     3050   1 H                                       1.0926551
  2998   6 C     3051   1 H                                       1.0920642
  2998   6 C     3052   1 H                                       1.0916084
  2997   6 C     3053   1 H                                       1.0916452
  2997   6 C     3054   1 H                                       1.0913962
  2996   6 C     3055   1 H                                       1.0929149
  2996   6 C     3056   1 H                                       1.0917867
  2995   6 C     3057   1 H                                       1.0920044
  2995   6 C     3058   1 H                                       1.0914273
  2994   6 C     3059   1 H                                       1.0928507
  2994   6 C     3060   1 H                                       1.0918788
  2993   6 C     3061   1 H                                       1.0917899
  2993   6 C     3062   1 H                                       1.0931062
  2992   6 C     3063   1 H                                       1.0908164
  2992   6 C     3064   1 H                                       1.0924186
  2991   6 C     3065   1 H                                       1.0932356
  2991   6 C     3066   1 H                                       1.0920363
  2990   6 C     3067   1 H                                       1.0928989
  2990   6 C     3068   1 H                                       1.0930060
  2989   6 C     3069   1 H                                       1.0920999
  2989   6 C     3070   1 H                                       1.0929660
  2988   6 C     3071   1 H                                       1.0914144
  2988   6 C     3072   1 H                                       1.0909072
  2987   6 C     3073   1 H                                       1.0934922
  2987   6 C     3074   1 H                                       1.0918483
  2986   6 C     3075   1 H                                       1.0936687
  2986   6 C     3076   1 H                                       1.0922525
  2985   6 C     3077   1 H                                       1.0922089
  2985   6 C     3078   1 H                                       1.0908787
  2984   6 C     3079   1 H                                       1.0923635
  2984   6 C     3080   1 H                                       1.0934923
  2983   6 C     3081   1 H                                       1.0921767
  2983   6 C     3082   1 H                                       1.0916386
  2982   6 C     3083   1 H                                       1.0926062
  2982   6 C     3084   1 H                                       1.0939446
  2981   6 C     3085   1 H                                       1.0915829
  2981   6 C     3086   1 H                                       1.0919549
  2980   6 C     3087   1 H                                       1.0918521
  2980   6 C     3088   1 H                                       1.0927691
  2979   6 C     3089   1 H                                       1.0914012
  2979   6 C     3090   1 H                                       1.0929095
  2978   6 C     3091   1 H                                       1.0922896
  2978   6 C     3092   1 H                                       1.0900772
  2977   6 C     3093   1 H                                       1.0928892
  2977   6 C     3094   1 H                                       1.0935722
  2976   6 C     3095   1 H                                       1.0919592
  2976   6 C     3096   1 H                                       1.0932787
  2975   6 C     3097   1 H                                       1.0927289
  2975   6 C     3098   1 H                                       1.0912094
  2974   6 C     3099   1 H                                       1.0930306
  2974   6 C     3100   1 H                                       1.0927231
  2973   6 C     3101   1 H                                       1.0927332
  2973   6 C     3102   1 H                                       1.0914245
  2972   6 C     3103   1 H                                       1.0926274
  2972   6 C     3104   1 H                                       1.0924957
  2971   6 C     3105   1 H                                       1.0927597
  2971   6 C     3106   1 H                                       1.0927283
  2970   6 C     3107   1 H                                       1.0919445
  2970   6 C     3108   1 H                                       1.0927564
  2969   6 C     3109   1 H                                       1.0922797
  2969   6 C     3110   1 H                                       1.0930322
  2968   6 C     3111   1 H                                       1.0925644
  2968   6 C     3112   1 H                                       1.0926976
  2967   6 C     3113   1 H                                       1.0923393
  2967   6 C     3114   1 H                                       1.0912502
  2966   6 C     3115   1 H                                       1.0917417
  2966   6 C     3116   1 H                                       1.0931109
  2965   6 C     3117   1 H                                       1.0930166
  2965   6 C     3118   1 H                                       1.0929191
  2964   6 C     3119   1 H                                       1.0909604
  2964   6 C     3120   1 H                                       1.0928594
  2963   6 C     3121   1 H                                       1.0928721
  2963   6 C     3122   1 H                                       1.0930514
  2962   6 C     3123   1 H                                       1.0923486
  2962   6 C     3124   1 H                                       1.0917779
  2961   6 C     3125   1 H                                       1.0928193
  2961   6 C     3126   1 H                                       1.0935024
  2960   6 C     3127   1 H                                       1.0931476
  2960   6 C     3128   1 H                                       1.0914336
  2959   6 C     3129   1 H                                       1.0917912
  2959   6 C     3130   1 H                                       1.0931558
  2958   6 C     3131   1 H                                       1.0932869
  2958   6 C     3132   1 H                                       1.0916006
  2957   6 C     3133   1 H                                       1.0917740
  2957   6 C     3134   1 H                                       1.0922319
  2956   6 C     3135   1 H                                       1.0936988
  2956   6 C     3136   1 H                                       1.0903089
  2955   6 C     3137   1 H                                       1.0917597
  2955   6 C     3138   1 H                                       1.0931195
  2954   6 C     3139   1 H                                       1.0917819
  2954   6 C     3140   1 H                                       1.0921046
  2953   6 C     3141   1 H                                       1.0919153
  2953   6 C     3142   1 H                                       1.0924625
  2952   6 C     3143   1 H                                       1.0925486
  2952   6 C     3144   1 H                                       1.0915891
  2951   6 C     3145   1 H                                       1.0932170
  2951   6 C     3146   1 H                                       1.0926200
  2950   6 C     3147   1 H                                       1.0927521
  2950   6 C     3148   1 H                                       1.0912219
  2949   6 C     3149   1 H                                       1.0935389
  2949   6 C     3150   1 H                                       1.0928435
  2948   6 C     3151   1 H                                       1.0923469
  2948   6 C     3152   1 H                                       1.0914504
  2947   6 C     3153   1 H                                       1.0937404
  2947   6 C     3154   1 H                                       1.0924384
  2946   6 C     3155   1 H                                       1.0921764
  2946   6 C     3156   1 H                                       1.0922964
  2945   6 C     3157   1 H                                       1.0927170
  2945   6 C     3158   1 H                                       1.0923845
  2944   6 C     3159   1 H                                       1.0923957
  2944   6 C     3160   1 H                                       1.0919483
  2943   6 C     3161   1 H                                       1.0928123
  2943   6 C     3162   1 H                                       1.0933057
  2942   6 C     3163   1 H                                       1.0933183
  2942   6 C     3164   1 H                                       1.0930912
  2941   6 C     3165   1 H                                       1.0914182
  2941   6 C     3166   1 H                                       1.0921197
  2940   6 C     3167   1 H                                       1.0929032
  2940   6 C     3168   1 H                                       1.0913387
  2939   6 C     3169   1 H                                       1.0927532
  2939   6 C     3170   1 H                                       1.0912758
  2938   6 C     3171   1 H                                       1.0912424
  2938   6 C     3172   1 H                                       1.0932012
  2937   6 C     3173   1 H                                       1.0929409
  2937   6 C     3174   1 H                                       1.0934044
  2936   6 C     3175   1 H                                       1.0933423
  2936   6 C     3176   1 H                                       1.0913752
  2935   6 C     3177   1 H                                       1.0907566
  2935   6 C     3178   1 H                                       1.0923630
  2934   6 C     3179   1 H                                       1.0930203
  2934   6 C     3180   1 H                                       1.0932714
  2933   6 C     3181   1 H                                       1.0924886
  2933   6 C     3182   1 H                                       1.0923853
  2932   6 C     3183   1 H                                       1.0929403
  2932   6 C     3184   1 H                                       1.0928165
  2931   6 C     3185   1 H                                       1.0917379
  2931   6 C     3186   1 H                                       1.0924188
  2930   6 C     3187   1 H                                       1.0931981
  2930   6 C     3188   1 H                                       1.0929051
  2929   6 C     3189   1 H                                       1.0915929
  2929   6 C     3190   1 H                                       1.0925501
  2928   6 C     3191   1 H                                       1.0933308
  2928   6 C     3192   1 H                                       1.0927832
  2927   6 C     3193   1 H                                       1.0925177
  2927   6 C     3194   1 H                                       1.0937477
  2926   6 C     3195   1 H                                       1.0926397
  2926   6 C     3196   1 H                                       1.0913404
  2925   6 C     3197   1 H                                       1.0925820
  2925   6 C     3198   1 H                                       1.0935268
  2924   6 C     3199   1 H                                       1.0916224
  2924   6 C     3200   1 H                                       1.0909746
  2923   6 C     3201   1 H                                       1.0925769
  2923   6 C     3202   1 H                                       1.0929679
  2922   6 C     3203   1 H                                       1.0928308
  2922   6 C     3204   1 H                                       1.0923214
  2921   6 C     3205   1 H                                       1.0899824
  2921   6 C     3206   1 H                                       1.0926120
  2920   6 C     3207   1 H                                       1.0930767
  2920   6 C     3208   1 H                                       1.0926372
  2919   6 C     3209   1 H                                       1.0926504
  2919   6 C     3210   1 H                                       1.0933062
  2918   6 C     3211   1 H                                       1.0924513
  2918   6 C     3212   1 H                                       1.0910821
  2917   6 C     3213   1 H                                       1.0927028
  2917   6 C     3214   1 H                                       1.0929668
  2916   6 C     3215   1 H                                       1.0915273
  2916   6 C     3216   1 H                                       1.0927407
  2915   6 C     3217   1 H                                       1.0926948
  2915   6 C     3218   1 H                                       1.0929878
  2914   6 C     3219   1 H                                       1.0918190
  2914   6 C     3220   1 H                                       1.0921981
  2913   6 C     3221   1 H                                       1.0927764
  2913   6 C     3222   1 H                                       1.0930124
  2912   6 C     3223   1 H                                       1.0928203
  2912   6 C     3224   1 H                                       1.0914229
  2911   6 C     3225   1 H                                       1.0925240
  2911   6 C     3226   1 H                                       1.0921601
  2910   6 C     3227   1 H                                       1.0924015
  2910   6 C     3228   1 H                                       1.0935603
  2909   6 C     3229   1 H                                       1.0912325
  2909   6 C     3230   1 H                                       1.0914668
  2908   6 C     3231   1 H                                       1.0926710
  2908   6 C     3232   1 H                                       1.0932834
  2907   6 C     3233   1 H                                       1.0931458
  2907   6 C     3234   1 H                                       1.0900045
  2906   6 C     3235   1 H                                       1.0901666
  2906   6 C     3236   1 H                                       1.0937233
  2905   6 C     3237   1 H                                       1.0931502
  2905   6 C     3238   1 H                                       1.0938119
  2904   6 C     3239   1 H                                       1.0929699
  2904   6 C     3240   1 H                                       1.0903854
  2903   6 C     3241   1 H                                       1.0917743
  2903   6 C     3242   1 H                                       1.0931207
  2902   6 C     3243   1 H                                       1.0932573
  2902   6 C     3244   1 H                                       1.0925525
  2901   6 C     3245   1 H                                       1.0912065
  2901   6 C     3246   1 H                                       1.0926742
  2900   6 C     3247   1 H                                       1.0933449
  2900   6 C     3248   1 H                                       1.0922612
  2899   6 C     3249   1 H                                       1.0920755
  2899   6 C     3250   1 H                                       1.0931579
  2898   6 C     3251   1 H                                       1.0927886
  2898   6 C     3252   1 H                                       1.0931585
  2897   6 C     3253   1 H                                       1.0880239
  2897   6 C     3254   1 H                                       1.0878947
  2897   6 C     3255   1 H                                       1.0880799
  3016   6 C     3256   1 H                                       1.0879331
  3016   6 C     3257   1 H                                       1.0880689
  3016   6 C     3258   1 H                                       1.0880329

 * 2 distinct bonds (by element types)

   Z      Z             #   av. dist./Å        max./Å        min./Å
   1 H    6 C        2178     1.0922648     1.0943550     1.0863009
   6 C    6 C        1071     1.5276474     1.5364198     1.5221412


optimized geometry written to: xtbopt.xyz


           -------------------------------------------------
          | TOTAL ENERGY            -3427.483018086758 Eh   |
          | GRADIENT NORM               0.000962487291 Eh/α |
          | HOMO-LUMO GAP              11.535294528271 eV   |
           -------------------------------------------------

------------------------------------------------------------------------
 * finished run on 2024/10/04 at 13:16:09.570     
------------------------------------------------------------------------
 total:
 * wall-time:     0 d,  5 h, 14 min, 24.380 sec
 *  cpu-time:     1 d,  4 h, 10 min,  0.312 sec
 * ratio c/w:     5.375 speedup
 SCF:
 * wall-time:     0 d,  0 h, 12 min, 50.640 sec
 *  cpu-time:     0 d,  1 h, 22 min, 57.760 sec
 * ratio c/w:     6.459 speedup
 ANC optimizer:
 * wall-time:     0 d,  5 h,  0 min, 52.173 sec
 *  cpu-time:     1 d,  2 h, 46 min,  5.504 sec
 * ratio c/w:     5.338 speedup

