3536
 energy: -3716.247034674598 gnorm: 0.000802725544 xtb: 6.6.1 (8d0f1dd)
C           56.33742092671344       74.82749197851035       61.23528002336204
C           57.59268597167166       74.58370888267157       60.39714389950323
C           57.51007620071105       73.21270574872895       59.73177392938823
C           58.82950408777936       74.72318573273978       61.29367501252769
C           60.19418928215340       74.49060376887071       60.62882956902632
C           61.27318442980987       74.49579836912424       61.71278214707841
C           60.48992177006474       75.55303196180056       59.56290337322125
C           61.67291679120211       75.23998887564130       58.63209803391715
C           62.09095504083268       76.51381487193002       57.89845752509484
C           61.28894828105423       74.13551479667876       57.64204422518796
C           62.38833364386159       73.63293466147731       56.69225711740096
C           61.76602127728724       72.58198742148028       55.77490660484246
C           63.57559633928024       73.06482119561393       57.47942884349469
C           64.69752638084991       72.39381784925459       56.67058148590293
C           65.67527046669608       71.75436993206380       57.65623678555600
C           65.38322238236850       73.39147540262672       55.72646075718995
C           66.53206420529445       72.80931130281294       54.87659913593392
C           67.88431686299992       73.11506492636423       55.52730057536125
C           66.55209044643466       73.36305914913783       53.43708947941685
C           65.85769363900273       72.50031792728291       52.37072462832536
C           66.19839758645723       73.05871106621369       50.98877337765494
C           64.34576736393163       72.44945724283257       52.60242801496911
C           63.49681193129096       71.72351271950100       51.54665770533020
C           62.03509149962306       71.81036413100530       51.98401081550693
C           63.95453300441510       70.26970504531697       51.36892064532537
C           62.99037205649836       69.34298323627155       50.61269599202004
C           63.57246449182740       67.93074296700580       50.59285142548393
C           62.71866757503474       69.84499818223568       49.19026026962063
C           61.65327417358573       69.07425752041033       48.39217685067709
C           61.60151045514864       69.64526756937948       46.97546963539305
C           60.28247407104070       69.15677815150610       49.07464402135549
C           59.12142952137511       68.41312274439042       48.39383548141146
C           57.84942183124711       68.66688548668866       49.20283622722957
C           59.42656456940507       66.91388391051557       48.28465797587688
C           58.29411676836126       66.01156410835813       47.77250020362675
C           58.77743422288535       64.56161958136130       47.81128297148917
C           57.85071968387209       66.41007425411210       46.36027661447685
C           56.63452713377634       65.62381842878544       45.83495462140837
C           57.05565648091279       64.65086956912376       44.73481767075051
C           55.54621313593402       66.55032729460312       45.27611281266535
C           54.79195223590470       67.39799747504689       46.30923548028506
C           53.94184271606159       66.52352767148729       47.22814135380061
C           53.91309280510904       68.41548648905517       45.56718202472771
C           53.40086698678167       69.59888222104625       46.40287828592225
C           52.25735653304051       70.27261602735504       45.64390560407777
C           54.53912716882943       70.58667806237081       46.68149656649392
C           54.21546949328079       71.75991970300706       47.61710370649921
C           55.42894480907606       72.69130135053425       47.66388960742849
C           53.84889074270280       71.30551911963289       49.04079202056973
C           52.34427081318589       71.26757121748344       49.34046798865033
C           51.79329309678301       72.68650605697407       49.48441061178705
C           52.06398030203516       70.48553642081821       50.63096890150259
C           52.20984277509707       68.96390392707971       50.50498777984711
C           50.97383009027329       68.35447188356999       49.84581472788774
C           52.45269108319726       68.32904541537290       51.88222601257033
C           53.89261726639676       68.49119167503778       52.38525007169489
C           54.82173721455915       67.52652155606333       51.64823106724627
C           54.00116486000412       68.24511768645326       53.89767026467638
C           53.41251443259075       69.33363741788929       54.80368561025513
C           54.12175281287331       70.67368400172049       54.60338146026439
C           53.54072884886419       68.94738543570686       56.28680590814640
C           52.76888338195069       67.70946621032219       56.75948155582973
C           51.27778749240737       67.82790031378148       56.44510714404139
C           52.94436416038621       67.51604042914151       58.27508796841140
C           54.33364573555725       67.07496912309206       58.75242062441400
C           54.68889765993494       65.69208484438110       58.20816923705701
C           54.39148579211908       67.01414838914796       60.28755378896521
C           54.28642744555859       68.34688806787821       61.03597520398965
C           55.43913718422301       69.28373669654299       60.67216091060452
C           54.30869034674384       68.12662854693042       62.55696744732354
C           53.17057692564812       67.29553747804664       63.16360434819193
C           51.80588938873955       67.89796855698037       62.83501989699747
C           53.34457019012868       67.19965983195006       64.68992829196472
C           54.39709664466829       66.17841915290072       65.14102377799162
C           53.82325905911939       64.76258620857857       65.07432057966733
C           54.89436134217615       66.43088560911627       66.57215403187854
C           55.62120350066085       67.75876615584059       66.83213710816652
C           56.70729218220059       68.04501397174054       65.80108437523269
C           56.16003465084121       67.81669432481017       68.27615787002513
C           57.25413960319877       66.80559047354681       68.66586263229892
C           57.07623546029065       66.40727317582412       70.13236615199369
C           58.67879914114933       67.34276471991841       68.45631612256176
C           59.72320202159001       66.22242260564406       68.31241251703418
C           61.09941510621547       66.71013736327666       68.76147673872234
C           59.78091431874847       65.71034457379946       66.86743259912816
C           60.39964515254437       64.30716477133987       66.71585848347870
C           61.69227561460014       64.36123958800542       65.90239008192502
C           59.42164569652741       63.32870746217632       66.05448998164762
C           58.18529291648234       63.02828459194335       66.89727721826671
C           57.25308794016782       62.05113518413059       66.19486197257176
H           55.44718510870471       74.78446360165005       60.61170982358443
H           56.24837384740280       74.07138840541937       62.01271721194752
H           56.37419921661871       75.80507476491586       61.71115995854642
H           56.37154312222577       61.85733427543676       66.79979449720791
H           56.92930425406060       62.44887759617726       65.23545524589527
H           57.75898634612321       61.10473247105904       66.01589779716801
H           59.11034818928720       63.73803440676635       65.09007256722548
H           59.94477132865313       62.38951832845696       65.85915585882280
H           58.76893293862636       65.69300811221166       66.46376182464508
H           60.34976643900406       66.42755915102413       66.27128245721600
H           59.43073388200937       65.38995495702918       68.96162767443843
H           61.84354538307325       65.92589151037703       68.64186021732515
H           61.40911341996042       67.57055255998984       68.17072627290740
H           61.08225025747357       67.00390222755614       69.80925715471982
H           58.72334920950298       67.97460485835022       67.57024619621889
H           58.93703784336142       67.97171734154837       69.31221241402048
H           56.53348422901998       68.82635536069446       68.46769009649142
H           55.30427166777798       67.66562867540325       68.94007769685328
H           60.64127216308948       63.91714475130055       67.71186890790656
H           62.39997395995113       65.06012481734668       66.34343699614890
H           62.16438858279705       63.38096463570189       65.86040130373745
H           61.48114406503279       64.68146958088526       64.88439594874806
H           57.13500433070091       65.90469816414870       68.05944046324780
H           57.11606393017182       67.28817315707529       70.77102231229662
H           56.11747917039415       65.91740283285007       70.28850432619129
H           57.86000347304842       65.72297666929846       70.44983878623160
H           54.88358288483287       68.56904132129793       66.76426543491083
H           57.39708906324616       67.21043897104330       65.72398991140093
H           56.26904567741082       68.22415441283718       64.82357414403762
H           57.26473715595768       68.93582151991450       66.08162301647931
H           54.04123473494935       66.37065811100690       67.25277420738007
H           55.56438637406144       65.60673726604099       66.82385663593621
H           55.25420713878994       66.22381916636702       64.46428259412106
H           53.00164330407532       64.65429110355201       65.78013476422157
H           53.44664370650164       64.54090496278825       64.07920111519117
H           54.58440601179268       64.02587602773725       65.32174973773881
H           53.60254451101224       68.19114227259972       65.06565010544840
H           52.38845556480745       66.92499557458635       65.14234988276364
H           53.20604838697660       66.28393850661841       62.74915897056465
H           51.74603850101278       68.92466724365995       63.19220882484444
H           51.62161636214950       67.89305903524242       61.76407410861621
H           51.01456977413486       67.32402124986665       63.31160723585709
H           55.26040144585022       67.65181599000361       62.80794403614889
H           54.29776270272068       69.11002702014423       63.03727222571709
H           53.35011192289384       68.84478374280529       60.76943145639179
H           56.39485220377255       68.80767162043495       60.88322731845125
H           55.41142969593977       69.55626649614493       59.62061809696321
H           55.38087378393674       70.20142224153884       61.25445378557764
H           53.58544353060761       66.35756734296854       60.62119038155259
H           55.33558425344885       66.54454825969597       60.57897293589104
H           55.08410062767040       67.78561373582913       58.39535734228050
H           55.65159537641791       65.36813799808502       58.59825989559541
H           53.94142533432791       64.96222911471067       58.51147303285641
H           54.74546082607491       65.69512015548331       57.12334977203096
H           52.68165215330127       68.45750095777247       58.76354789502605
H           52.22538371305023       66.76500308914163       58.61089375186263
H           53.15038824443202       66.82463479741607       56.24446578213909
H           50.73649240860765       66.97619387262077       56.85193417178368
H           50.86474776921440       68.73594388284737       56.88206971041905
H           51.10533056207448       67.85103190947849       55.37232088638937
H           54.60197032901604       68.80280917902645       56.50221369275968
H           53.20151935209906       69.79884261927309       56.88503331407857
H           52.35480516312695       69.47625545090789       54.56499756848430
H           53.73874111191638       71.41456083552819       55.30307042301504
H           55.18999289555096       70.56247936481846       54.77355052564511
H           53.97078589511680       71.06132458574133       53.59986961491371
H           53.51141842460094       67.29514710208427       54.11870978421452
H           55.05803944477451       68.13498861858945       54.15352092249744
H           54.23191761278929       69.50701885699009       52.16756434549909
H           54.55260338024589       66.49589966657798       51.86875321453333
H           54.76631322059250       67.67052323320803       50.57216670253835
H           55.85461424865547       67.68814451994501       51.94986888149094
H           51.75623507508607       68.77773840820458       52.59312829107495
H           52.22534739036950       67.26132069761086       51.83219182573212
H           53.06988510194245       68.74269545842176       49.86665118786240
H           50.09322446523953       68.51840303912492       50.46362465858114
H           50.78967422927681       68.80172628411616       48.87135132415587
H           51.10016521388793       67.28239797011187       49.70785884865312
H           52.74142416864197       70.85718666455719       51.40235485041084
H           51.04674881946451       70.70599518206726       50.96605171370975
H           51.82156626134491       70.78118940621759       48.51287862077132
H           50.71367928925688       72.66752132964373       49.62069369428678
H           52.23802020543208       73.17825120979595       50.34783307208759
H           52.01118580314711       73.28685973663922       48.60424039230402
H           54.28489558072130       70.32093085689077       49.21454603184451
H           54.30919227153329       71.98541372828734       49.76126731239608
H           53.38256537434805       72.32698463189132       47.19204828130502
H           55.21807687728767       73.56747722307772       48.27319233832048
H           56.28584276584484       72.17371894627085       48.09035774206271
H           55.69686987288544       73.02912376767256       46.66453218129639
H           55.38364957585098       70.04331886721876       47.11104993596425
H           54.87249364329815       70.99565266238540       45.72281202775589
H           53.01368763374455       69.22238211847377       47.35255108293315
H           52.60931202713677       70.64502097740959       44.68339047679004
H           51.45305715481026       69.56293023032063       45.45966358342873
H           51.84499352575712       71.10902519057073       46.20197943122351
H           54.47347702841396       68.82267670428099       44.72087473305054
H           53.05483886623389       67.87866883809424       45.15465203626603
H           55.52200563372178       67.93762954055018       46.91973200600037
H           53.34678768947901       67.13496100164531       47.90161477043124
H           53.26412515330339       65.90647625583703       46.64131568804879
H           54.56577519650980       65.87051680403134       47.83284687817235
H           56.01285862792948       67.21644641357895       44.54445104474416
H           54.81307514662229       65.94356760863823       44.73731768343200
H           56.20315567505283       65.04189614481670       46.65390872326013
H           57.39562093322767       65.19980077101170       43.85832763320911
H           57.86430475541547       64.00935423206899       45.07102316941724
H           56.21988585334696       64.02103466545283       44.43596301898679
H           57.61217628894477       67.47349996470440       46.35670541508166
H           58.69360783153710       66.27146699355158       45.67975803415681
H           57.43548268816329       66.09938738792805       48.44603146867087
H           59.10489209398744       64.29561664900514       48.81431989835365
H           57.98685903459695       63.87474590900005       47.52111578331618
H           59.61879664698535       64.42645807016210       47.13448026372237
H           60.28169135685974       66.77705099105825       47.61982853698399
H           59.72029676643811       66.55701465500896       49.27593861493588
H           58.97816338745212       68.83026476266296       47.39225440833339
H           57.69531587958535       69.73424020036006       49.34697074108538
H           56.97398289861461       68.26891435324619       48.69724293145468
H           57.92367035692065       68.19884750020641       50.18148040351467
H           60.36966209488572       68.75910285807696       50.08761929717549
H           60.00972933430540       70.21357670785903       49.15779921765081
H           61.95819261765595       68.02660516076511       48.32659093970462
H           60.92675257513581       69.07401882403117       46.34430745978042
H           61.25977139711797       70.67882229619954       46.99280748295578
H           62.58844281216383       69.62267004774868       46.51672228696595
H           62.41070447829378       70.89146896279532       49.23024541065711
H           63.65903996839941       69.80941805919200       48.63133462020852
H           62.05110808360542       69.31282694784882       51.16948231352011
H           62.87011578017366       67.22745419745056       50.15383209201228
H           64.49595483732341       67.90255958951340       50.01802292319337
H           63.79289307509001       67.59638343130034       51.60431905038060
H           64.91712453198431       70.25994458325796       50.85341429378105
H           64.11196627900387       69.84415935770441       52.36280096872551
H           63.59837262749966       72.25464626548360       50.59492787260790
H           61.86086174325349       71.18362795481407       52.85445841447808
H           61.78204045174779       72.83607867143900       52.24344172560225
H           61.36393165775301       71.48943217858168       51.19309824299166
H           64.16928162075806       71.96508293756843       53.56452236326151
H           63.97910998022189       73.47780734885009       52.67514616566663
H           66.26125532944594       71.48498576193457       52.44336105311436
H           65.76522876397689       74.04905163141395       50.86199950728397
H           67.27700457435085       73.14163595478408       50.86745305952049
H           65.82116916788395       72.41473303311669       50.19906413559701
H           66.12026422598511       74.36690177153106       53.42450028528526
H           67.59612079236298       73.46604276467268       53.13096439307998
H           66.41395876999657       71.72158413604531       54.81923223056562
H           68.06701004944799       74.18842838224896       55.51607661666667
H           67.91866988577426       72.77666050155185       56.55815451734156
H           68.69047690549651       72.62721085271988       54.98304884507120
H           64.62081966465929       73.79594655353984       55.06104347039267
H           65.76869520110449       74.22670257438483       56.31722778440948
H           64.26612627310007       71.58886314322589       56.06842202703852
H           65.14155172265134       71.09400883779725       58.33646724278985
H           66.42610723268801       71.16335586982275       57.13935004713192
H           66.17574048038480       72.51725927001169       58.24982535709679
H           64.02702854257676       73.86897142418378       58.06478778232295
H           63.18333347740500       72.32771996536090       58.18641212651787
H           62.73025800946429       74.46843413497380       56.07410932667587
H           61.46804655889840       71.70534119344917       56.34744697888200
H           60.87992691681074       72.98726853989703       55.29069198399851
H           62.45887275615670       72.27723775067325       54.99713595942852
H           60.92087842840879       73.27369384405669       58.20327974410824
H           60.45845170096089       74.50667005540487       57.03363525509747
H           62.51606273871332       74.90345908530462       59.24052955395793
H           62.96760945615107       76.33898216826852       57.28013914811494
H           61.28317538676848       76.86663982918249       57.25995030020231
H           62.33344649477031       77.30132147361456       58.60917675163364
H           59.60553335940180       75.69918364059427       58.94036480869102
H           60.68439225658417       76.49914224427707       60.07494461032427
H           60.18830966493462       73.50062773607827       60.16671075383134
H           61.31245591282433       75.46504804883719       62.20636751956861
H           61.06093384235476       73.74029006563137       62.46644228824422
H           62.25350207244801       74.28479086654089       61.29385279713154
H           58.82635807323628       75.72518841715966       61.73207834293867
H           58.72746692822457       74.00824677055100       62.11435816681728
H           57.62353461593732       75.35067019507291       59.61647478614773
H           58.31783771334352       73.07141027072547       59.01946423737409
H           57.56256410262657       72.42569309676996       60.48041561002445
H           56.56907675362056       73.11388927633438       59.19537848564989
H           58.49422122453748       62.61307969270990       67.85870488267190
H           57.63894522722526       63.95004258601554       67.10260864765706
C           36.83495182400029       58.16576563953823       57.89894547077412
C           37.18424132820046       56.69785598615892       57.65741326753587
C           36.05395444248237       56.01649994793240       56.88966573438706
C           37.45513613443777       56.00908612489877       58.99939243423434
C           37.92372909511049       54.55073306357124       58.92263473459896
C           38.02946739958131       53.98914953714463       60.34137550631730
C           39.20676269236691       54.29563179199689       58.10958274900041
C           40.54347513444318       54.82343041984710       58.65835388403819
C           40.77584125536216       56.28244266641068       58.26295831705648
C           41.72225810574037       53.99151091349665       58.11484861268072
C           42.22802534793720       52.81006094522326       58.95635624749475
C           41.20181843129443       51.68376637273784       59.07223373096114
C           42.70126803421515       53.18840314025658       60.36676254025883
C           43.68151346762851       54.36217366839282       60.48049370771401
C           44.95787517456088       54.09036790903776       59.68643320970530
C           44.02633584292344       54.62950392579536       61.96088400008855
C           43.43288036436903       55.91934121403001       62.54628901515038
C           44.07580834302387       56.19018898444754       63.90495357310213
C           41.91020370756623       55.81393187121855       62.67698643495880
C           41.17423421639008       57.12596375838630       62.98300913059470
C           39.78035167183599       56.80470982296260       63.52177959368575
C           41.08850059684833       57.99889612306635       61.72682895568943
C           40.54290002602165       59.41925254719689       61.96999385130252
C           39.22231352352999       59.62104120945084       61.22728169795431
C           41.55040084776411       60.49256111501263       61.53576656838389
C           42.76214918507011       60.62523866218226       62.46976903029253
C           42.36810585430152       61.36249536601387       63.74858241397623
C           43.90443331135746       61.35925280387798       61.75502730457551
C           45.27817794174938       61.23609139527525       62.43095315055650
C           46.19901567462903       62.34329220383250       61.91764259736949
C           45.89675102265361       59.85827662252584       62.16282065651064
C           46.97528029829449       59.44394705674826       63.17152822916789
C           47.77221447659641       58.27212454959972       62.60046800007746
C           46.36624034843459       59.07804670554410       64.53853509779461
C           46.98117839881991       59.82127818964152       65.72902259023762
C           48.43616632844763       59.40519215519328       65.93242671201627
C           46.19372379192884       59.54164633417651       67.01759195929033
C           44.82330048995207       60.22320091973496       67.10774354074279
C           44.97729805696132       61.70571744292508       67.44652753750688
C           43.94541217627845       59.53781517393537       68.16560886340589
C           43.30086714906427       58.21903351306214       67.70939448355301
C           42.12411484654069       58.49388042737635       66.77618906910477
C           42.85720564072003       57.43025045895131       68.94958198063163
C           42.11377913869742       56.10831344128175       68.70119075393201
C           41.69698388467684       55.52428804285379       70.05147334234753
C           42.99748101898550       55.13381179398435       67.91523057357649
C           42.42416062850680       53.73226818070678       67.64073053030189
C           43.55199845835864       52.86571821502541       67.08615327038096
C           41.22756949302016       53.81704844312653       66.68211219696582
C           40.29875629269537       52.59309288198229       66.54106500269802
C           39.96133134973227       51.97701440354226       67.90014633072488
C           40.77643161142877       51.48203549420509       65.59319245325584
C           41.04170804038824       51.88521431772612       64.13838697535883
C           39.81783086266579       52.54936581426695       63.50781996047719
C           41.41678880266003       50.65961018566070       63.28966617797925
C           42.69735047426872       49.91222758016492       63.68015002122884
C           43.91515565039916       50.83488337710396       63.66303942451592
C           42.96051570402024       48.74312871053323       62.71861277078356
C           41.91094517623020       47.62416349320286       62.67894955330837
C           41.68797208698194       47.02913684595126       64.06694156550229
C           42.38603749885755       46.53731804287688       61.70235728363923
C           41.32630783191826       45.47580278505079       61.35128719663398
C           41.90335053938318       44.07119795374777       61.53592722820132
C           40.80863210675097       45.61746631481174       59.91339696407353
C           40.03613723408032       46.90539661661934       59.60962788709587
C           38.73985235174966       46.98062123779402       60.41796019505804
C           39.67673219239640       46.99864960717218       58.11830149686581
C           40.84568706800268       47.04276574636623       57.12790584903860
C           41.78927933802208       48.20579576539726       57.42618699025372
C           40.32514460359823       47.18258830835516       55.69006259629575
C           39.51129226669792       46.00702789180994       55.13120000694271
C           40.18474253989807       44.65966336365830       55.39974697144588
C           39.32766516845727       46.15392763134453       53.61216046773670
C           38.56685343667386       47.39105120111313       53.11364659550911
C           37.10838162062859       47.35352883878267       53.56127337174416
C           38.68831610358895       47.43402744646204       51.58332525610832
C           38.08734018178371       48.65667893113362       50.87640979799991
C           38.15058889338226       48.42401338637508       49.36557943573977
C           38.79877746236932       49.96604328373670       51.26622693472872
C           37.84833641933049       51.06464424444428       51.75946134918969
C           37.07414935616586       51.67454123579247       50.59260944072060
C           38.61776873642354       52.16139397940897       52.50710504652243
C           38.96627921945149       51.79655820678835       53.95553473336572
C           37.76664558500044       52.04365431681548       54.86990940994779
C           40.16950368272625       52.60796915705296       54.45043332028279
C           41.52352410636369       52.10558110436769       53.93329251830872
C           41.97312113184222       50.87983804735794       54.72572507369451
C           42.59228336026368       53.20158058839085       54.02806198179713
C           42.48258701367773       54.26298025532316       52.93689547923190
C           43.51449345507498       55.36406324994446       53.13781632013745
H           35.92951300923209       58.24991572976852       58.49713398932543
H           37.63986788508282       58.67098169032973       58.42846541640962
H           36.66881817036730       58.68125495710773       56.95498713755460
H           44.51951602438837       54.94803373390221       53.15264509864625
H           43.45520957678862       56.10553128890221       52.34334630144747
H           43.34527607448246       55.86562944888535       54.08748871144524
H           42.52610499997830       53.68188358172666       55.00711081360814
H           43.58101824725082       52.74160937206370       53.96071881018691
H           40.01943611912173       53.64898571114382       54.15728232396953
H           40.18939013668066       52.58009632253349       55.54244705513597
H           39.21400722916605       50.73164977186218       54.00620647924174
H           37.97453433243881       51.70130947754828       55.88188497643575
H           37.53466044068094       53.10663380678248       54.91017195273982
H           36.88538554780804       51.51730094463398       54.51026773094143
H           39.52829840179073       52.38539426958531       51.94837476949279
H           38.01786311738913       53.07321647454908       52.52421859102279
H           39.52756001921823       49.75907145188241       52.04985932002894
H           39.35774964275120       50.34940402401926       50.40943607952673
H           41.42093604102386       51.81677763982604       52.88097943226774
H           41.20978029699040       50.10551021164618       54.72080131750116
H           42.88146890578424       50.46171161323701       54.29840165705417