3536
 energy: -3716.253595631264 gnorm: 0.000828106593 xtb: 6.6.1 (8d0f1dd)
C           58.12262905274810       69.40009778203664       70.33453258589184
C           57.10505945581171       70.22529668211899       69.54883946204734
C           55.76182436593022       69.49734706621896       69.53887617849006
C           57.56425039867599       70.48291092198522       68.10747056705043
C           58.78417262383772       71.40012053921841       67.96487442146605
C           58.42932052279218       72.84294637413257       68.32907626097273
C           59.34777607680922       71.38377025813934       66.53569165238258
C           59.83269076078616       70.03061720196281       65.99745966980301
C           60.68676844698697       69.27584871253744       67.01718709583530
C           60.67791048119643       70.21274760341484       64.72741264795033
C           60.02678217481614       70.94145459767302       63.54635907939786
C           58.92275295050374       70.09193711557954       62.92306358646925
C           61.08533273497428       71.26386817627575       62.48045933573693
C           61.99565792137195       72.44699029122027       62.83156199900702
C           61.29632604187647       73.76816585806979       62.50934985934198
C           63.32391277747717       72.37532701503103       62.06577437289224
C           64.32583119105516       71.31728646284503       62.55446841290822
C           64.88755198093600       71.69268047135546       63.92380854135343
C           65.44492193012243       71.19399306406460       61.51204752538736
C           66.51472533282745       70.12149152246954       61.76125346254912
C           67.65146270228512       70.33905100542823       60.75952664777144
C           65.96818224279485       68.68675757352294       61.63346346454756
C           65.67609486200753       67.96591920120072       62.95655225620323
C           66.96502169481140       67.70214523934551       63.73733277855354
C           64.98680620403660       66.61400658557396       62.71051188147214
C           63.57478043774454       66.66052497770070       62.11622456213910
C           62.59297210156089       67.35219479850272       63.05699629734325
C           63.08229799517577       65.23820886970283       61.81335626979357
C           61.92900208711581       65.18947693187313       60.79308710359531
C           60.74313232840478       64.40861594770915       61.35704207940605
C           62.36663160196030       64.55479505963382       59.46632935659886
C           63.49819355038318       65.28097461819688       58.72805537368553
C           63.03161597518194       66.61827860582395       58.15593379318378
C           64.06173243165171       64.39869881904505       57.60052098430616
C           65.56710580127042       64.59080933318063       57.36472522668188
C           65.94248055517387       64.09609063413154       55.96989981125033
C           66.36188521736283       63.83287213472426       58.43592654900570
C           67.82392310748557       64.26333716581955       58.61801523421148
C           68.56097663295085       63.18980139451574       59.41795821606151
C           67.90534679062786       65.61924540643561       59.32989031859219
C           69.31783208005548       66.23461660295386       59.37955275957555
C           69.74011429222239       66.50733346492885       60.82346879352836
C           69.40668466545964       67.52867096231761       58.55884928190966
C           69.43169324417579       67.29740952761212       57.04362247523687
C           70.81580720960233       66.82609993263742       56.59929449642947
C           69.06000594250666       68.57644048091986       56.27929290810098
C           67.55826680399801       68.89562115432506       56.22353095691644
C           66.83806289063291       67.91767282936708       55.30070846222166
C           67.38884274922614       70.34268816073271       55.73496089032303
C           65.95240326525040       70.82514073018345       55.47974228078272
C           66.00632835725730       72.22863251932759       54.87631644863991
C           65.13447391088698       70.80208957679301       56.77458294191756
C           63.65738356632842       71.21593407110625       56.67480109835356
C           63.08594005455689       71.23360598130579       58.09317541291028
C           62.87213174981080       70.25945867416529       55.76960271114768
C           61.38232961307673       70.60708301465279       55.57908565123439
C           60.51936281430891       69.38569221330877       55.89229623057587
C           61.06604065607520       71.10940981397135       54.16325283805346
C           61.66140143285888       72.47576737062896       53.80736085712672
C           61.15031936371901       73.57091830796267       54.74642453845264
C           61.30451661250260       72.88503518209650       52.37012114275528
C           61.86755718451302       72.03720055594081       51.21890189686072
C           63.38935742778627       71.94589217620430       51.29239513356706
C           61.40977307599698       72.69041958236559       49.90517633591411
C           61.69096419537132       71.91607127135138       48.61081553048268
C           61.31963827297650       72.79797596358823       47.41715844440449
C           60.92816240653755       70.58034318179449       48.55057973497335
C           61.81047936478377       69.34845050713035       48.78793134929161
C           62.72805989092382       69.10656827025004       47.59044874588366
C           60.94975971071629       68.10843762370999       49.05943734242293
C           61.70752555558055       66.97533671552459       49.76313753501142
C           60.92639174114701       65.66960077282820       49.62773359222613
C           61.95196394968941       67.29678495049758       51.24767047867692
C           63.35086778161075       66.91592224686892       51.75489817360251
C           63.32306000800101       66.79073749061702       53.27729423574436
C           64.36847416687429       67.96971364582464       51.30131208298047
C           65.84731935698483       67.62889943373776       51.53205038650782
C           66.67648093409996       68.90919663658721       51.42708209395622
C           66.32522431594884       66.56928775065784       50.53296442313138
C           67.78033371351069       66.09726997453565       50.68681547674296
C           68.10885905069044       65.11922017890623       49.55846602549012
C           68.00945691300127       65.45313528808812       52.05865197692535
C           69.44179024450423       64.99545651045018       52.37181024877117
C           69.42992474437720       64.27543777869805       53.71951691066009
C           70.40496299047555       66.18789831164473       52.38192227694710
C           71.86535783591498       65.87497081022161       52.73244365794661
C           72.67120424519270       67.17520837894988       52.74179287960261
C           72.51175939998642       64.82274925092098       51.82031325296832
C           72.52635533861667       65.15603188434881       50.33011621967113
C           73.25421881796579       64.07738040610627       49.53576138971457
H           58.28779615541832       68.44128721182085       69.84761783341773
H           59.07517660990847       69.91709655376134       70.41736027694961
H           57.75670660250380       69.21111542929181       71.34174501690815
H           72.78280703778351       63.10906454514816       49.68949360635427
H           73.23787642114139       64.30530200299042       48.47189753208831
H           74.29238777404258       64.00316075922160       49.85362965436807
H           73.54415916007189       64.67837632903320       52.15253948492763
H           71.99548572448961       63.87042486045526       51.95759779000065
H           70.38910802934321       66.66945046487344       51.40303687551176
H           70.03486277147992       66.91968367700312       53.10692165580070
H           69.76259731504429       64.28138178898115       51.61004150539521
H           68.69048900017197       63.47752201569131       53.71228727532691
H           70.39839773917544       63.83464101748896       53.94079137788686
H           69.17930848524459       64.97015019666647       54.51869189932816
H           67.71804698994701       66.15925542729435       52.83714246813724
H           67.34825192017183       64.58607746086568       52.14006811190470
H           65.67448722176916       65.69717365726108       50.61271312290253
H           66.20542724004011       66.97616789032249       49.52390117160818
H           71.90095091206349       65.46889857171027       53.74992667334450
H           72.28618195864233       67.85363585146520       53.50054588029725
H           73.71765896562752       66.97679146505433       52.96355362015964
H           72.61220492420914       67.67935597181979       51.78001695883810
H           68.43524355413196       66.96644866314058       50.57838860053388
H           67.54430136702950       64.19638969248648       49.67671942394334
H           67.86086201594726       65.55248732985700       48.59151544801788
H           69.16756493212337       64.87276642364054       49.54705651667707
H           65.95198324873671       67.23516680167627       52.54459398650033
H           66.62543388832320       69.31506544915847       50.41812934532297
H           66.30165704443426       69.66445506493298       52.11571094888241
H           67.72058681147145       68.72583530837952       51.66923987640925
H           64.22865974017938       68.16745740929439       50.23653475727470
H           64.14204809805517       68.89730820751853       51.83447817346875
H           63.62207876388447       65.94307295834604       51.33453060083821
H           62.60399334005560       66.03303403054359       53.58136081796462
H           64.29617069367086       66.50532065357702       53.66820136852418
H           63.03616163798539       67.73803456113627       53.73068216812294
H           61.80194868725127       68.36294165773445       51.42961051503108
H           61.20565031905813       66.76861670901491       51.84287112617656
H           62.67248067612526       66.84013898061669       49.26405059704607
H           61.43273582273155       64.86476784368578       50.15523989229730
H           59.92666136251906       65.77830091230859       50.04387592717323
H           60.82744539189807       65.38616294684522       48.58096927509430
H           60.09607986447660       68.38519183820918       49.68275339322289
H           60.55142926686153       67.74666299630080       48.10817728126559
H           62.43133072846379       69.53975762199353       49.66708510592834
H           62.13956394351093       68.91828861627494       46.69431831513831
H           63.36607761698297       69.96690587149274       47.40115832250481
H           63.37177928186306       68.24620710926172       47.75971948824359
H           60.12952428679623       70.59921866087774       49.29442286227754
H           60.44990058433734       70.47514370916774       47.57386984195134
H           62.76514789651682       71.72111976792232       48.55065452840109
H           61.55088298429735       72.29243587320305       46.48192681046520
H           60.25584992573628       73.02787081069391       47.43068482568066
H           61.87132658431656       73.73585853697527       47.44162094419554
H           60.33194458183055       72.86783107366973       49.96357665425050
H           61.89341656952958       73.66886332280791       49.83052302957607
H           61.44772957536574       71.02887193299792       51.27442388894703
H           63.82943687390255       72.94131612606782       51.30268336876836
H           63.70374288062187       71.42289775400762       52.19197699331790
H           63.78920524729755       71.40445610773934       50.43925937600695
H           60.21378535228295       72.90084454665151       52.28487799276452
H           61.65199995464395       73.91160303121572       52.21957961173062
H           62.74954581317327       72.42955016039193       53.90438536638877
H           60.06225626679619       73.59936712073166       54.74070093407629
H           61.48532463503344       73.41076081534850       55.76729052837851
H           61.51745277867883       74.54444834587093       54.42692367501494
H           61.41908990931054       70.36656563926036       53.44381538854023
H           59.97929256027324       71.17691094521652       54.05752118128164
H           61.09656782446000       71.39141067862377       56.28201520011407
H           60.67706869639150       69.06313351217450       56.91871708564778
H           59.46298298584940       69.61313372072816       55.76702994116212
H           60.77530103337011       68.56312417197687       55.22834705941882
H           63.35249209929417       70.22834561874423       54.79065074963217
H           62.95297109293204       69.25826276917925       56.19987144930901
H           63.59261860905845       72.23005200969700       56.26929060371972
H           63.64565304437678       71.93359157519689       58.71088352707402
H           62.04288801559061       71.53780522330297       58.10792243632626
H           63.15600103024773       70.24397481823324       58.54080564630333
H           65.16354218389560       69.79145285880213       57.18742674779841
H           65.62713839895109       71.46280768272176       57.49422840877271
H           65.49269416695390       70.15921744473596       54.74508745562335
H           65.01627087249085       72.57179358825215       54.58773473389345
H           66.41881088852816       72.93704550084222       55.59229549628064
H           66.63519590622140       72.23701948589920       53.98787288873520
H           67.85368557867311       71.01309987083108       56.46387400096005
H           67.94778056169383       70.44477361719264       54.79997906762962
H           67.14411922961276       68.80592014431865       57.23286992673810
H           67.07552064456337       66.88949653938828       55.55982198337360
H           65.75979735922296       68.03658595004070       55.36715181722712
H           67.14522360512980       68.09441303125323       54.27277044758614
H           69.58940747967527       69.41586445866980       56.73829958746970
H           69.42186917154091       68.49140050872373       55.25091541555933
H           68.70898361598840       66.51421952811025       56.80027666834526
H           71.55816442229454       67.59965607877550       56.78890588699556
H           71.11683691100470       65.92806566476378       57.13348058861349
H           70.82149554994940       66.60202610564139       55.53561103911133
H           68.55995664372242       68.16583473623281       58.81965730864289
H           70.31438617642620       68.07075723180427       58.83845808170967
H           70.03164287218266       65.51977837144698       58.95954610486707
H           70.76235262369975       66.87964797448949       60.86356105170864
H           69.08981389503006       67.25320136521009       61.27651115052481
H           69.68746986357893       65.59737922466427       61.41804974264294
H           67.23033125471017       66.31869450730292       58.83462507064138
H           67.53270055645388       65.48526438993925       60.34891900436893
H           68.30186564090647       64.34786028257049       57.63575538316304
H           69.60142518719601       63.46007856005613       59.58420288199999
H           68.08694017412863       63.05471961619502       60.38804429220663
H           68.53878120468445       62.23762142995842       58.89147088061762
H           65.86149805951587       63.94088337909713       59.40099272767998
H           66.33875285023204       62.77026639967153       58.17904975514318
H           65.79575817274717       65.65959998420040       57.42655664935569
H           65.43402178703418       64.67763121609529       55.20373244038989
H           67.01390264024143       64.17273375526995       55.79894480994402
H           65.65345764920212       63.05334301830355       55.85626867877228
H           63.88834890870421       63.34542852800640       57.82899925166009
H           63.52252662334815       64.61905631361398       56.67699036183441
H           64.30259632330512       65.48427334820983       59.44146502356591
H           62.18428571684369       66.47238941893831       57.48828803197320
H           62.72840501062910       67.30362227263598       58.94456971944871
H           63.83461138752280       67.08844342989362       57.59108436593036
H           62.68799627998608       63.53229331111386       59.68046360434550
H           61.50114648343494       64.49216815712528       58.80208987642158
H           61.58798525938924       66.21051630506857       60.59353730423651
H           61.03091433753480       63.38258963794657       61.57657423336670
H           60.37992357276698       64.87201061636038       62.27224311299530
H           59.92567001590441       64.38935436654693       60.64161518065854
H           63.91436920046461       64.63858865917848       61.44301467691663
H           62.76546897914117       64.78022262418374       62.75284622323306
H           63.61012551360429       67.21781889548275       61.17536460928073
H           61.58631489085825       67.32218886783970       62.64499306133927
H           62.58145379053241       66.85422759411168       64.02535446657626
H           62.86491653356945       68.39262738405618       63.21241289258557
H           65.62637250842126       66.03174008088030       62.04067328440468
H           64.93802078456666       66.07420832864820       63.66043171823696
H           65.02899955526405       68.59362238066161       63.57475589339293
H           67.60931956802985       67.02076512402661       63.18529248468129
H           67.52005256622884       68.61868514086471       63.92072750320165
H           66.73945379733637       67.24946641348556       64.70101029595634
H           65.05635640922063       68.72016178857966       61.03620992642667
H           66.68884002273263       68.07815046159487       61.08201896127258
H           66.92893562584663       70.26913774284175       62.76127368250405
H           67.28826379153870       70.21281095478781       59.74103242174940
H           68.06083820648732       71.34344682904074       60.85093275679154
H           68.45863341672418       69.63044132919360       60.93083986172038
H           64.99270894137263       70.99757371352840       60.53663108356243
H           65.94496529353617       72.16514966897064       61.44630439907064
H           63.81437551929257       70.35476591449407       62.63602280630458
H           65.45621385510016       72.61865519843582       63.85913830171351
H           64.08882295239911       71.83372738819821       64.64745659985543
H           65.54193632520241       70.91353592818417       64.30572946796904
H           63.09202427319926       72.18489522763669       61.01521528066920
H           63.81322498788225       73.35171801972785       62.11938462065176
H           62.20275007248244       72.43558590451771       63.90495803282190
H           61.14066454484445       73.86227560687536       61.43616996985070
H           60.32842959892908       73.82398840535831       63.00163771082731
H           61.89521493034948       74.61322953426925       62.84304483618546
H           61.68771418535384       70.36917647114875       62.31806789154044
H           60.58393013980204       71.48860903755531       61.53606418721714
H           59.58924369672020       71.88033583934555       63.89651134641843
H           58.18249872832088       69.81428083212180       63.66624540736904
H           58.41904274756988       70.64034326895684       62.12990373129408
H           59.34234479394913       69.18438238330675       62.49481310562170
H           61.58685023648825       70.74752241925646       65.01286191223760
H           60.98149892112261       69.22191494057554       64.38326908031119
H           58.96274748039626       69.41274698398809       65.75588926790066
H           60.10661412390862       68.99012374058013       67.88904509118670
H           61.08809678588421       68.36983638504847       66.56737372671851
H           61.52240344143142       69.89217870359359       67.34387459940682
H           58.57570095515359       71.76807149436996       65.86512836972196
H           60.18831399894403       72.08333569128897       66.50409436681278
H           59.56882766828281       71.06691788042386       68.64836550808725
H           58.09350987891792       72.91808235422407       69.36002349106829
H           59.29620669132890       73.49022631426284       68.21160120278439
H           57.63657978686424       73.21553589116861       67.68249492158810
H           57.78334620851712       69.51812575761370       67.64944395642179
H           56.73510392361867       70.92688896704381       67.55078845594358
H           56.96673315927084       71.18397053075203       70.06007232425658
H           55.41479786985347       69.31938229193818       70.55454827329093
H           55.00765437584842       70.08242967625866       69.01845500852738
H           55.85421477026056       68.53596182173175       69.03900195126261
H           71.50392168561341       65.24249279738791       49.95889523303546
H           73.02323987545785       66.11361258952472       50.16648268341098
C           54.27560314994288       38.38063111405276       64.03921299319309
C           53.00761332609577       38.98189505000087       64.64647012188780
C           51.78427341669273       38.20808990043962       64.16230809898262
C           52.93331958197990       40.46737038664428       64.27676826565956
C           51.76433859511095       41.27734759561499       64.85643185334796
C           51.76542515389472       42.65582047866649       64.19757985328242
C           51.87938888949940       41.39867062238188       66.38051096794602
C           50.67749863245358       42.01737431771979       67.11415174003091
C           51.10820672921795       42.36170263386285       68.54034444832352
C           49.48251439746628       41.05627949966812       67.11205461289217
C           48.16584121904726       41.61599212870163       67.67625891194297
C           47.22522676865823       40.44522417868529       67.96748708609296
C           47.51344987812764       42.61792849162808       66.70726960588722
C           46.89036580944018       43.87777293307633       67.33452597050399
C           47.93991854128000       44.71883695103359       68.06023113644316
C           45.70963172630368       43.54398115862666       68.25323415230056
C           44.89664898670642       44.75627212617020       68.73655651604518
C           44.07685642802915       44.35998043046155       69.96388816269936
C           43.99811611466672       45.30113374085555       67.61925469502407
C           43.44587246670971       46.71707809460038       67.86739633992045
C           41.98475986599826       46.66683906133710       68.32027105095652
C           43.52308797579262       47.58712035864015       66.60377379786084
C           44.92651219422601       47.93930362564121       66.09714886315008
C           45.69735699947264       48.76463017052372       67.12701743203925
C           44.85403406875486       48.74307082123705       64.78839680955221
C           44.08706368990327       48.09446598513027       63.63167567759038
C           44.68816693245701       46.74519053893756       63.24167396159277
C           44.06637064610735       49.00146399713270       62.39292881588578
C           43.44166640594317       50.38848941177535       62.58332396633406
C           42.08463837599843       50.31332237728326       63.28105737395394
C           43.23819019353105       51.09139774940823       61.23452227043750
C           44.47366521481233       51.27591068063332       60.34428676005707
C           45.58461965975054       52.01246045352563       61.08394690491394
C           44.03708835192494       52.05457999253158       59.09548343557572
C           45.03676395838629       52.13521597548741       57.93263244092464
C           44.43801478043687       53.04655276806889       56.86211741681998
C           45.34593120788342       50.73296901504841       57.39430409645967
C           46.12488363722282       50.64986596910626       56.07315871450860
C           46.32588537548803       49.17397020341156       55.73090813701800
C           47.45973604650683       51.39796247386474       56.15767235678984
C           48.39644022958646       51.27509844474471       54.94382952389552
C           49.64226908038918       52.11811748250881       55.21144290263118
C           47.71016292686006       51.71404497489108       53.64472355771486
C           48.50598250400184       51.52031656890549       52.34411795607465
C           47.71126112845671       52.12959683147322       51.18894701167604
C           48.78592169928119       50.03591032101644       52.09136135668618
C           49.59678444562948       49.68876357934514       50.83383741939349
C           49.74039849557532       48.16845366262505       50.76808730964110
C           50.96140162337102       50.39019394237189       50.85592499614953
C           51.98128600679175       49.97068813478355       49.78543077010871
C           53.26940789086290       50.76579661260256       50.00324752558812
C           51.43844863008349       50.19253804492917       48.37029487973572
C           52.28547632690427       49.61310614230813       47.22729163660935
C           51.77866792061982       50.19582867301062       45.90885766302510
C           52.21075739054709       48.08194426230311       47.19206511602690
C           53.29445174728326       47.41160310471174       46.33243905506518
C           52.79787290552983       46.02964327806819       45.90283671742581
C           54.63236560172388       47.30159701140594       47.08743217090997
C           55.88320458556248       47.62882466965663       46.25943516737706
C           55.95500558371031       46.81761648273117       44.96485810574347
C           57.17605166853680       47.35515861137731       47.04764929710685
C           57.31927133904587       48.02700315762273       48.41689557454752
C           57.11962574173976       49.53971172972764       48.31833265092682
C           58.71168543588860       47.77453710740942       49.01793488703822
C           59.14393527148889       46.32501970490085       49.27729307134823
C           58.28713262866556       45.66658554670351       50.35427281616333
C           60.61358921091168       46.30080329891562       49.73178530009336
C           61.63416120676871       46.36050661978327       48.58865550435080
C           61.88771094026326       44.95639097983949       48.04288073202618
C           62.95640085339207       46.99631687711810       49.03969549017277
C           62.86553293180692       48.51936257525973       49.27292643886344
C           63.90937422365718       49.24674760475145       48.42758167250746
C           63.01983247326525       48.89000661709519       50.75500736574384
C           62.45849518162468       50.26805208553286       51.13999318510903
C           62.94026578200709       50.62401454162895       52.54510338416715
C           60.92223394218120       50.27810571441785       51.06879558520298
C           60.25311082032079       51.51101111692379       50.43864274715478
C           60.76441581958852       51.78317234326803       49.02495702622556
C           60.36247685927659       52.75683127069313       51.32293127304277
C           59.34204509367304       53.85332259256090       50.98223462578889
C           59.76254305286857       55.16602958854426       51.64201251041905
C           57.93406398565599       53.45119120627866       51.44021437202803
C           56.78716407475930       54.13815681407980       50.68514839463407
C           55.50991147368600       54.05135649527780       51.51786519555990
C           56.58037900323292       53.48177103094274       49.31473190606004
C           55.67531671839976       54.24486899057852       48.33630543782507
C           55.28387949498571       53.31265317120805       47.19040779692403
C           56.37164465266814       55.50643807852745       47.81613574492390
C           55.49256815245928       56.39676478491533       46.94047592851103
C           56.17988719183734       57.71917265457024       46.62316598155017
H           55.15863865247564       38.91127066694766       64.38840393125237
H           54.37458501971766       37.33299436017360       64.31538747342104
H           54.24319480784794       38.44649352547109       62.95353872598982
H           55.57499609099927       58.32066403006601       45.94778014298362
H           56.34618619145562       58.29257243826606       47.53209434633639
H           57.14335210362978       57.54358907143191       46.15006328597759
H           56.70061980849462       56.09971453382976       48.67105833157248
H           57.26313709651252       55.21988743000602       47.25380668384190
H           57.54921553974862       53.33536921476419       48.83237271631633
H           56.15116217605040       52.49044811681280       49.48180339050901
H           57.03959651422046       55.19444255437502       50.54883382789063
H           55.26459985395055       53.01136899129858       51.72548465759937
H           55.63600383160370       54.57047484628992       52.46539128180643
H           54.67141627429242       54.50188336541628       50.99388866764972
H           57.80301180446958       52.37341466243407       51.33519717576092
H           57.84745170684514       53.67904364499515       52.50404504066928
H           60.21169580700487       52.47043067464935       52.36644695530065
H           61.37051727786005       53.16840244779543       51.23321770774135
H           54.75714741908151       54.54627221038338       48.85264536047885
H           54.59994190243528       53.80374143600797       46.50205494858781
H           56.16732452725890       52.99744825043080       46.63801514646098