      -----------------------------------------------------------      
     |                   =====================                   |     
     |                           x T B                           |     
     |                   =====================                   |     
     |                         S. Grimme                         |     
     |          Mulliken Center for Theoretical Chemistry        |     
     |                    University of Bonn                     |     
      -----------------------------------------------------------      

   * xtb version 6.6.1 (8d0f1dd) compiled by 'stahn@M-Bot' on 2023-08-01

   xtb is free software: you can redistribute it and/or modify it under
   the terms of the GNU Lesser General Public License as published by
   the Free Software Foundation, either version 3 of the License, or
   (at your option) any later version.
   
   xtb is distributed in the hope that it will be useful,
   but WITHOUT ANY WARRANTY; without even the implied warranty of
   MERCHANTABILITY or FITNESS FOR A PARTICULAR PURPOSE.  See the
   GNU Lesser General Public License for more details.
   
   Cite this work as:
   * C. Bannwarth, E. Caldeweyher, S. Ehlert, A. Hansen, P. Pracht,
     J. Seibert, S. Spicher, S. Grimme, WIREs Comput. Mol. Sci., 2020, 11,
     e01493. DOI: 10.1002/wcms.1493
   
   for GFN2-xTB:
   * C. Bannwarth, S. Ehlert and S. Grimme., J. Chem. Theory Comput., 2019,
     15, 1652-1671. DOI: 10.1021/acs.jctc.8b01176
   for GFN1-xTB:
   * S. Grimme, C. Bannwarth, P. Shushkov, J. Chem. Theory Comput., 2017,
     13, 1989-2009. DOI: 10.1021/acs.jctc.7b00118
   for GFN0-xTB:
   * P. Pracht, E. Caldeweyher, S. Ehlert, S. Grimme, ChemRxiv, 2019, preprint.
     DOI: 10.26434/chemrxiv.8326202.v1
   for GFN-FF:
   * S. Spicher and S. Grimme, Angew. Chem. Int. Ed., 2020, 59, 15665-15673.
     DOI: 10.1002/anie.202004239
   
   for ALPB and GBSA implicit solvation:
   * S. Ehlert, M. Stahn, S. Spicher, S. Grimme, J. Chem. Theory Comput.,
     2021, 17, 4250-4261. DOI: 10.1021/acs.jctc.1c00471
   
   for DFT-D4:
   * E. Caldeweyher, C. Bannwarth and S. Grimme, J. Chem. Phys., 2017,
     147, 034112. DOI: 10.1063/1.4993215
   * E. Caldeweyher, S. Ehlert, A. Hansen, H. Neugebauer, S. Spicher,
     C. Bannwarth and S. Grimme, J. Chem. Phys., 2019, 150, 154122.
     DOI: 10.1063/1.5090222
   * E. Caldeweyher, J.-M. Mewes, S. Ehlert and S. Grimme, Phys. Chem. Chem. Phys.
     2020, 22, 8499-8512. DOI: 10.1039/D0CP00502A
   
   for sTDA-xTB:
   * S. Grimme and C. Bannwarth, J. Chem. Phys., 2016, 145, 054103.
     DOI: 10.1063/1.4959605
   
   in the mass-spec context:
   * V. Asgeirsson, C. Bauer and S. Grimme, Chem. Sci., 2017, 8, 4879.
     DOI: 10.1039/c7sc00601b
   * J. Koopman and S. Grimme, ACS Omega 2019, 4, 12, 15120-15133.
     DOI: 10.1021/acsomega.9b02011
   
   for metadynamics refer to:
   * S. Grimme, J. Chem. Theory Comput., 2019, 155, 2847-2862
     DOI: 10.1021/acs.jctc.9b00143
   
   for SPH calculations refer to:
   * S. Spicher and S. Grimme, J. Chem. Theory Comput., 2021, 17, 1701-1714
     DOI: 10.1021/acs.jctc.0c01306
   
   with help from (in alphabetical order)
   P. Atkinson, C. Bannwarth, F. Bohle, G. Brandenburg, E. Caldeweyher
   M. Checinski, S. Dohm, S. Ehlert, S. Ehrlich, I. Gerasimov, C. Hölzer
   A. Katbashev, J. Koopman, C. Lavigne, S. Lehtola, F. März, M. Müller,
   F. Musil, H. Neugebauer, J. Pisarek, C. Plett, P. Pracht, F. Pultar,
   J. Seibert, P. Shushkov, S. Spicher, M. Stahn, M. Steiner, T. Strunk,
   J. Stückrath, T. Rose, and J. Unsleber
   
 * started run on 2024/06/20 at 13:58:55.130     

           -------------------------------------------------
          |                Calculation Setup                |
           -------------------------------------------------

          program call               : /home/abt-grimme/AK-bin/xtb input.xyz --input input.inp --opt --gbsa water
          hostname                   : boar076.thch.uni-bonn.de
          coordinate file            : input.xyz
          omp threads                :                     8

   ID    Z sym.   atoms
    1    6 C      1-90, 273-362, 545-634, 817-906, 1089-1178, 1361-1450,
                  1633-1722, 1905-1994, 2177-2266, 2449-2538, 2721-2810,
                  2993-3082, 3265-3354
    2    1 H      91-272, 363-544, 635-816, 907-1088, 1179-1360, 1451-1632,
                  1723-1904, 1995-2176, 2267-2448, 2539-2720, 2811-2992,
                  3083-3264, 3355-3536

molecular fragmentation (1/2 indicates fragments):
111111111111111111111111111111111111111111111111111111111111111111111111
111111111111111111111111111111111111111111111111111111111111111111111111
111111111111111111111111111111111111111111111111111111111111111111111111
111111111111111111111111111111111111111111111111111111112222222222222222
222222222222222222222222222222222222222222222222222222222222222222222222
222222222222222222222222222222222222222222222222222222222222222222222222
222222222222222222222222222222222222222222222222222222222222222222222222
222222222222222222222222222222222222222222222222222222222222222222222222
222222222222222222222222222222222222222222222222222222222222222222222222
222222222222222222222222222222222222222222222222222222222222222222222222
222222222222222222222222222222222222222222222222222222222222222222222222
222222222222222222222222222222222222222222222222222222222222222222222222
222222222222222222222222222222222222222222222222222222222222222222222222
222222222222222222222222222222222222222222222222222222222222222222222222
222222222222222222222222222222222222222222222222222222222222222222222222
222222222222222222222222222222222222222222222222222222222222222222222222
222222222222222222222222222222222222222222222222222222222222222222222222
222222222222222222222222222222222222222222222222222222222222222222222222
222222222222222222222222222222222222222222222222222222222222222222222222
222222222222222222222222222222222222222222222222222222222222222222222222
222222222222222222222222222222222222222222222222222222222222222222222222
222222222222222222222222222222222222222222222222222222222222222222222222
222222222222222222222222222222222222222222222222222222222222222222222222
222222222222222222222222222222222222222222222222222222222222222222222222
222222222222222222222222222222222222222222222222222222222222222222222222
222222222222222222222222222222222222222222222222222222222222222222222222
222222222222222222222222222222222222222222222222222222222222222222222222
222222222222222222222222222222222222222222222222222222222222222222222222
222222222222222222222222222222222222222222222222222222222222222222222222
222222222222222222222222222222222222222222222222222222222222222222222222
222222222222222222222222222222222222222222222222222222222222222222222222
222222222222222222222222222222222222222222222222222222222222222222222222
222222222222222222222222222222222222222222222222222222222222222222222222
222222222222222222222222222222222222222222222222222222222222222222222222
222222222222222222222222222222222222222222222222222222222222222222222222
222222222222222222222222222222222222222222222222222222222222222222222222
222222222222222222222222222222222222222222222222222222222222222222222222
222222222222222222222222222222222222222222222222222222222222222222222222
222222222222222222222222222222222222222222222222222222222222222222222222
222222222222222222222222222222222222222222222222222222222222222222222222
222222222222222222222222222222222222222222222222222222222222222222222222
222222222222222222222222222222222222222222222222222222222222222222222222
222222222222222222222222222222222222222222222222222222222222222222222222
222222222222222222222222222222222222222222222222222222222222222222222222
222222222222222222222222222222222222222222222222222222222222222222222222
222222222222222222222222222222222222222222222222222222222222222222222222
222222222222222222222222222222222222222222222222222222222222222222222222
222222222222222222222222222222222222222222222222222222222222222222222222
222222222222222222222222222222222222222222222222222222222222222222222222
22222222
# atoms in fragment 1/2:   272  3264
 fragment masses (1/2) :     1264.41    15172.94
CMA distance (Bohr)    :  29.109
constraining FC (au)   :  0.0500

           -------------------------------------------------
          |                 G F N 2 - x T B                 |
           -------------------------------------------------

        Reference                      10.1021/acs.jctc.8b01176
      * Hamiltonian:
        H0-scaling (s, p, d)           1.850000    2.230000    2.230000
        zeta-weighting                 0.500000
      * Dispersion:
        s8                             2.700000
        a1                             0.520000
        a2                             5.000000
        s9                             5.000000
      * Repulsion:
        kExp                           1.500000    1.000000
        rExp                           1.000000
      * Coulomb:
        alpha                          2.000000
        third order                    shell-resolved
        anisotropic                    true
        a3                             3.000000
        a5                             4.000000
        cn-shift                       1.200000
        cn-exp                         4.000000
        max-rad                        5.000000

      * Solvation model:               GBSA
        Solvent                        water
        Parameter file                 internal GFN2-xTB/GBSA
        Dielectric constant                8.0200E+01
        Reference state                gsolv [1 M gas/solution]
        Free energy shift                  1.8574E-03 Eh       1.1656E+00 kcal/mol
        Temperature                        2.9815E+02 K
        Density                            1.0000E+00 kg/L
        Solvent mass                       1.8000E+01 g/mol
        Interaction kernel             Still
        Born radius scaling (c1)           1.5524E+00
        Born radii integrator          GBOBC
        Born offset                        2.4628E-02 a0       4.6540E-02 AA
        H-bond correction              true
        Ion screening                  false
        Surface tension                    1.0000E-05 Eh       1.5569E+01 dyn/cm
        Grid points                               230 per atom
q/qsh data taken from xtbrestart
CAMM data taken from xtbrestart

          ...................................................
          :                      SETUP                      :
          :.................................................:
          :  # basis functions                7046          :
          :  # atomic orbitals                7046          :
          :  # shells                         4706          :
          :  # electrons                      7046          :
          :  max. iterations                   250          :
          :  Hamiltonian                  GFN2-xTB          :
          :  restarted?                       true          :
          :  GBSA solvation                   true          :
          :  PC potential                    false          :
          :  electronic temp.          300.0000000     K    :
          :  accuracy                    1.0000000          :
          :  -> integral cutoff          0.2500000E+02      :
          :  -> integral neglect         0.1000000E-07      :
          :  -> SCF convergence          0.1000000E-05 Eh   :
          :  -> wf. convergence          0.1000000E-03 e    :
          :  Broyden damping             0.4000000          :
          ...................................................

 iter      E             dE          RMSdq      gap      omega  full diag
   1  -3764.2101953 -0.376421E+04  0.620E-05   10.51       0.0  T
   2  -3764.2101953 -0.344698E-08  0.492E-05   10.51      34.2  T
   3  -3764.2101953 -0.359341E-08  0.325E-05   10.51      51.8  T

   *** convergence criteria satisfied after 3 iterations ***

         #    Occupation            Energy/Eh            Energy/eV
      -------------------------------------------------------------
         1        2.0000           -0.6175893             -16.8055
       ...           ...                  ...                  ...
      3517        2.0000           -0.3759566             -10.2303
      3518        2.0000           -0.3755323             -10.2188
      3519        2.0000           -0.3752046             -10.2098
      3520        2.0000           -0.3748196             -10.1994
      3521        2.0000           -0.3739874             -10.1767
      3522        2.0000           -0.3731857             -10.1549
      3523        2.0000           -0.3706862             -10.0869 (HOMO)
      3524                          0.0156163               0.4249 (LUMO)
      3525                          0.0160173               0.4359
      3526                          0.0161484               0.4394
      3527                          0.0166164               0.4522
      3528                          0.0175051               0.4763
       ...                                ...                  ...
      7046                          0.3766795              10.2500
      -------------------------------------------------------------
                  HL-Gap            0.3863024 Eh           10.5118 eV
             Fermi-level           -0.1775350 Eh           -4.8310 eV

 SCC (total)                   0 d,  0 h,  8 min, 12.416 sec
 SCC setup                      ...        0 min,  1.981 sec (  0.402%)
 Dispersion                     ...        0 min,  4.137 sec (  0.840%)
 classical contributions        ...        0 min,  0.142 sec (  0.029%)
 integral evaluation            ...        0 min,  6.937 sec (  1.409%)
 iterations                     ...        3 min, 31.340 sec ( 42.919%)
 molecular gradient             ...        4 min, 17.885 sec ( 52.371%)
 printout                       ...        0 min,  9.993 sec (  2.029%)

         :::::::::::::::::::::::::::::::::::::::::::::::::::::
         ::                     SUMMARY                     ::
         :::::::::::::::::::::::::::::::::::::::::::::::::::::
         :: total energy           -3715.341636598104 Eh    ::
         :: total w/o Gsasa/hb     -3715.233666798378 Eh    ::
         :: gradient norm              0.665869422933 Eh/a0 ::
         :: HOMO-LUMO gap             10.511823637985 eV    ::
         ::.................................................::
         :: SCC energy             -3764.210195321440 Eh    ::
         :: -> isotropic ES            0.438009885142 Eh    ::
         :: -> anisotropic ES          1.498530960923 Eh    ::
         :: -> anisotropic XC          2.302569391670 Eh    ::
         :: -> dispersion             -4.696669070003 Eh    ::
         :: -> Gsolv                  -0.043701848074 Eh    ::
         ::    -> Gelec                0.064267951653 Eh    ::
         ::    -> Gsasa               -0.103608859852 Eh    ::
         ::    -> Ghb                 -0.006218383001 Eh    ::
         ::    -> Gshift               0.001857443127 Eh    ::
         :: repulsion energy          48.135660205415 Eh    ::
         :: add. restraining           0.000000000000 Eh    ::
         :: total charge              -0.000000000009 e     ::
         :::::::::::::::::::::::::::::::::::::::::::::::::::::

      ----------------------------------------------------------- 
     |              Fast Inertial Relaxation Engine              |
      ----------------------------------------------------------- 

          ...................................................
          :                      SETUP                      :
          :.................................................:
          :   energy convergence        0.5000000E-05 Eh    :
          :   grad. convergence         0.1000000E-02 Eh/a0 :
          :   optimization log               true           :
          :   writing optlog all                1     steps :
          :   Hessian reset                    20     steps :
          :   time step scaling                 5     steps :
          :   maximium step len.        1.0000000     a0    :
          :   initial time step         0.2500000     fs    :
          :   maximum time step         1.2500000     fs    :
          :   power reset thr           0.0000000     au    :
          :   alpha parameter           0.1000000           :
          :   BFGS update                   false           :
          :   preconditioning               false           :
          ...................................................

........................................................................
.............................. CYCLE    1 ..............................
........................................................................

 iter      E             dE          RMSdq      gap      omega  full diag
   1  -3764.4730110 -0.376447E+04  0.764E-03   10.52       0.0  T
   2  -3764.4730550 -0.440281E-04  0.415E-03   10.52       1.0  T
   3  -3764.4730557 -0.684104E-06  0.180E-03   10.52       1.0  T
   4  -3764.4730563 -0.543637E-06  0.448E-04   10.52       3.8  T
   5  -3764.4730566 -0.282374E-06  0.176E-04   10.52       9.5  T
     SCC iter.                  ...        5 min, 56.384 sec
     gradient                   ...        4 min, 15.845 sec
 * total energy  : -3715.3921588 Eh     change    :  -0.5052218E-01 Eh
   gradient norm :     0.6332960 Eh/a0  converged?    E=F G=F D=F
   time step     :     0.2500000 fs     power     :   0.2614610E-05
   step length   :     0.0780385 a0     speed     :   0.7550642E-02

........................................................................
.............................. CYCLE    2 ..............................
........................................................................

 iter      E             dE          RMSdq      gap      omega  full diag
   1  -3764.8605601 -0.376486E+04  0.112E-02   10.54       0.0  T
   2  -3764.8606547 -0.945748E-04  0.609E-03   10.54       1.0  T
   3  -3764.8606562 -0.151805E-05  0.264E-03   10.54       1.0  T
   4  -3764.8606574 -0.117480E-05  0.663E-04   10.53       2.5  T
   5  -3764.8606580 -0.614343E-06  0.271E-04   10.53       6.2  T
   6  -3764.8606580 -0.436762E-07  0.123E-04   10.53      13.7  T
     SCC iter.                  ...        6 min, 52.189 sec
     gradient                   ...        4 min, 17.704 sec
 * total energy  : -3715.4622342 Eh     change    :  -0.7007544E-01 Eh
   gradient norm :     0.5870411 Eh/a0  converged?    E=F G=F D=F
   time step     :     0.2500000 fs     power     :   0.3574330E-05
   step length   :     0.1150593 a0     speed     :   0.1113260E-01

........................................................................
.............................. CYCLE    3 ..............................
........................................................................

 iter      E             dE          RMSdq      gap      omega  full diag
   1  -3765.3629594 -0.376536E+04  0.145E-02   10.55       0.0  T
   2  -3765.3631141 -0.154710E-03  0.784E-03   10.55       1.0  T
   3  -3765.3631166 -0.251306E-05  0.336E-03   10.55       1.0  T
   4  -3765.3631185 -0.190653E-05  0.851E-04   10.55       2.0  T
   5  -3765.3631195 -0.101110E-05  0.351E-04   10.55       4.8  T
   6  -3765.3631196 -0.704927E-07  0.155E-04   10.55      10.8  T
   7  -3765.3631196 -0.344767E-07  0.100E-04   10.55      16.8  T
     SCC iter.                  ...        8 min,  8.347 sec
     gradient                   ...        4 min, 16.943 sec
 * total energy  : -3715.5452707 Eh     change    :  -0.8303645E-01 Eh
   gradient norm :     0.5287603 Eh/a0  converged?    E=F G=F D=F
   time step     :     0.2500000 fs     power     :   0.4164549E-05
   step length   :     0.1493634 a0     speed     :   0.1445171E-01

........................................................................
.............................. CYCLE    4 ..............................
........................................................................

 iter      E             dE          RMSdq      gap      omega  full diag
   1  -3765.9674908 -0.376597E+04  0.173E-02   10.57       0.0  T
   2  -3765.9677061 -0.215255E-03  0.935E-03   10.57       1.0  T
   3  -3765.9677096 -0.354417E-05  0.396E-03   10.57       1.0  T
   4  -3765.9677122 -0.255842E-05  0.997E-04   10.56       1.7  T
   5  -3765.9677136 -0.137715E-05  0.415E-04   10.56       4.1  T
   6  -3765.9677136 -0.844884E-07  0.172E-04   10.56       9.7  T
   7  -3765.9677137 -0.401615E-07  0.110E-04   10.56      15.3  T
     SCC iter.                  ...        7 min, 59.512 sec
     gradient                   ...        4 min, 18.402 sec
 * total energy  : -3715.6337096 Eh     change    :  -0.8843891E-01 Eh
   gradient norm :     0.4622399 Eh/a0  converged?    E=F G=F D=F
   time step     :     0.2500000 fs     power     :   0.4346707E-05
   step length   :     0.1801242 a0     speed     :   0.1742798E-01

........................................................................
.............................. CYCLE    5 ..............................
........................................................................

 iter      E             dE          RMSdq      gap      omega  full diag
   1  -3766.6587055 -0.376666E+04  0.196E-02   10.58       0.0  T
   2  -3766.6589716 -0.266109E-03  0.106E-02   10.58       1.0  T
   3  -3766.6589763 -0.463094E-05  0.439E-03   10.58       1.0  T
   4  -3766.6589793 -0.306543E-05  0.110E-03   10.58       1.5  T
   5  -3766.6589810 -0.165520E-05  0.477E-04   10.58       3.5  T
   6  -3766.6589811 -0.106230E-06  0.189E-04   10.58       8.9  T
   7  -3766.6589811 -0.476452E-07  0.122E-04   10.58      13.7  T
     SCC iter.                  ...        8 min,  4.742 sec
     gradient                   ...        4 min, 16.125 sec
 * total energy  : -3715.7199897 Eh     change    :  -0.8628016E-01 Eh
   gradient norm :     0.3927442 Eh/a0  converged?    E=F G=F D=F
   time step     :     0.2500000 fs     power     :   0.4134429E-05
   step length   :     0.2066305 a0     speed     :   0.1999261E-01

........................................................................
.............................. CYCLE    6 ..............................
........................................................................

 iter      E             dE          RMSdq      gap      omega  full diag
   1  -3767.5017300 -0.376750E+04  0.236E-02   10.60       0.0  T
   2  -3767.5020951 -0.365023E-03  0.127E-02   10.60       1.0  T
   3  -3767.5021021 -0.702781E-05  0.513E-03   10.60       1.0  T
   4  -3767.5021061 -0.398784E-05  0.127E-03   10.60       1.3  T
   5  -3767.5021082 -0.212038E-05  0.586E-04   10.60       2.9  T
   6  -3767.5021083 -0.147084E-06  0.216E-04   10.60       7.8  T
   7  -3767.5021084 -0.603636E-07  0.142E-04   10.60      11.9  T
     SCC iter.                  ...        8 min,  6.874 sec
     gradient                   ...        4 min, 17.103 sec
 * total energy  : -3715.8050665 Eh     change    :  -0.8507673E-01 Eh
   gradient norm :     0.3215036 Eh/a0  converged?    E=F G=F D=F
   time step     :     0.2750000 fs     power     :   0.3522311E-05
   step length   :     0.2535069 a0     speed     :   0.2229833E-01

........................................................................
.............................. CYCLE    7 ..............................
........................................................................

 iter      E             dE          RMSdq      gap      omega  full diag
   1  -3768.4926781 -0.376849E+04  0.275E-02   10.62       0.0  T
   2  -3768.4931256 -0.447492E-03  0.147E-02   10.62       1.0  T
   3  -3768.4931360 -0.103738E-04  0.568E-03   10.62       1.0  T
   4  -3768.4931405 -0.449467E-05  0.137E-03   10.61       1.2  T
   5  -3768.4931427 -0.219137E-05  0.694E-04   10.61       2.4  T
   6  -3768.4931429 -0.189857E-06  0.230E-04   10.61       7.3  T
   7  -3768.4931429 -0.667774E-07  0.156E-04   10.61      10.8  T
     SCC iter.                  ...        8 min,  0.234 sec
     gradient                   ...        4 min, 17.400 sec
 * total energy  : -3715.8794927 Eh     change    :  -0.7442623E-01 Eh
   gradient norm :     0.2648177 Eh/a0  converged?    E=F G=F D=F
   time step     :     0.3025000 fs     power     :   0.2566635E-05
   step length   :     0.3016813 a0     speed     :   0.2412338E-01

........................................................................
.............................. CYCLE    8 ..............................
........................................................................

 iter      E             dE          RMSdq      gap      omega  full diag
   1  -3769.5967684 -0.376960E+04  0.306E-02   10.64       0.0  T
   2  -3769.5972331 -0.464746E-03  0.164E-02   10.63       1.0  T
   3  -3769.5972479 -0.147589E-04  0.581E-03   10.63       1.0  T
   4  -3769.5972520 -0.413339E-05  0.135E-03   10.63       1.2  T
   5  -3769.5972534 -0.140537E-05  0.769E-04   10.63       2.2  T
   6  -3769.5972537 -0.224840E-06  0.219E-04   10.63       7.7  T
   7  -3769.5972537 -0.591704E-07  0.156E-04   10.63      10.8  T
     SCC iter.                  ...        7 min, 57.511 sec
     gradient                   ...        4 min, 18.600 sec
 * total energy  : -3715.9351055 Eh     change    :  -0.5561286E-01 Eh
   gradient norm :     0.2427357 Eh/a0  converged?    E=F G=F D=F
   time step     :     0.3327500 fs     power     :   0.1474712E-05
   step length   :     0.3457031 a0     speed     :   0.2513045E-01

........................................................................
.............................. CYCLE    9 ..............................
........................................................................

 iter      E             dE          RMSdq      gap      omega  full diag
   1  -3770.7311681 -0.377073E+04  0.325E-02   10.65       0.0  T
   2  -3770.7315500 -0.381920E-03  0.175E-02   10.64       1.0  T
   3  -3770.7315686 -0.186543E-04  0.540E-03   10.64       1.0  T
   4  -3770.7315720 -0.341757E-05  0.130E-03   10.64       1.3  T
   5  -3770.7315726 -0.516753E-06  0.755E-04   10.64       2.2  T
   6  -3770.7315728 -0.213246E-06  0.174E-04   10.64       9.7  T
     SCC iter.                  ...        6 min, 53.871 sec
     gradient                   ...        4 min, 18.058 sec
 * total energy  : -3715.9693783 Eh     change    :  -0.3427280E-01 Eh
   gradient norm :     0.2513207 Eh/a0  converged?    E=F G=F D=F
   time step     :     0.3660250 fs     power     :   0.5516068E-06
   step length   :     0.3779454 a0     speed     :   0.2497660E-01

........................................................................
.............................. CYCLE   10 ..............................
........................................................................

 iter      E             dE          RMSdq      gap      omega  full diag
   1  -3771.7826962 -0.377178E+04  0.333E-02   10.66       0.0  T
   2  -3771.7829419 -0.245654E-03  0.185E-02   10.66       1.0  T
   3  -3771.7829578 -0.159749E-04  0.474E-03   10.66       1.0  T
   4  -3771.7829660 -0.816722E-05  0.145E-03   10.66       1.2  T
   5  -3771.7829671 -0.106937E-05  0.819E-04   10.66       2.1  T
   6  -3771.7829672 -0.144642E-06  0.148E-04   10.66      11.4  T
   7  -3771.7829672 -0.251380E-07  0.111E-04   10.66      15.1  T
     SCC iter.                  ...        8 min,  5.323 sec
     gradient                   ...        4 min, 18.655 sec
 * total energy  : -3715.9861107 Eh     change    :  -0.1673238E-01 Eh
   gradient norm :     0.2613464 Eh/a0  converged?    E=F G=F D=F
   time step     :     0.4026275 fs     power     :  -0.4821103E-07
   step length   :     0.3959051 a0     speed     :   0.2378498E-01

........................................................................
.............................. CYCLE   11 ..............................
........................................................................
 * reset velocities

 iter      E             dE          RMSdq      gap      omega  full diag
   1  -3771.7640530 -0.377176E+04  0.105E-03   10.66       0.0  T
   2  -3771.7640539 -0.848869E-06  0.645E-04   10.66       2.6  T
   3  -3771.7640539 -0.118166E-07  0.272E-04   10.66       6.2  T
     SCC iter.                  ...        3 min, 30.149 sec
     gradient                   ...        4 min, 15.774 sec
 * total energy  : -3715.9886746 Eh     change    :  -0.2563831E-02 Eh
   gradient norm :     0.2550942 Eh/a0  converged?    E=F G=F D=F
   time step     :     0.2013138 fs     power     :   0.1669696E-06
   step length   :     0.0099305 a0     speed     :   0.1193204E-02

........................................................................
.............................. CYCLE   12 ..............................
........................................................................

 iter      E             dE          RMSdq      gap      omega  full diag
   1  -3771.7267066 -0.377173E+04  0.211E-03   10.66       0.0  T
   2  -3771.7267097 -0.318415E-05  0.129E-03   10.66       1.3  T
   3  -3771.7267098 -0.281939E-07  0.525E-04   10.66       3.2  T
   4  -3771.7267099 -0.841055E-07  0.137E-04   10.66      12.3  T
     SCC iter.                  ...        4 min, 33.154 sec
     gradient                   ...        4 min, 15.678 sec
 * total energy  : -3715.9935602 Eh     change    :  -0.4885673E-02 Eh
   gradient norm :     0.2429161 Eh/a0  converged?    E=F G=F D=F
   time step     :     0.2013138 fs     power     :   0.3141199E-06
   step length   :     0.0196233 a0     speed     :   0.2357840E-02

........................................................................
.............................. CYCLE   13 ..............................
........................................................................

 iter      E             dE          RMSdq      gap      omega  full diag
   1  -3771.6718794 -0.377167E+04  0.304E-03   10.66       0.0  T
   2  -3771.6718865 -0.716790E-05  0.187E-03   10.66       1.0  T
   3  -3771.6718866 -0.103612E-06  0.791E-04   10.66       2.1  T
   4  -3771.6718868 -0.189693E-06  0.208E-04   10.66       8.1  T
     SCC iter.                  ...        4 min, 37.010 sec
     gradient                   ...        4 min, 17.303 sec
 * total energy  : -3716.0003114 Eh     change    :  -0.6751186E-02 Eh
   gradient norm :     0.2252857 Eh/a0  converged?    E=F G=F D=F
   time step     :     0.2013138 fs     power     :   0.4280019E-06
   step length   :     0.0288517 a0     speed     :   0.3466680E-02

........................................................................
.............................. CYCLE   14 ..............................
........................................................................

 iter      E             dE          RMSdq      gap      omega  full diag
   1  -3771.6010111 -0.377160E+04  0.392E-03   10.66       0.0  T
   2  -3771.6010231 -0.119858E-04  0.241E-03   10.66       1.0  T
   3  -3771.6010233 -0.178966E-06  0.102E-03   10.66       1.6  T
   4  -3771.6010236 -0.315872E-06  0.271E-04   10.66       6.2  T
   5  -3771.6010237 -0.919554E-07  0.667E-05   10.66      25.2  T
     SCC iter.                  ...        5 min, 43.146 sec
     gradient                   ...        4 min, 18.011 sec
 * total energy  : -3716.0083079 Eh     change    :  -0.7996464E-02 Eh
   gradient norm :     0.2029740 Eh/a0  converged?    E=F G=F D=F
   time step     :     0.2013138 fs     power     :   0.4988854E-06
   step length   :     0.0374040 a0     speed     :   0.4494275E-02

........................................................................
.............................. CYCLE   15 ..............................
........................................................................

 iter      E             dE          RMSdq      gap      omega  full diag
   1  -3771.5160488 -0.377152E+04  0.469E-03   10.65       0.0  T
   2  -3771.5160661 -0.172990E-04  0.289E-03   10.65       1.0  T
   3  -3771.5160663 -0.263496E-06  0.123E-03   10.65       1.4  T
   4  -3771.5160668 -0.440481E-06  0.324E-04   10.66       5.2  T
   5  -3771.5160669 -0.131256E-06  0.793E-05   10.66      21.2  T
     SCC iter.                  ...        5 min, 44.080 sec
     gradient                   ...        4 min, 16.487 sec
 * total energy  : -3716.0168348 Eh     change    :  -0.8526956E-02 Eh
   gradient norm :     0.1770353 Eh/a0  converged?    E=F G=F D=F
   time step     :     0.2013138 fs     power     :   0.5217730E-06
   step length   :     0.0450902 a0     speed     :   0.5417812E-02

........................................................................
.............................. CYCLE   16 ..............................
........................................................................

 iter      E             dE          RMSdq      gap      omega  full diag
   1  -3771.4195052 -0.377142E+04  0.533E-03   10.65       0.0  T
   2  -3771.4195277 -0.224342E-04  0.329E-03   10.65       1.0  T
   3  -3771.4195280 -0.346645E-06  0.139E-03   10.65       1.2  T
   4  -3771.4195286 -0.559910E-06  0.369E-04   10.65       4.6  T
   5  -3771.4195288 -0.169312E-06  0.905E-05   10.65      18.6  T
     SCC iter.                  ...        5 min, 46.237 sec
     gradient                   ...        4 min, 16.907 sec
 * total energy  : -3716.0251653 Eh     change    :  -0.8330442E-02 Eh
   gradient norm :     0.1490543 Eh/a0  converged?    E=F G=F D=F
   time step     :     0.2013138 fs     power     :   0.4973507E-06
   step length   :     0.0517436 a0     speed     :   0.6217249E-02

........................................................................
.............................. CYCLE   17 ..............................
........................................................................

 iter      E             dE          RMSdq      gap      omega  full diag
   1  -3771.3030424 -0.377130E+04  0.645E-03   10.65       0.0  T
   2  -3771.3030754 -0.329378E-04  0.398E-03   10.65       1.0  T
   3  -3771.3030759 -0.513053E-06  0.169E-03   10.65       1.0  T
   4  -3771.3030767 -0.802020E-06  0.446E-04   10.65       3.8  T
   5  -3771.3030769 -0.246299E-06  0.108E-04   10.65      15.5  T
     SCC iter.                  ...        5 min, 44.972 sec
     gradient                   ...        4 min, 18.473 sec
 * total energy  : -3716.0333678 Eh     change    :  -0.8202512E-02 Eh
   gradient norm :     0.1186149 Eh/a0  converged?    E=F G=F D=F
   time step     :     0.2214451 fs     power     :   0.4231943E-06
   step length   :     0.0635522 a0     speed     :   0.6941917E-02

........................................................................
.............................. CYCLE   18 ..............................
........................................................................

 iter      E             dE          RMSdq      gap      omega  full diag
   1  -3771.1688705 -0.377117E+04  0.749E-03   10.65       0.0  T
   2  -3771.1689150 -0.445171E-04  0.464E-03   10.65       1.0  T
   3  -3771.1689157 -0.694520E-06  0.196E-03   10.65       1.0  T
   4  -3771.1689168 -0.106070E-05  0.520E-04   10.65       3.2  T
   5  -3771.1689171 -0.330946E-06  0.125E-04   10.65      13.4  T
   6  -3771.1689171 -0.116843E-07  0.848E-05   10.65      19.8  T
     SCC iter.                  ...        6 min, 59.306 sec
     gradient                   ...        4 min, 17.817 sec
 * total energy  : -3716.0404517 Eh     change    :  -0.7083893E-02 Eh
   gradient norm :     0.0918706 Eh/a0  converged?    E=F G=F D=F
   time step     :     0.2435896 fs     power     :   0.3028802E-06
   step length   :     0.0758003 a0     speed     :   0.7527096E-02

........................................................................
.............................. CYCLE   19 ..............................
........................................................................

 iter      E             dE          RMSdq      gap      omega  full diag
   1  -3771.0254604 -0.377103E+04  0.821E-03   10.65       0.0  T
   2  -3771.0255132 -0.528466E-04  0.512E-03   10.65       1.0  T
   3  -3771.0255140 -0.784416E-06  0.213E-03   10.65       1.0  T
   4  -3771.0255152 -0.125362E-05  0.566E-04   10.65       3.0  T
   5  -3771.0255156 -0.389597E-06  0.129E-04   10.65      13.0  T
   6  -3771.0255156 -0.102832E-07  0.831E-05   10.65      20.2  T
     SCC iter.                  ...        6 min, 51.981 sec
     gradient                   ...        4 min, 17.449 sec
 * total energy  : -3716.0454986 Eh     change    :  -0.5046960E-02 Eh
   gradient norm :     0.0820339 Eh/a0  converged?    E=F G=F D=F
   time step     :     0.2679486 fs     power     :   0.1610850E-06
   step length   :     0.0871006 a0     speed     :   0.7862934E-02

........................................................................
.............................. CYCLE   20 ..............................
........................................................................

 iter      E             dE          RMSdq      gap      omega  full diag
   1  -3770.8911500 -0.377089E+04  0.824E-03   10.66       0.0  T
   2  -3770.8912004 -0.503784E-04  0.519E-03   10.66       1.0  T
   3  -3770.8912010 -0.635162E-06  0.208E-03   10.66       1.0  T
   4  -3770.8912023 -0.129443E-05  0.557E-04   10.66       3.0  T
   5  -3770.8912027 -0.374324E-06  0.130E-04   10.66      13.0  T
   6  -3770.8912027 -0.879709E-08  0.778E-05   10.66      21.6  T
     SCC iter.                  ...        6 min, 52.164 sec
     gradient                   ...        4 min, 15.291 sec
 * total energy  : -3716.0483194 Eh     change    :  -0.2820756E-02 Eh
   gradient norm :     0.0953476 Eh/a0  converged?    E=F G=F D=F
   time step     :     0.2947435 fs     power     :   0.4930004E-07
   step length   :     0.0948609 a0     speed     :   0.7784991E-02
 * RMSD in coord.:     0.0373931 a0     energy gain  -0.7066828E+00 Eh

........................................................................
.............................. CYCLE   21 ..............................
........................................................................

 iter      E             dE          RMSdq      gap      omega  full diag
   1  -3770.8095255 -0.377081E+04  0.586E-03   10.66       0.0  T
   2  -3770.8095474 -0.218571E-04  0.372E-03   10.66       1.0  T
   3  -3770.8095475 -0.137029E-06  0.136E-03   10.66       1.2  T
   4  -3770.8095483 -0.725384E-06  0.369E-04   10.66       4.6  T
   5  -3770.8095484 -0.165981E-06  0.946E-05   10.66      17.8  T
     SCC iter.                  ...        5 min, 49.865 sec
     gradient                   ...        4 min, 17.777 sec
 * total energy  : -3716.0496649 Eh     change    :  -0.1345527E-02 Eh
   gradient norm :     0.1117285 Eh/a0  converged?    E=F G=F D=F
   time step     :     0.2500000 fs     power     :   0.2934855E-07
   step length   :     0.0752913 a0     speed     :   0.7284839E-02

........................................................................
.............................. CYCLE   22 ..............................
........................................................................

 iter      E             dE          RMSdq      gap      omega  full diag
   1  -3770.7630803 -0.377076E+04  0.484E-03   10.66       0.0  T
   2  -3770.7630905 -0.102351E-04  0.308E-03   10.66       1.0  T
   3  -3770.7630904  0.109513E-06  0.883E-04   10.66       1.9  T
   4  -3770.7630910 -0.562167E-06  0.253E-04   10.66       6.6  T
     SCC iter.                  ...        4 min, 36.109 sec
     gradient                   ...        4 min, 15.608 sec
 * total energy  : -3716.0512906 Eh     change    :  -0.1625682E-02 Eh
   gradient norm :     0.1235922 Eh/a0  converged?    E=F G=F D=F
   time step     :     0.2500000 fs     power     :   0.6262501E-07
   step length   :     0.0701088 a0     speed     :   0.6783406E-02

........................................................................
.............................. CYCLE   23 ..............................
........................................................................

 iter      E             dE          RMSdq      gap      omega  full diag
   1  -3770.7511654 -0.377075E+04  0.423E-03   10.67       0.0  T
   2  -3770.7511686 -0.314308E-05  0.264E-03   10.67       1.0  T
   3  -3770.7511685  0.121744E-06  0.406E-04   10.67       4.1  T
   4  -3770.7511688 -0.341550E-06  0.151E-04   10.67      11.1  T
     SCC iter.                  ...        4 min, 38.044 sec
     gradient                   ...        4 min, 17.124 sec
 * total energy  : -3716.0538677 Eh     change    :  -0.2577066E-02 Eh
   gradient norm :     0.1284417 Eh/a0  converged?    E=F G=F D=F
   time step     :     0.2500000 fs     power     :   0.1236498E-06
   step length   :     0.0665539 a0     speed     :   0.6439452E-02

........................................................................
.............................. CYCLE   24 ..............................
........................................................................

 iter      E             dE          RMSdq      gap      omega  full diag
   1  -3770.7713776 -0.377077E+04  0.414E-03   10.68       0.0  T
   2  -3770.7713781 -0.508720E-06  0.249E-03   10.68       1.0  T
   3  -3770.7713782 -0.942600E-07  0.184E-04   10.68       9.2  T
   4  -3770.7713782 -0.460568E-07  0.102E-04   10.68      16.5  T
     SCC iter.                  ...        4 min, 37.614 sec
     gradient                   ...        4 min, 16.842 sec
 * total energy  : -3716.0576017 Eh     change    :  -0.3734077E-02 Eh
   gradient norm :     0.1262022 Eh/a0  converged?    E=F G=F D=F
   time step     :     0.2500000 fs     power     :   0.1883867E-06
   step length   :     0.0652071 a0     speed     :   0.6309135E-02

........................................................................
.............................. CYCLE   25 ..............................
........................................................................

 iter      E             dE          RMSdq      gap      omega  full diag
   1  -3770.8203700 -0.377082E+04  0.447E-03   10.69       0.0  T
   2  -3770.8203713 -0.131787E-05  0.260E-03   10.69       1.0  T
   3  -3770.8203714 -0.229438E-07  0.363E-04   10.69       4.6  T
   4  -3770.8203715 -0.151866E-06  0.115E-04   10.69      14.6  T
     SCC iter.                  ...        4 min, 33.923 sec
     gradient                   ...        4 min, 17.567 sec
 * total energy  : -3716.0623307 Eh     change    :  -0.4728912E-02 Eh
   gradient norm :     0.1178536 Eh/a0  converged?    E=F G=F D=F
   time step     :     0.2500000 fs     power     :   0.2391576E-06
   step length   :     0.0658954 a0     speed     :   0.6375735E-02

........................................................................
.............................. CYCLE   26 ..............................
........................................................................

 iter      E             dE          RMSdq      gap      omega  full diag
   1  -3770.9032093 -0.377090E+04  0.556E-03   10.69       0.0  T
   2  -3770.9032148 -0.556188E-05  0.317E-03   10.69       1.0  T
   3  -3770.9032147  0.125754E-06  0.763E-04   10.69       2.2  T
   4  -3770.9032152 -0.475249E-06  0.171E-04   10.69       9.8  T
     SCC iter.                  ...        4 min, 32.681 sec
     gradient                   ...        4 min, 16.528 sec
 * total energy  : -3716.0682334 Eh     change    :  -0.5902763E-02 Eh
   gradient norm :     0.1035213 Eh/a0  converged?    E=F G=F D=F
   time step     :     0.2750000 fs     power     :   0.2655255E-06
   step length   :     0.0753697 a0     speed     :   0.6629472E-02

........................................................................
.............................. CYCLE   27 ..............................
........................................................................

 iter      E             dE          RMSdq      gap      omega  full diag
   1  -3771.0214220 -0.377102E+04  0.686E-03   10.70       0.0  T
   2  -3771.0214352 -0.131896E-04  0.388E-03   10.70       1.0  T
   3  -3771.0214350  0.186722E-06  0.114E-03   10.70       1.5  T
   4  -3771.0214358 -0.805304E-06  0.247E-04   10.70       6.8  T
   5  -3771.0214359 -0.969067E-07  0.116E-04   10.70      14.5  T
     SCC iter.                  ...        5 min, 44.900 sec
     gradient                   ...        4 min, 17.055 sec
 * total energy  : -3716.0747818 Eh     change    :  -0.6548331E-02 Eh
   gradient norm :     0.0856075 Eh/a0  converged?    E=F G=F D=F
   time step     :     0.3025000 fs     power     :   0.2573764E-06
   step length   :     0.0875934 a0     speed     :   0.7004242E-02

........................................................................
.............................. CYCLE   28 ..............................
........................................................................

 iter      E             dE          RMSdq      gap      omega  full diag
   1  -3771.1725754 -0.377117E+04  0.813E-03   10.72       0.0  T
   2  -3771.1725978 -0.224427E-04  0.458E-03   10.72       1.0  T
   3  -3771.1725976  0.183266E-06  0.143E-03   10.72       1.2  T
   4  -3771.1725987 -0.105341E-05  0.316E-04   10.71       5.3  T
   5  -3771.1725988 -0.161118E-06  0.129E-04   10.71      13.0  T
   6  -3771.1725989 -0.157052E-07  0.766E-05   10.71      22.0  T
     SCC iter.                  ...        6 min, 52.571 sec
     gradient                   ...        4 min, 16.898 sec
 * total energy  : -3716.0811827 Eh     change    :  -0.6400922E-02 Eh
   gradient norm :     0.0706608 Eh/a0  converged?    E=F G=F D=F
   time step     :     0.3327500 fs     power     :   0.2154263E-06
   step length   :     0.1018934 a0     speed     :   0.7407009E-02

........................................................................
.............................. CYCLE   29 ..............................
........................................................................

 iter      E             dE          RMSdq      gap      omega  full diag
   1  -3771.3454028 -0.377135E+04  0.899E-03   10.72       0.0  T
   2  -3771.3454304 -0.276373E-04  0.504E-03   10.72       1.0  T
   3  -3771.3454303  0.153357E-06  0.154E-03   10.72       1.1  T
   4  -3771.3454314 -0.109355E-05  0.348E-04   10.72       4.8  T
   5  -3771.3454316 -0.195364E-06  0.132E-04   10.72      12.8  T
   6  -3771.3454316 -0.135137E-07  0.742E-05   10.72      22.7  T
     SCC iter.                  ...        6 min, 54.790 sec
     gradient                   ...        4 min, 16.208 sec
 * total energy  : -3716.0867677 Eh     change    :  -0.5584996E-02 Eh
   gradient norm :     0.0680790 Eh/a0  converged?    E=F G=F D=F
   time step     :     0.3660250 fs     power     :   0.1595035E-06
   step length   :     0.1167591 a0     speed     :   0.7716054E-02

........................................................................
.............................. CYCLE   30 ..............................
........................................................................

 iter      E             dE          RMSdq      gap      omega  full diag
   1  -3771.5161624 -0.377152E+04  0.905E-03   10.73       0.0  T
   2  -3771.5161847 -0.223887E-04  0.506E-03   10.73       1.0  T
   3  -3771.5161847  0.499358E-08  0.134E-03   10.73       1.3  T
   4  -3771.5161855 -0.745381E-06  0.307E-04   10.73       5.5  T
   5  -3771.5161856 -0.144556E-06  0.128E-04   10.73      13.1  T
     SCC iter.                  ...        5 min, 42.461 sec
     gradient                   ...        4 min, 17.395 sec
 * total energy  : -3716.0916132 Eh     change    :  -0.4845494E-02 Eh
   gradient norm :     0.0761408 Eh/a0  converged?    E=F G=F D=F
   time step     :     0.4026275 fs     power     :   0.1240258E-06
   step length   :     0.1300336 a0     speed     :   0.7812091E-02

........................................................................
.............................. CYCLE   31 ..............................
........................................................................

 iter      E             dE          RMSdq      gap      omega  full diag
   1  -3771.6575225 -0.377166E+04  0.847E-03   10.74       0.0  T
   2  -3771.6575328 -0.102454E-04  0.477E-03   10.74       1.0  T
   3  -3771.6575331 -0.288871E-06  0.858E-04   10.74       2.0  T
   4  -3771.6575333 -0.224094E-06  0.201E-04   10.74       8.3  T
     SCC iter.                  ...        4 min, 33.284 sec
     gradient                   ...        4 min, 18.079 sec
 * total energy  : -3716.0966249 Eh     change    :  -0.5011725E-02 Eh
   gradient norm :     0.0820128 Eh/a0  converged?    E=F G=F D=F
   time step     :     0.4428903 fs     power     :   0.1249323E-06
   step length   :     0.1422376 a0     speed     :   0.7768431E-02

........................................................................
.............................. CYCLE   32 ..............................
........................................................................

 iter      E             dE          RMSdq      gap      omega  full diag
   1  -3771.7466433 -0.377175E+04  0.785E-03   10.74       0.0  T
   2  -3771.7466461 -0.278903E-05  0.460E-03   10.74       1.0  T
   3  -3771.7466460  0.147384E-06  0.629E-04   10.74       2.7  T
   4  -3771.7466467 -0.713709E-06  0.189E-04   10.74       8.9  T
     SCC iter.                  ...        4 min, 31.266 sec
     gradient                   ...        4 min, 16.484 sec
 * total energy  : -3716.1026806 Eh     change    :  -0.6055755E-02 Eh
   gradient norm :     0.0775924 Eh/a0  converged?    E=F G=F D=F
   time step     :     0.4871793 fs     power     :   0.1429777E-06
   step length   :     0.1565794 a0     speed     :   0.7774293E-02

........................................................................
.............................. CYCLE   33 ..............................
........................................................................

 iter      E             dE          RMSdq      gap      omega  full diag
   1  -3771.7688970 -0.377177E+04  0.785E-03   10.75       0.0  T
   2  -3771.7689077 -0.106709E-04  0.492E-03   10.75       1.0  T
   3  -3771.7689062  0.147237E-05  0.115E-03   10.75       1.5  T
   4  -3771.7689089 -0.268511E-05  0.223E-04   10.75       7.5  T
   5  -3771.7689089 -0.338491E-07  0.123E-04   10.75      13.6  T
   6  -3771.7689089 -0.635964E-08  0.508E-05   10.75      33.1  T
     SCC iter.                  ...        6 min, 51.669 sec
     gradient                   ...        4 min, 17.813 sec
 * total energy  : -3716.1096147 Eh     change    :  -0.6934102E-02 Eh
   gradient norm :     0.0647461 Eh/a0  converged?    E=F G=F D=F
   time step     :     0.5358972 fs     power     :   0.1427358E-06
   step length   :     0.1753418 a0     speed     :   0.7914418E-02

........................................................................
.............................. CYCLE   34 ..............................
........................................................................

 iter      E             dE          RMSdq      gap      omega  full diag
   1  -3771.7273628 -0.377173E+04  0.841E-03   10.75       0.0  T
   2  -3771.7273930 -0.302127E-04  0.548E-03   10.75       1.0  T
   3  -3771.7273923  0.691144E-06  0.168E-03   10.75       1.0  T
   4  -3771.7273948 -0.244594E-05  0.393E-04   10.75       4.3  T
   5  -3771.7273950 -0.213624E-06  0.150E-04   10.75      11.2  T
   6  -3771.7273950 -0.131135E-07  0.766E-05   10.75      21.9  T
     SCC iter.                  ...        6 min, 49.567 sec
     gradient                   ...        4 min, 17.177 sec
 * total energy  : -3716.1162230 Eh     change    :  -0.6608233E-02 Eh
   gradient norm :     0.0580267 Eh/a0  converged?    E=F G=F D=F
   time step     :     0.5894869 fs     power     :   0.1112094E-06
   step length   :     0.1976865 a0     speed     :   0.8111811E-02

........................................................................
.............................. CYCLE   35 ..............................
........................................................................

 iter      E             dE          RMSdq      gap      omega  full diag
   1  -3771.6609177 -0.377166E+04  0.890E-03   10.76       0.0  T
   2  -3771.6609522 -0.344401E-04  0.572E-03   10.76       1.0  T
   3  -3771.6609520  0.173588E-06  0.159E-03   10.76       1.1  T
   4  -3771.6609536 -0.164716E-05  0.488E-04   10.76       3.4  T
   5  -3771.6609539 -0.296239E-06  0.168E-04   10.76      10.0  T
   6  -3771.6609540 -0.127930E-07  0.715E-05   10.76      23.5  T
     SCC iter.                  ...        6 min, 51.216 sec
     gradient                   ...        4 min, 16.391 sec
 * total energy  : -3716.1220111 Eh     change    :  -0.5788087E-02 Eh
   gradient norm :     0.0641980 Eh/a0  converged?    E=F G=F D=F
   time step     :     0.6484356 fs     power     :   0.8503429E-07
   step length   :     0.2194149 a0     speed     :   0.8184920E-02

........................................................................
.............................. CYCLE   36 ..............................
........................................................................

 iter      E             dE          RMSdq      gap      omega  full diag
   1  -3771.6308552 -0.377163E+04  0.996E-03   10.78       0.0  T
   2  -3771.6308704 -0.151457E-04  0.599E-03   10.78       1.0  T
   3  -3771.6308711 -0.764398E-06  0.885E-04   10.78       1.9  T
   4  -3771.6308716 -0.457151E-06  0.318E-04   10.78       5.3  T
     SCC iter.                  ...        4 min, 36.028 sec
     gradient                   ...        4 min, 18.083 sec
 * total energy  : -3716.1281560 Eh     change    :  -0.6144911E-02 Eh
   gradient norm :     0.0636536 Eh/a0  converged?    E=F G=F D=F
   time step     :     0.7132792 fs     power     :   0.8862108E-07
   step length   :     0.2402861 a0     speed     :   0.8148623E-02

........................................................................
.............................. CYCLE   37 ..............................
........................................................................

 iter      E             dE          RMSdq      gap      omega  full diag
   1  -3771.6824302 -0.377168E+04  0.121E-02   10.81       0.0  T
   2  -3771.6824385 -0.835369E-05  0.700E-03   10.81       1.0  T
   3  -3771.6824383  0.201454E-06  0.124E-03   10.81       1.4  T
   4  -3771.6824404 -0.210635E-05  0.350E-04   10.81       4.8  T
   5  -3771.6824404 -0.159530E-07  0.126E-04   10.81      13.4  T
   6  -3771.6824404 -0.603632E-08  0.319E-05   10.81      52.7  T
     SCC iter.                  ...        6 min, 56.066 sec
     gradient                   ...        4 min, 16.378 sec
 * total energy  : -3716.1348650 Eh     change    :  -0.6709062E-02 Eh
   gradient norm :     0.0516647 Eh/a0  converged?    E=F G=F D=F
   time step     :     0.7846071 fs     power     :   0.8117110E-07
   step length   :     0.2657363 a0     speed     :   0.8192448E-02

........................................................................
.............................. CYCLE   38 ..............................
........................................................................

 iter      E             dE          RMSdq      gap      omega  full diag
   1  -3771.8133998 -0.377181E+04  0.133E-02   10.84       0.0  T
   2  -3771.8134233 -0.234915E-04  0.769E-03   10.84       1.0  T
   3  -3771.8134221  0.114493E-05  0.171E-03   10.84       1.0  T
   4  -3771.8134255 -0.341145E-05  0.363E-04   10.84       4.6  T
   5  -3771.8134256 -0.108503E-06  0.180E-04   10.84       9.4  T
   6  -3771.8134257 -0.900673E-08  0.588E-05   10.84      28.6  T
     SCC iter.                  ...        6 min, 48.526 sec
     gradient                   ...        4 min, 16.833 sec
 * total energy  : -3716.1403739 Eh     change    :  -0.5508904E-02 Eh
   gradient norm :     0.0538167 Eh/a0  converged?    E=F G=F D=F
   time step     :     0.8630678 fs     power     :   0.4612527E-07
   step length   :     0.2938683 a0     speed     :   0.8236126E-02

........................................................................
.............................. CYCLE   39 ..............................
........................................................................

 iter      E             dE          RMSdq      gap      omega  full diag
   1  -3771.9466690 -0.377195E+04  0.118E-02   10.86       0.0  T
   2  -3771.9466828 -0.138556E-04  0.689E-03   10.86       1.0  T
   3  -3771.9466832 -0.362226E-06  0.101E-03   10.86       1.7  T
   4  -3771.9466840 -0.801817E-06  0.273E-04   10.86       6.2  T
   5  -3771.9466840 -0.434125E-07  0.143E-04   10.86      11.7  T
     SCC iter.                  ...        5 min, 45.506 sec
     gradient                   ...        4 min, 18.290 sec
 * total energy  : -3716.1454292 Eh     change    :  -0.5055278E-02 Eh
   gradient norm :     0.0585495 Eh/a0  converged?    E=F G=F D=F
   time step     :     0.9493746 fs     power     :   0.4365326E-07
   step length   :     0.3172917 a0     speed     :   0.8084185E-02

........................................................................
.............................. CYCLE   40 ..............................
........................................................................

 iter      E             dE          RMSdq      gap      omega  full diag
   1  -3772.0145790 -0.377201E+04  0.116E-02   10.88       0.0  T
   2  -3772.0145950 -0.160523E-04  0.694E-03   10.88       1.0  T
   3  -3772.0145930  0.202130E-05  0.159E-03   10.88       1.1  T
   4  -3772.0145977 -0.468006E-05  0.339E-04   10.88       5.0  T
   5  -3772.0145977 -0.398381E-07  0.184E-04   10.88       9.2  T
   6  -3772.0145977 -0.181831E-07  0.722E-05   10.88      23.3  T
     SCC iter.                  ...        6 min, 55.927 sec
     gradient                   ...        4 min, 16.611 sec
 * total energy  : -3716.1514435 Eh     change    :  -0.6014321E-02 Eh
   gradient norm :     0.0493417 Eh/a0  converged?    E=F G=F D=F
   time step     :     1.0443120 fs     power     :   0.4591227E-07
   step length   :     0.3454970 a0     speed     :   0.8002563E-02

........................................................................
.............................. CYCLE   41 ..............................
........................................................................

 iter      E             dE          RMSdq      gap      omega  full diag
   1  -3772.0368482 -0.377204E+04  0.127E-02   10.90       0.0  T
   2  -3772.0368787 -0.305310E-04  0.782E-03   10.90       1.0  T
   3  -3772.0368767  0.202030E-05  0.175E-03   10.90       1.0  T
   4  -3772.0368818 -0.509276E-05  0.432E-04   10.90       3.9  T
   5  -3772.0368820 -0.168051E-06  0.231E-04   10.90       7.3  T
   6  -3772.0368820 -0.348759E-07  0.105E-04   10.90      16.1  T
     SCC iter.                  ...        7 min,  0.732 sec
     gradient                   ...        4 min, 18.136 sec
 * total energy  : -3716.1565534 Eh     change    :  -0.5109839E-02 Eh
   gradient norm :     0.0501757 Eh/a0  converged?    E=F G=F D=F
   time step     :     1.1487432 fs     power     :   0.2261209E-07
   step length   :     0.3784808 a0     speed     :   0.7969590E-02

........................................................................
.............................. CYCLE   42 ..............................
........................................................................

 iter      E             dE          RMSdq      gap      omega  full diag
   1  -3772.1073870 -0.377211E+04  0.141E-02   10.93       0.0  T
   2  -3772.1073953 -0.826735E-05  0.821E-03   10.93       1.0  T
   3  -3772.1073956 -0.304371E-06  0.101E-03   10.93       1.7  T
   4  -3772.1073968 -0.118757E-05  0.324E-04   10.93       5.2  T
   5  -3772.1073968 -0.255345E-07  0.155E-04   10.93      10.8  T
   6  -3772.1073968 -0.108598E-07  0.488E-05   10.93      34.4  T
     SCC iter.                  ...        6 min, 55.687 sec
     gradient                   ...        4 min, 18.374 sec
 * total energy  : -3716.1607486 Eh     change    :  -0.4195187E-02 Eh
   gradient norm :     0.0472444 Eh/a0  converged?    E=F G=F D=F
   time step     :     1.2500000 fs     power     :   0.1050764E-07
   step length   :     0.4027174 a0     speed     :   0.7793015E-02
 * RMSD in coord.:     0.0601470 a0     energy gain  -0.1124292E+00 Eh

........................................................................
.............................. CYCLE   43 ..............................
........................................................................

 iter      E             dE          RMSdq      gap      omega  full diag
   1  -3772.1215511 -0.377212E+04  0.239E-03   10.94       0.0  T
   2  -3772.1215513 -0.280171E-06  0.138E-03   10.94       1.2  T
   3  -3772.1215513  0.161872E-07  0.208E-04   10.94       8.1  T
   4  -3772.1215514 -0.615687E-07  0.514E-05   10.94      32.7  T
     SCC iter.                  ...        4 min, 30.311 sec
     gradient                   ...        4 min, 17.133 sec
 * total energy  : -3716.1613578 Eh     change    :  -0.6092141E-03 Eh
   gradient norm :     0.0474909 Eh/a0  converged?    E=F G=F D=F
   time step     :     0.2500000 fs     power     :   0.2807816E-07
   step length   :     0.0738474 a0     speed     :   0.7145133E-02

........................................................................
.............................. CYCLE   44 ..............................
........................................................................

 iter      E             dE          RMSdq      gap      omega  full diag
   1  -3772.1347093 -0.377213E+04  0.230E-03   10.95       0.0  T
   2  -3772.1347099 -0.530310E-06  0.135E-03   10.95       1.2  T
   3  -3772.1347098  0.242276E-07  0.237E-04   10.95       7.1  T
   4  -3772.1347099 -0.720142E-07  0.502E-05   10.95      33.5  T
     SCC iter.                  ...        4 min, 30.198 sec
     gradient                   ...        4 min, 19.317 sec
 * total energy  : -3716.1622351 Eh     change    :  -0.8773424E-03 Eh
   gradient norm :     0.0440003 Eh/a0  converged?    E=F G=F D=F
   time step     :     0.2500000 fs     power     :   0.4221987E-07
   step length   :     0.0687352 a0     speed     :   0.6650501E-02

........................................................................
.............................. CYCLE   45 ..............................
........................................................................

 iter      E             dE          RMSdq      gap      omega  full diag
   1  -3772.1452639 -0.377215E+04  0.246E-03   10.95       0.0  T
   2  -3772.1452648 -0.829384E-06  0.148E-03   10.95       1.1  T
   3  -3772.1452647  0.107893E-07  0.261E-04   10.95       6.4  T
   4  -3772.1452648 -0.745317E-07  0.625E-05   10.95      26.9  T
     SCC iter.                  ...        4 min, 39.913 sec
     gradient                   ...        4 min, 17.692 sec
 * total energy  : -3716.1632559 Eh     change    :  -0.1020809E-02 Eh
   gradient norm :     0.0378592 Eh/a0  converged?    E=F G=F D=F
   time step     :     0.2500000 fs     power     :   0.4827857E-07
   step length   :     0.0649906 a0     speed     :   0.6288185E-02

........................................................................
.............................. CYCLE   46 ..............................
........................................................................

 iter      E             dE          RMSdq      gap      omega  full diag
   1  -3772.1515590 -0.377215E+04  0.270E-03   10.96       0.0  T
   2  -3772.1515600 -0.101009E-05  0.164E-03   10.96       1.0  T
   3  -3772.1515600 -0.971249E-08  0.270E-04   10.96       6.2  T
   4  -3772.1515601 -0.759710E-07  0.741E-05   10.96      22.7  T
     SCC iter.                  ...        4 min, 42.451 sec
     gradient                   ...        4 min, 16.648 sec
 * total energy  : -3716.1642576 Eh     change    :  -0.1001642E-02 Eh
   gradient norm :     0.0307753 Eh/a0  converged?    E=F G=F D=F
   time step     :     0.2500000 fs     power     :   0.4535400E-07
   step length   :     0.0622434 a0     speed     :   0.6022388E-02

........................................................................
.............................. CYCLE   47 ..............................
........................................................................

 iter      E             dE          RMSdq      gap      omega  full diag
   1  -3772.1519626 -0.377215E+04  0.289E-03   10.96       0.0  T
   2  -3772.1519635 -0.990604E-06  0.176E-03   10.96       1.0  T
   3  -3772.1519636 -0.270061E-07  0.265E-04   10.96       6.3  T
   4  -3772.1519637 -0.801501E-07  0.829E-05   10.96      20.3  T
     SCC iter.                  ...        4 min, 32.627 sec
     gradient                   ...        4 min, 16.048 sec
 * total energy  : -3716.1651036 Eh     change    :  -0.8459801E-03 Eh
   gradient norm :     0.0252810 Eh/a0  converged?    E=F G=F D=F
   time step     :     0.2500000 fs     power     :   0.3585611E-07
   step length   :     0.0600316 a0     speed     :   0.5808375E-02

........................................................................
.............................. CYCLE   48 ..............................
........................................................................

 iter      E             dE          RMSdq      gap      omega  full diag
   1  -3772.1446098 -0.377214E+04  0.322E-03   10.96       0.0  T
   2  -3772.1446108 -0.969142E-06  0.194E-03   10.96       1.0  T
   3  -3772.1446108 -0.294322E-07  0.290E-04   10.96       5.8  T
   4  -3772.1446109 -0.117665E-06  0.978E-05   10.96      17.2  T
     SCC iter.                  ...        4 min, 31.172 sec
     gradient                   ...        4 min, 16.761 sec
 * total energy  : -3716.1657851 Eh     change    :  -0.6815789E-03 Eh
   gradient norm :     0.0239884 Eh/a0  converged?    E=F G=F D=F
   time step     :     0.2750000 fs     power     :   0.2325463E-07
   step length   :     0.0636143 a0     speed     :   0.5595477E-02

........................................................................
.............................. CYCLE   49 ..............................
........................................................................

 iter      E             dE          RMSdq      gap      omega  full diag
   1  -3772.1289603 -0.377213E+04  0.330E-03   10.97       0.0  T
   2  -3772.1289611 -0.849635E-06  0.195E-03   10.97       1.0  T
   3  -3772.1289611 -0.198497E-08  0.322E-04   10.97       5.2  T
   4  -3772.1289613 -0.169749E-06  0.104E-04   10.97      16.2  T
     SCC iter.                  ...        4 min, 32.572 sec
     gradient                   ...        4 min, 18.428 sec
 * total energy  : -3716.1662942 Eh     change    :  -0.5090721E-03 Eh
   gradient norm :     0.0271333 Eh/a0  converged?    E=F G=F D=F
   time step     :     0.3025000 fs     power     :   0.1423896E-07
   step length   :     0.0664353 a0     speed     :   0.5312371E-02

........................................................................
.............................. CYCLE   50 ..............................
........................................................................

 iter      E             dE          RMSdq      gap      omega  full diag
   1  -3772.1073559 -0.377211E+04  0.318E-03   10.97       0.0  T
   2  -3772.1073568 -0.822410E-06  0.184E-03   10.97       1.0  T
   3  -3772.1073567  0.180694E-07  0.336E-04   10.97       5.0  T
   4  -3772.1073569 -0.180049E-06  0.966E-05   10.97      17.4  T
     SCC iter.                  ...        4 min, 36.013 sec
     gradient                   ...        4 min, 16.690 sec
 * total energy  : -3716.1667458 Eh     change    :  -0.4515848E-03 Eh
   gradient norm :     0.0309566 Eh/a0  converged?    E=F G=F D=F
   time step     :     0.3327500 fs     power     :   0.1235996E-07
   step length   :     0.0684211 a0     speed     :   0.4973787E-02

........................................................................
.............................. CYCLE   51 ..............................
........................................................................

 iter      E             dE          RMSdq      gap      omega  full diag
   1  -3772.0832967 -0.377208E+04  0.305E-03   10.97       0.0  T
   2  -3772.0832976 -0.929530E-06  0.174E-03   10.97       1.0  T
   3  -3772.0832976  0.160621E-07  0.329E-04   10.97       5.1  T
   4  -3772.0832978 -0.141846E-06  0.822E-05   10.97      20.5  T
     SCC iter.                  ...        4 min, 40.213 sec
     gradient                   ...        4 min, 17.788 sec
 * total energy  : -3716.1672935 Eh     change    :  -0.5477137E-03 Eh
   gradient norm :     0.0326328 Eh/a0  converged?    E=F G=F D=F
   time step     :     0.3660250 fs     power     :   0.1598190E-07
   step length   :     0.0704731 a0     speed     :   0.4657230E-02

........................................................................
.............................. CYCLE   52 ..............................
........................................................................

 iter      E             dE          RMSdq      gap      omega  full diag
   1  -3772.0607398 -0.377206E+04  0.311E-03   10.98       0.0  T
   2  -3772.0607409 -0.107364E-05  0.178E-03   10.98       1.0  T
   3  -3772.0607409  0.623368E-08  0.310E-04   10.98       5.4  T
   4  -3772.0607410 -0.956488E-07  0.681E-05   10.98      24.7  T
     SCC iter.                  ...        4 min, 31.605 sec
     gradient                   ...        4 min, 17.077 sec
 * total energy  : -3716.1680325 Eh     change    :  -0.7389843E-03 Eh
   gradient norm :     0.0312392 Eh/a0  converged?    E=F G=F D=F
   time step     :     0.4026275 fs     power     :   0.2090790E-07
   step length   :     0.0734681 a0     speed     :   0.4413779E-02

........................................................................
.............................. CYCLE   53 ..............................
........................................................................

 iter      E             dE          RMSdq      gap      omega  full diag
   1  -3772.0441188 -0.377204E+04  0.341E-03   10.98       0.0  T
   2  -3772.0441199 -0.109647E-05  0.198E-03   10.98       1.0  T
   3  -3772.0441199 -0.727778E-08  0.284E-04   10.98       5.9  T
   4  -3772.0441200 -0.710224E-07  0.610E-05   10.98      27.6  T
     SCC iter.                  ...        4 min, 42.284 sec
     gradient                   ...        4 min, 18.214 sec
 * total energy  : -3716.1689413 Eh     change    :  -0.9088622E-03 Eh
   gradient norm :     0.0273850 Eh/a0  converged?    E=F G=F D=F
   time step     :     0.4428903 fs     power     :   0.2296930E-07
   step length   :     0.0779184 a0     speed     :   0.4255583E-02

........................................................................
.............................. CYCLE   54 ..............................
........................................................................

 iter      E             dE          RMSdq      gap      omega  full diag
   1  -3772.0380916 -0.377204E+04  0.381E-03   10.98       0.0  T
   2  -3772.0380925 -0.914507E-06  0.224E-03   10.98       1.0  T
   3  -3772.0380926 -0.935552E-08  0.274E-04   10.98       6.1  T
   4  -3772.0380927 -0.963337E-07  0.768E-05   10.98      21.9  T
     SCC iter.                  ...        4 min, 46.433 sec
     gradient                   ...        4 min, 19.169 sec
 * total energy  : -3716.1698882 Eh     change    :  -0.9468833E-03 Eh
   gradient norm :     0.0233001 Eh/a0  converged?    E=F G=F D=F
   time step     :     0.4871793 fs     power     :   0.2020991E-07
   step length   :     0.0837787 a0     speed     :   0.4159680E-02

........................................................................
.............................. CYCLE   55 ..............................
........................................................................

 iter      E             dE          RMSdq      gap      omega  full diag
   1  -3772.0459296 -0.377205E+04  0.401E-03   10.98       0.0  T
   2  -3772.0459304 -0.782116E-06  0.237E-03   10.98       1.0  T
   3  -3772.0459304  0.238060E-07  0.318E-04   10.98       5.3  T
   4  -3772.0459306 -0.183799E-06  0.102E-04   10.98      16.5  T
     SCC iter.                  ...        4 min, 35.262 sec
     gradient                   ...        4 min, 18.324 sec
 * total energy  : -3716.1707232 Eh     change    :  -0.8349912E-03 Eh
   gradient norm :     0.0220100 Eh/a0  converged?    E=F G=F D=F
   time step     :     0.5358972 fs     power     :   0.1444752E-07
   step length   :     0.0902697 a0     speed     :   0.4074511E-02

........................................................................
.............................. CYCLE   56 ..............................
........................................................................

 iter      E             dE          RMSdq      gap      omega  full diag
   1  -3772.0657968 -0.377207E+04  0.385E-03   10.99       0.0  T
   2  -3772.0657979 -0.114317E-05  0.227E-03   10.99       1.0  T
   3  -3772.0657979  0.244718E-07  0.367E-04   10.99       4.6  T
   4  -3772.0657981 -0.203262E-06  0.113E-04   10.99      14.9  T
     SCC iter.                  ...        4 min, 31.577 sec
     gradient                   ...        4 min, 17.545 sec
 * total energy  : -3716.1714217 Eh     change    :  -0.6984595E-03 Eh
   gradient norm :     0.0238865 Eh/a0  converged?    E=F G=F D=F
   time step     :     0.5894869 fs     power     :   0.1023133E-07
   step length   :     0.0962062 a0     speed     :   0.3947697E-02

........................................................................
.............................. CYCLE   57 ..............................
........................................................................

 iter      E             dE          RMSdq      gap      omega  full diag
   1  -3772.0899714 -0.377209E+04  0.351E-03   10.99       0.0  T
   2  -3772.0899730 -0.160907E-05  0.206E-03   10.99       1.0  T
   3  -3772.0899730 -0.194427E-07  0.382E-04   10.99       4.4  T
   4  -3772.0899732 -0.125347E-06  0.105E-04   10.99      16.0  T
     SCC iter.                  ...        4 min, 33.835 sec
     gradient                   ...        4 min, 18.509 sec
 * total energy  : -3716.1721348 Eh     change    :  -0.7131569E-03 Eh
   gradient norm :     0.0261793 Eh/a0  converged?    E=F G=F D=F
   time step     :     0.6484356 fs     power     :   0.1055343E-07
   step length   :     0.1016697 a0     speed     :   0.3792625E-02

........................................................................
.............................. CYCLE   58 ..............................
........................................................................

 iter      E             dE          RMSdq      gap      omega  full diag
   1  -3772.1086103 -0.377211E+04  0.337E-03   10.99       0.0  T
   2  -3772.1086117 -0.133796E-05  0.197E-03   10.99       1.0  T
   3  -3772.1086117 -0.470473E-07  0.329E-04   10.99       5.1  T
   4  -3772.1086118 -0.718278E-07  0.900E-05   10.99      18.7  T
     SCC iter.                  ...        4 min, 31.967 sec
     gradient                   ...        4 min, 15.860 sec
 * total energy  : -3716.1730725 Eh     change    :  -0.9376917E-03 Eh
   gradient norm :     0.0259755 Eh/a0  converged?    E=F G=F D=F
   time step     :     0.7132792 fs     power     :   0.1427932E-07
   step length   :     0.1083940 a0     speed     :   0.3675874E-02

........................................................................
.............................. CYCLE   59 ..............................
........................................................................

 iter      E             dE          RMSdq      gap      omega  full diag
   1  -3772.1128322 -0.377211E+04  0.374E-03   10.99       0.0  T
   2  -3772.1128329 -0.750706E-06  0.219E-03   10.99       1.0  T
   3  -3772.1128330 -0.706782E-07  0.287E-04   10.99       5.9  T
   4  -3772.1128331 -0.803520E-07  0.101E-04   10.99      16.7  T
     SCC iter.                  ...        4 min, 44.207 sec
     gradient                   ...        4 min, 17.215 sec
 * total energy  : -3716.1742788 Eh     change    :  -0.1206290E-02 Eh
   gradient norm :     0.0222842 Eh/a0  converged?    E=F G=F D=F
   time step     :     0.7846071 fs     power     :   0.1652133E-07
   step length   :     0.1181648 a0     speed     :   0.3642931E-02

........................................................................
.............................. CYCLE   60 ..............................
........................................................................

 iter      E             dE          RMSdq      gap      omega  full diag
   1  -3772.0976980 -0.377210E+04  0.439E-03   10.99       0.0  T
   2  -3772.0976994 -0.144019E-05  0.256E-03   10.99       1.0  T
   3  -3772.0976995 -0.906211E-07  0.403E-04   10.99       4.2  T
   4  -3772.0976996 -0.135383E-06  0.121E-04   10.99      13.9  T
     SCC iter.                  ...        4 min, 30.758 sec
     gradient                   ...        4 min, 16.676 sec
 * total energy  : -3716.1755118 Eh     change    :  -0.1232948E-02 Eh
   gradient norm :     0.0201731 Eh/a0  converged?    E=F G=F D=F
   time step     :     0.8630678 fs     power     :   0.1357052E-07
   step length   :     0.1309461 a0     speed     :   0.3669972E-02

........................................................................
.............................. CYCLE   61 ..............................
........................................................................

 iter      E             dE          RMSdq      gap      omega  full diag
   1  -3772.0686015 -0.377207E+04  0.451E-03   10.99       0.0  T
   2  -3772.0686039 -0.238364E-05  0.260E-03   10.99       1.0  T
   3  -3772.0686040 -0.984869E-07  0.491E-04   10.99       3.4  T
   4  -3772.0686041 -0.137789E-06  0.121E-04   10.99      13.9  T
     SCC iter.                  ...        4 min, 34.018 sec
     gradient                   ...        4 min, 17.887 sec
 * total energy  : -3716.1766720 Eh     change    :  -0.1160253E-02 Eh
   gradient norm :     0.0230027 Eh/a0  converged?    E=F G=F D=F
   time step     :     0.9493746 fs     power     :   0.1167693E-07
   step length   :     0.1440638 a0     speed     :   0.3670561E-02

........................................................................
.............................. CYCLE   62 ..............................
........................................................................

 iter      E             dE          RMSdq      gap      omega  full diag
   1  -3772.0432604 -0.377204E+04  0.423E-03   10.99       0.0  T
   2  -3772.0432622 -0.176899E-05  0.243E-03   10.99       1.0  T
   3  -3772.0432623 -0.997306E-07  0.443E-04   10.99       3.8  T
   4  -3772.0432624 -0.124263E-06  0.119E-04   10.99      14.2  T
     SCC iter.                  ...        4 min, 45.747 sec
     gradient                   ...        4 min, 18.095 sec
 * total energy  : -3716.1780844 Eh     change    :  -0.1412418E-02 Eh
   gradient norm :     0.0213715 Eh/a0  converged?    E=F G=F D=F
   time step     :     1.0443120 fs     power     :   0.1432204E-07
   step length   :     0.1582716 a0     speed     :   0.3665960E-02

........................................................................
[...]
  3284   6 C     3285   6 C                                       1.5270360
  3284   6 C     3286   6 C                                       1.5320320
  3286   6 C     3287   6 C                                       1.5365764
  3287   6 C     3288   6 C                                       1.5285372
  3287   6 C     3289   6 C                                       1.5328348
  3289   6 C     3290   6 C                                       1.5349153
  3290   6 C     3291   6 C                                       1.5299682
  3292   6 C     3293   6 C                                       1.5342274
  3293   6 C     3294   6 C                                       1.5291555
  3293   6 C     3295   6 C                                       1.5354941
  3295   6 C     3296   6 C                                       1.5354337
  3296   6 C     3297   6 C                                       1.5268709
  3296   6 C     3298   6 C                                       1.5349819
  3298   6 C     3299   6 C                                       1.5350581
  3299   6 C     3300   6 C                                       1.5284734
  3299   6 C     3301   6 C                                       1.5328011
  3301   6 C     3302   6 C                                       1.5354390
  3302   6 C     3303   6 C                                       1.5291920
  3302   6 C     3304   6 C                                       1.5314000
  3304   6 C     3305   6 C                                       1.5335057
  3305   6 C     3306   6 C                                       1.5257078
  3305   6 C     3307   6 C                                       1.5344888
  3307   6 C     3308   6 C                                       1.5393716
  3308   6 C     3309   6 C                                       1.5286454
  3308   6 C     3310   6 C                                       1.5344510
  3310   6 C     3311   6 C                                       1.5318970
  3311   6 C     3312   6 C                                       1.5274891
  3313   6 C     3314   6 C                                       1.5381389
  3314   6 C     3315   6 C                                       1.5253003
  3314   6 C     3316   6 C                                       1.5331934
  3317   6 C     3318   6 C                                       1.5261563
  3317   6 C     3319   6 C                                       1.5340143
  3319   6 C     3320   6 C                                       1.5376462
  3320   6 C     3321   6 C                                       1.5286417
  3320   6 C     3322   6 C                                       1.5347179
  3322   6 C     3323   6 C                                       1.5325234
  3323   6 C     3324   6 C                                       1.5290785
  3323   6 C     3325   6 C                                       1.5370839
  3325   6 C     3326   6 C                                       1.5315659
  3326   6 C     3327   6 C                                       1.5272423
  3326   6 C     3328   6 C                                       1.5357242
  3328   6 C     3329   6 C                                       1.5379404
  3329   6 C     3330   6 C                                       1.5242696
  3329   6 C     3331   6 C                                       1.5369046
  3331   6 C     3332   6 C                                       1.5368933
  3332   6 C     3333   6 C                                       1.5297386
  3332   6 C     3334   6 C                                       1.5341420
  3334   6 C     3335   6 C                                       1.5351962
  3335   6 C     3336   6 C                                       1.5287336
  3335   6 C     3337   6 C                                       1.5377335
  3338   6 C     3339   6 C                                       1.5284260
  3338   6 C     3340   6 C                                       1.5359239
  3340   6 C     3341   6 C                                       1.5345712
  3341   6 C     3342   6 C                                       1.5295509
  3343   6 C     3344   6 C                                       1.5329766
  3344   6 C     3345   6 C                                       1.5273892
  3344   6 C     3346   6 C                                       1.5343138
  3346   6 C     3347   6 C                                       1.5351647
  3347   6 C     3348   6 C                                       1.5244557
  3347   6 C     3349   6 C                                       1.5345945
  3349   6 C     3350   6 C                                       1.5359558
  3350   6 C     3351   6 C                                       1.5289848
  3350   6 C     3352   6 C                                       1.5330963
  3352   6 C     3353   6 C                                       1.5304067
  3353   6 C     3354   6 C                                       1.5239512
  3265   6 C     3355   1 H                                       1.0868322
  3265   6 C     3356   1 H                                       1.0876872
  3265   6 C     3357   1 H                                       1.0880283
  3354   6 C     3358   1 H                                       1.0878232
  3354   6 C     3359   1 H                                       1.0883329
  3354   6 C     3360   1 H                                       1.0865705
  3352   6 C     3361   1 H                                       1.0915481
  3352   6 C     3362   1 H                                       1.0940483
  3349   6 C     3363   1 H                                       1.0944434
  3349   6 C     3364   1 H                                       1.0933223
  3347   6 C     3365   1 H                                       1.0942802
  3348   6 C     3366   1 H                                       1.0865280
  3348   6 C     3367   1 H                                       1.0856399
  3348   6 C     3368   1 H                                       1.0882542
  3346   6 C     3369   1 H                                       1.0933820
  3346   6 C     3370   1 H                                       1.0930411
  3343   6 C     3371   1 H                                       1.0905340
  3343   6 C     3372   1 H                                       1.0927762
  3350   6 C     3373   1 H                                       1.0930514
  3351   6 C     3374   1 H                                       1.0865147
  3351   6 C     3375   1 H                                       1.0886160
  3351   6 C     3376   1 H                                       1.0886905
  3344   6 C     3377   1 H                                       1.0935186
  3345   6 C     3378   1 H                                       1.0859907
  3345   6 C     3379   1 H                                       1.0876775
  3345   6 C     3380   1 H                                       1.0887876
  3341   6 C     3381   1 H                                       1.0932201
  3342   6 C     3382   1 H                                       1.0886914
  3342   6 C     3383   1 H                                       1.0881296
  3342   6 C     3384   1 H                                       1.0886843
  3340   6 C     3385   1 H                                       1.0924180
  3340   6 C     3386   1 H                                       1.0943125
  3338   6 C     3387   1 H                                       1.0927189
  3339   6 C     3388   1 H                                       1.0879226
  3339   6 C     3389   1 H                                       1.0875348
  3339   6 C     3390   1 H                                       1.0883895
  3337   6 C     3391   1 H                                       1.0935723
  3337   6 C     3392   1 H                                       1.0906013
  3335   6 C     3393   1 H                                       1.0958741
  3336   6 C     3394   1 H                                       1.0885817
  3336   6 C     3395   1 H                                       1.0882016
  3336   6 C     3396   1 H                                       1.0869287
  3334   6 C     3397   1 H                                       1.0911539
  3334   6 C     3398   1 H                                       1.0944128
  3332   6 C     3399   1 H                                       1.0933652
  3333   6 C     3400   1 H                                       1.0883437
  3333   6 C     3401   1 H                                       1.0883807
  3333   6 C     3402   1 H                                       1.0865943
  3331   6 C     3403   1 H                                       1.0947484
  3331   6 C     3404   1 H                                       1.0937697
  3329   6 C     3405   1 H                                       1.0942987
  3330   6 C     3406   1 H                                       1.0860865
  3330   6 C     3407   1 H                                       1.0857979
  3330   6 C     3408   1 H                                       1.0859650
  3328   6 C     3409   1 H                                       1.0946006
  3328   6 C     3410   1 H                                       1.0934475
  3326   6 C     3411   1 H                                       1.0917907
  3327   6 C     3412   1 H                                       1.0865712
  3327   6 C     3413   1 H                                       1.0876576
  3327   6 C     3414   1 H                                       1.0880812
  3325   6 C     3415   1 H                                       1.0913862
  3325   6 C     3416   1 H                                       1.0944022
  3323   6 C     3417   1 H                                       1.0936696
  3324   6 C     3418   1 H                                       1.0888793
  3324   6 C     3419   1 H                                       1.0883432
  3324   6 C     3420   1 H                                       1.0868141
  3322   6 C     3421   1 H                                       1.0905691
  3322   6 C     3422   1 H                                       1.0927266
  3320   6 C     3423   1 H                                       1.0943850
  3321   6 C     3424   1 H                                       1.0876323
  3321   6 C     3425   1 H                                       1.0875183
  3321   6 C     3426   1 H                                       1.0860130
  3319   6 C     3427   1 H                                       1.0918977
  3319   6 C     3428   1 H                                       1.0886261
  3317   6 C     3429   1 H                                       1.0994779
  3318   6 C     3430   1 H                                       1.0878310
  3318   6 C     3431   1 H                                       1.0870109
  3318   6 C     3432   1 H                                       1.0859643
  3316   6 C     3433   1 H                                       1.0924400
  3316   6 C     3434   1 H                                       1.0926496
  3314   6 C     3435   1 H                                       1.0950117
  3315   6 C     3436   1 H                                       1.0858046
  3315   6 C     3437   1 H                                       1.0889714
  3315   6 C     3438   1 H                                       1.0863548
  3313   6 C     3439   1 H                                       1.0926730
  3313   6 C     3440   1 H                                       1.0916125
  3311   6 C     3441   1 H                                       1.0924729
  3312   6 C     3442   1 H                                       1.0885901
  3312   6 C     3443   1 H                                       1.0873326
  3312   6 C     3444   1 H                                       1.0876271
  3310   6 C     3445   1 H                                       1.0923423
  3310   6 C     3446   1 H                                       1.0929948
  3308   6 C     3447   1 H                                       1.0936445
  3309   6 C     3448   1 H                                       1.0877468
  3309   6 C     3449   1 H                                       1.0879750
  3309   6 C     3450   1 H                                       1.0883620
  3307   6 C     3451   1 H                                       1.0915456
  3307   6 C     3452   1 H                                       1.0919131
  3305   6 C     3453   1 H                                       1.0923173
  3306   6 C     3454   1 H                                       1.0876022
  3306   6 C     3455   1 H                                       1.0854296
  3306   6 C     3456   1 H                                       1.0884344
  3304   6 C     3457   1 H                                       1.0914495
  3304   6 C     3458   1 H                                       1.0922177
  3302   6 C     3459   1 H                                       1.0940566
  3303   6 C     3460   1 H                                       1.0880617
  3303   6 C     3461   1 H                                       1.0886452
  3303   6 C     3462   1 H                                       1.0862770
  3301   6 C     3463   1 H                                       1.0903264
  3301   6 C     3464   1 H                                       1.0935027
  3299   6 C     3465   1 H                                       1.0925444
  3300   6 C     3466   1 H                                       1.0881274
  3300   6 C     3467   1 H                                       1.0886876
  3300   6 C     3468   1 H                                       1.0865676
  3298   6 C     3469   1 H                                       1.0934485
  3298   6 C     3470   1 H                                       1.0939528
  3296   6 C     3471   1 H                                       1.0937456
  3297   6 C     3472   1 H                                       1.0885141
  3297   6 C     3473   1 H                                       1.0875824
  3297   6 C     3474   1 H                                       1.0870332
  3295   6 C     3475   1 H                                       1.0933851
  3295   6 C     3476   1 H                                       1.0932182
  3293   6 C     3477   1 H                                       1.0936919
  3294   6 C     3478   1 H                                       1.0885550
  3294   6 C     3479   1 H                                       1.0873418
  3294   6 C     3480   1 H                                       1.0883260
  3292   6 C     3481   1 H                                       1.0905692
  3292   6 C     3482   1 H                                       1.0925539
  3290   6 C     3483   1 H                                       1.0935933
  3291   6 C     3484   1 H                                       1.0880011
  3291   6 C     3485   1 H                                       1.0883739
  3291   6 C     3486   1 H                                       1.0885346
  3289   6 C     3487   1 H                                       1.0924199
  3289   6 C     3488   1 H                                       1.0941055
  3287   6 C     3489   1 H                                       1.0924128
  3288   6 C     3490   1 H                                       1.0879254
  3288   6 C     3491   1 H                                       1.0870959
  3288   6 C     3492   1 H                                       1.0888087
  3286   6 C     3493   1 H                                       1.0920683
  3286   6 C     3494   1 H                                       1.0927793
  3284   6 C     3495   1 H                                       1.0926545
  3285   6 C     3496   1 H                                       1.0862620
  3285   6 C     3497   1 H                                       1.0877477
  3285   6 C     3498   1 H                                       1.0874756
  3283   6 C     3499   1 H                                       1.0918007
  3283   6 C     3500   1 H                                       1.0933315
  3281   6 C     3501   1 H                                       1.0938520
  3282   6 C     3502   1 H                                       1.0883169
  3282   6 C     3503   1 H                                       1.0887712
  3282   6 C     3504   1 H                                       1.0868880
  3280   6 C     3505   1 H                                       1.0920567
  3280   6 C     3506   1 H                                       1.0942916
  3278   6 C     3507   1 H                                       1.0934251
  3279   6 C     3508   1 H                                       1.0887017
  3279   6 C     3509   1 H                                       1.0880998
  3279   6 C     3510   1 H                                       1.0862611
  3277   6 C     3511   1 H                                       1.0915560
  3277   6 C     3512   1 H                                       1.0935180
  3275   6 C     3513   1 H                                       1.0915590
  3276   6 C     3514   1 H                                       1.0877796
  3276   6 C     3515   1 H                                       1.0869737
  3276   6 C     3516   1 H                                       1.0886940
  3274   6 C     3517   1 H                                       1.0920067
  3274   6 C     3518   1 H                                       1.0926737
  3272   6 C     3519   1 H                                       1.0940585
  3273   6 C     3520   1 H                                       1.0885418
  3273   6 C     3521   1 H                                       1.0862186
  3273   6 C     3522   1 H                                       1.0879311
  3271   6 C     3523   1 H                                       1.0920208
  3271   6 C     3524   1 H                                       1.0941187
  3269   6 C     3525   1 H                                       1.0929540
  3270   6 C     3526   1 H                                       1.0870123
  3270   6 C     3527   1 H                                       1.0886433
  3270   6 C     3528   1 H                                       1.0876459
  3268   6 C     3529   1 H                                       1.0918160
  3268   6 C     3530   1 H                                       1.0930458
  3266   6 C     3531   1 H                                       1.0957748
  3267   6 C     3532   1 H                                       1.0878921
  3267   6 C     3533   1 H                                       1.0883541
  3267   6 C     3534   1 H                                       1.0880263
  3353   6 C     3535   1 H                                       1.0939664
  3353   6 C     3536   1 H                                       1.0913207

 * 2 distinct bonds (by element types)

   Z      Z             #   av. dist./Å        max./Å        min./Å
   1 H    6 C        2366     1.0903028     1.0994779     1.0836661
   6 C    6 C        1112     1.5324207     1.5398857     1.5230893


optimized geometry written to: xtbopt.xyz


           -------------------------------------------------
          | TOTAL ENERGY            -3716.247305364079 Eh   |
          | GRADIENT NORM               0.000662906715 Eh/α |
          | HOMO-LUMO GAP              11.081566266563 eV   |
           -------------------------------------------------

------------------------------------------------------------------------
 * finished run on 2024/06/24 at 12:39:21.965     
------------------------------------------------------------------------
 total:
 * wall-time:     3 d, 22 h, 40 min, 26.832 sec
 *  cpu-time:    21 d, 11 h, 39 min,  0.048 sec
 * ratio c/w:     5.447 speedup
 SCF:
 * wall-time:     0 d,  0 h,  8 min, 12.607 sec
 *  cpu-time:     0 d,  0 h, 44 min, 14.648 sec
 * ratio c/w:     5.389 speedup
 ANC optimizer:
 * wall-time:     3 d, 22 h, 30 min, 46.982 sec
 *  cpu-time:    21 d, 10 h, 53 min,  0.992 sec
 * ratio c/w:     5.448 speedup

